Title
81383
    1CHL1    C3    1   5.328   6.207  10.253  0.2437 -0.7257 -0.6377
    1CHL1    H3    2   5.406   6.133  10.278  0.1595 -1.0296 -1.2480
    1CHL1    O3    3   5.269   6.271  10.364 -0.4862  0.4446 -0.0606
    1CHL1   H3'    4   5.339   6.306  10.420 -1.2807  1.3480  0.4063
    1CHL1    C4    5   5.384   6.316  10.158  0.4370  0.4609 -0.3191
    1CHL1   H4A    6   5.321   6.407  10.153  0.9803  1.0492  2.3425
    1CHL1   H4B    7   5.477   6.337  10.215 -0.0820  1.4950  0.1603
    1CHL1    C5    8   5.425   6.281  10.018 -0.3721 -0.0227 -0.3250
    1CHL1    C6    9   5.546   6.312   9.970 -0.5146  0.7531  0.2471
    1CHL1    H6   10   5.619   6.361  10.037  3.1624 -1.8632 -1.4393
    1CHL1    C7   11   5.597   6.278   9.832  0.1873  0.7152  0.0659
    1CHL1   H7A   12   5.653   6.361   9.782  1.3820  0.0410  0.2509
    1CHL1   H7B   13   5.668   6.193   9.824 -0.9064 -0.1096 -1.3160
    1CHL1    C8   14   5.473   6.246   9.741  0.4111 -0.1456  0.8275
    1CHL1    H8   15   5.416   6.340   9.725 -0.5959 -0.7348  0.8347
    1CHL1   C14   16   5.526   6.184   9.613  0.3195  0.1197 -0.6828
    1CHL1   H14   17   5.578   6.096   9.655 -0.4270  1.2719  2.9606
    1CHL1   C15   18   5.631   6.271   9.540 -0.2539  0.1854 -0.3427
    1CHL1  H15A   19   5.623   6.381   9.550  1.3323  0.3297 -0.4757
    1CHL1  H15B   20   5.732   6.242   9.575 -0.8867  0.8301  2.2070
    1CHL1   C16   21   5.607   6.226   9.389 -0.6185  0.0799  0.3123
    1CHL1  H16A   22   5.578   6.314   9.328  1.2263  2.0781  2.1473
    1CHL1  H16B   23   5.701   6.176   9.357 -0.5338 -0.0792  0.7933
    1CHL1   C17   24   5.496   6.117   9.398  0.1798  0.4420  0.1225
    1CHL1   H17   25   5.549   6.021   9.419 -0.0323  0.2531 -0.2046
    1CHL1   C13   26   5.409   6.142   9.521 -0.4425  0.0215  0.5304
    1CHL1   C18   27   5.314   6.258   9.491  0.0507  0.0824 -0.2169
    1CHL1  H18A   28   5.241   6.235   9.411 -0.0323 -0.3702 -0.0087
    1CHL1  H18B   29   5.252   6.288   9.578  0.3682  1.1648 -0.3489
    1CHL1  H18C   30   5.378   6.344   9.461  1.2327  0.1697  2.2940
    1CHL1   C12   31   5.333   6.030   9.588  0.7787  0.5268  0.9337
    1CHL1  H12A   32   5.246   6.003   9.523  1.5887 -1.1864  0.4976
    1CHL1  H12B   33   5.398   5.941   9.598 -1.7743 -1.5433  0.4521
    1CHL1   C11   34   5.281   6.073   9.727  0.2025  0.2304  0.6230
    1CHL1  H11A   35   5.182   6.122   9.715  0.0832  0.0542  0.8700
    1CHL1  H11B   36   5.256   5.976   9.776  0.5514  0.2201  0.7838
    1CHL1    C9   37   5.381   6.146   9.817 -0.4034  0.3355 -0.2285
    1CHL1    H9   38   5.461   6.075   9.848 -0.6511 -0.0632 -0.4993
    1CHL1   C10   39   5.317   6.201   9.952 -0.2843  0.3898  0.0632
    1CHL1   C19   40   5.194   6.291   9.922  0.4487 -0.3033  0.3980
    1CHL1  H19A   41   5.218   6.362   9.839 -2.5262  1.0911  0.5899
    1CHL1  H19B   42   5.104   6.239   9.882  0.7262 -0.0553 -0.5692
    1CHL1  H19C   43   5.158   6.347  10.011  1.6524  0.0331  0.6992
    1CHL1    C1   44   5.269   6.084  10.036  0.7565  0.4677 -0.0385
    1CHL1   H1A   45   5.184   6.041   9.979  0.8478  0.6076 -0.2825
    1CHL1   H1B   46   5.348   6.006  10.039  0.4274  0.1377  0.1247
    1CHL1    C2   47   5.217   6.132  10.174  0.3352  0.2512 -0.2746
    1CHL1   H2A   48   5.194   6.038  10.229 -0.0191  2.1222  3.0471
    1CHL1   H2B   49   5.126   6.192  10.156 -0.9944 -1.0898  1.5677
    1CHL1   C20   50   5.422   6.092   9.262  0.1334 -1.0535 -0.5584
    1CHL1   H20   51   5.352   6.176   9.244 -0.2641 -0.9926  1.1563
    1CHL1   C21   52   5.340   5.954   9.272 -0.2834  0.2725 -0.5959
    1CHL1  H21A   53   5.307   5.919   9.172 -1.1149  1.9689 -0.9622
    1CHL1  H21B   54   5.249   5.960   9.335 -0.3097  0.7823 -0.6762
    1CHL1  H21C   55   5.409   5.879   9.317 -0.4461 -0.4796 -1.5646
    1CHL1   C22   56   5.523   6.080   9.144 -0.6920  0.5170  0.5514
    1CHL1  H22A   57   5.593   6.166   9.133 -0.3652  0.4052  1.6622
    1CHL1  H22B   58   5.583   5.989   9.165  0.6146  1.5939  1.6391
    1CHL1   C23   59   5.464   6.081   8.998 -0.2888  1.0979 -0.0500
    1CHL1  H23A   60   5.385   6.004   8.986  0.0786  0.6274  0.4943
    1CHL1  H23B   61   5.429   6.184   8.976  1.0341  1.5709 -0.0470
    1CHL1   C24   62   5.559   6.042   8.885 -0.0620  0.4842 -0.5773
    1CHL1  H24A   63   5.648   5.989   8.926  0.3386  0.9173 -0.8661
    1CHL1  H24B   64   5.506   5.977   8.812 -1.2210 -0.3761  0.9789
    1CHL1   C25   65   5.614   6.160   8.806 -0.2426  0.2138  0.0279
    1CHL1   H25   66   5.535   6.237   8.810 -1.4095 -0.9931  2.0390
    1CHL1   C26   67   5.744   6.204   8.874  0.2272  0.4555  0.2337
    1CHL1  H26A   68   5.718   6.250   8.972 -0.1984  0.0687  0.3038
    1CHL1  H26B   69   5.808   6.114   8.881 -0.9558 -0.6376 -1.7757
    1CHL1  H26C   70   5.796   6.277   8.808 -0.9734  0.6953 -0.4991
    1CHL1   C27   71   5.642   6.127   8.658  0.2806  0.6997  0.2937
    1CHL1  H27A   72   5.665   6.224   8.609 -1.7388  1.0280 -0.0941
    1CHL1  H27B   73   5.717   6.045   8.651 -1.8963 -1.4872  1.0988
    1CHL1  H27C   74   5.545   6.092   8.617 -0.2513 -0.2389  2.2252
    2CHL1    C3   75   4.061   4.752  10.181 -0.0432 -0.8607 -0.4991
    2CHL1    H3   76   3.954   4.739  10.158 -0.1946 -0.7496  0.1303
    2CHL1    O3   77   4.077   4.841  10.294  0.3489  0.7148  0.7922
    2CHL1   H3'   78   4.152   4.890  10.260  0.6716 -0.5417 -0.3926
    2CHL1    C4   79   4.121   4.611  10.201  0.2264 -0.2846  0.4355
    2CHL1   H4A   80   4.221   4.626  10.247  1.1269  0.2135 -1.5923
    2CHL1   H4B   81   4.062   4.567  10.284  0.2962 -2.2221 -0.4930
    2CHL1    C5   82   4.117   4.526  10.072 -0.3119  0.5376 -0.7678
    2CHL1    C6   83   4.063   4.402  10.091  0.3724 -0.0345 -0.0380
    2CHL1    H6   84   4.032   4.367  10.190  1.2900 -0.0373  0.2611
    2CHL1    C7   85   4.048   4.314   9.974  0.1421  1.3529 -0.4531
    2CHL1   H7A   86   4.082   4.211  10.002 -2.8922  0.7210  1.2968
    2CHL1   H7B   87   3.946   4.305   9.931  0.1889 -0.3777 -0.2916
    2CHL1    C8   88   4.127   4.356   9.851 -1.0973  0.0604 -0.2382
    2CHL1    H8   89   4.232   4.320   9.863 -2.3066 -4.0665 -0.4994
    2CHL1   C14   90   4.078   4.289   9.720 -0.5056  0.3792 -0.0284
    2CHL1   H14   91   3.971   4.318   9.711 -0.4920  2.0355  3.2540
    2CHL1   C15   92   4.099   4.139   9.723  0.1942  0.5756  0.3275
    2CHL1  H15A   93   4.202   4.128   9.763 -0.6906 -1.3106  2.2805
    2CHL1  H15B   94   4.039   4.077   9.793  0.9203 -0.9928 -0.3915
    2CHL1   C16   95   4.075   4.094   9.573 -0.1738 -0.8564 -0.1488
    2CHL1  H16A   96   4.168   4.038   9.548  0.9714  0.3697  1.2092
    2CHL1  H16B   97   3.981   4.037   9.554  0.3530 -2.1791  1.0401
    2CHL1   C17   98   4.077   4.234   9.496  0.8820 -0.2815  0.1263
    2CHL1   H17   99   3.972   4.270   9.497  0.7887 -0.2258 -2.7743
    2CHL1   C13  100   4.143   4.332   9.591  0.3770 -0.7699 -0.2574
    2CHL1   C18  101   4.298   4.311   9.592 -0.8210 -0.7506  0.4177
    2CHL1  H18A  102   4.340   4.347   9.496 -0.0375 -1.3362  0.5286
    2CHL1  H18B  103   4.346   4.361   9.680  0.0431  0.4647 -0.7013
    2CHL1  H18C  104   4.325   4.204   9.596 -1.0396 -0.8751 -0.9810
    2CHL1   C12  105   4.113   4.482   9.571  0.3390  0.1353  0.0326
    2CHL1  H12A  106   4.143   4.531   9.475 -1.5271  2.6972  0.6269
    2CHL1  H12B  107   4.002   4.494   9.571  0.2957 -0.1615  1.4691
    2CHL1   C11  108   4.158   4.566   9.692  0.1087  0.0935  0.2028
    2CHL1  H11A  109   4.265   4.584   9.670 -0.9083  1.7776 -4.4536
    2CHL1  H11B  110   4.103   4.661   9.679  0.1945 -0.0480 -1.4190
    2CHL1    C9  111   4.118   4.506   9.831 -0.3252 -0.3509  0.9615
    2CHL1    H9  112   4.007   4.520   9.825 -0.4322 -1.5833 -0.9370
    2CHL1   C10  113   4.164   4.595   9.948 -0.3873  0.5238  0.9983
    2CHL1   C19  114   4.323   4.603   9.953 -0.6008 -0.0149  0.1624
    2CHL1  H19A  115   4.365   4.667   9.873  0.8623 -0.1515  0.7924
    2CHL1  H19B  116   4.359   4.631  10.055 -2.0278  1.1435  0.3887
    2CHL1  H19C  117   4.359   4.501   9.926 -0.1536 -0.0434  0.8245
    2CHL1    C1  118   4.099   4.733   9.943 -0.0463 -0.3550 -0.2047
    2CHL1   H1A  119   4.156   4.788   9.865 -1.3708  1.2337 -0.1094
    2CHL1   H1B  120   3.992   4.718   9.915 -0.2386 -2.7655  1.5283
    2CHL1    C2  121   4.120   4.824  10.064 -0.0706  0.0458  0.3929
    2CHL1   H2A  122   4.075   4.921  10.034 -1.6553 -1.1884 -1.4443
    2CHL1   H2B  123   4.227   4.849  10.084 -0.6938  2.7661  0.7773
    2CHL1   C20  124   4.110   4.214   9.353 -1.0782 -0.8234 -0.2864
    2CHL1   H20  125   4.203   4.156   9.338 -1.9095 -1.9662 -1.2367
    2CHL1   C21  126   4.114   4.352   9.284  0.4853  0.1011 -0.2624
    2CHL1  H21A  127   4.024   4.411   9.315 -0.9536 -1.1366 -1.8813
    2CHL1  H21B  128   4.112   4.337   9.174 -0.1354 -3.6353  0.1325
    2CHL1  H21C  129   4.207   4.409   9.305  1.2009  0.2289 -3.3318
    2CHL1   C22  130   4.002   4.137   9.276  0.2422  0.7697  0.0286
    2CHL1  H22A  131   4.008   4.042   9.334 -2.4508  0.2450 -0.4254
    2CHL1  H22B  132   3.899   4.175   9.289 -1.1855 -2.6073 -0.3494
    2CHL1   C23  133   4.038   4.108   9.130 -0.1156 -0.3095 -0.3106
    2CHL1  H23A  134   4.028   4.204   9.075 -0.3772  0.6662  1.3787
    2CHL1  H23B  135   4.142   4.070   9.115 -0.1048 -0.2484 -0.3872
    2CHL1   C24  136   3.933   4.013   9.062 -0.1836  0.7093  0.2531
    2CHL1  H24A  137   3.919   3.921   9.124  0.3780 -0.5910 -1.4710
    2CHL1  H24B  138   3.836   4.065   9.052  0.3677  1.6979 -0.0079
    2CHL1   C25  139   3.973   3.950   8.926 -1.0628 -0.3418 -0.2932
    2CHL1   H25  140   4.049   3.876   8.959 -0.3349  0.6574  0.3089
    2CHL1   C26  141   3.848   3.874   8.864 -0.4646 -0.1934  0.3649
    2CHL1  H26A  142   3.834   3.788   8.932 -0.0408 -1.3315 -0.9379
    2CHL1  H26B  143   3.754   3.933   8.860 -0.6954 -0.5515  0.5123
    2CHL1  H26C  144   3.874   3.834   8.764  1.0342 -2.0212  1.4221
    2CHL1   C27  145   4.033   4.051   8.824 -0.3875 -0.0651 -0.5063
    2CHL1  H27A  146   3.954   4.115   8.779 -1.2369  0.6689  1.8298
    2CHL1  H27B  147   4.106   4.121   8.871  0.0372 -1.1159  0.4336
    2CHL1  H27C  148   4.090   4.007   8.740  1.7912  0.3397  0.6629
    3CHL1    C3  149   5.204   4.496  10.397  0.0304  0.1285  0.8990
    3CHL1    H3  150   5.156   4.590  10.362 -0.4576  0.0559  1.3606
    3CHL1    O3  151   5.222   4.512  10.539  0.3816 -0.4250  0.0665
    3CHL1   H3'  152   5.136   4.518  10.582  0.1459 -1.7967 -0.1632
    3CHL1    C4  153   5.114   4.372  10.373 -1.1846  1.0005  0.5482
    3CHL1   H4A  154   5.168   4.288  10.419  0.9141  1.7400 -0.4376
    3CHL1   H4B  155   5.020   4.393  10.429 -0.2787  0.7266  2.2298
    3CHL1    C5  156   5.086   4.349  10.231  0.0602 -0.2869  0.5043
    3CHL1    C6  157   4.957   4.354  10.182 -0.4702  0.4950  0.6248
    3CHL1    H6  158   4.880   4.349  10.260 -0.9177 -0.5116  0.1462
    3CHL1    C7  159   4.926   4.333  10.039 -0.3223  0.2516 -0.2321
    3CHL1   H7A  160   4.831   4.278  10.025 -0.1164 -0.1548 -0.0690
    3CHL1   H7B  161   4.907   4.432   9.993  0.0305  0.5283  0.2122
    3CHL1    C8  162   5.049   4.275   9.960 -0.2676 -0.5120 -0.0116
    3CHL1    H8  163   5.061   4.169   9.989 -2.5417 -1.0856 -0.9581
    3CHL1   C14  164   5.021   4.298   9.817  0.2104  0.3511  0.5553
    3CHL1   H14  165   5.008   4.406   9.800  0.7306  0.7360  2.3883
    3CHL1   C15  166   4.893   4.236   9.770 -0.0846  0.4246  0.1082
    3CHL1  H15A  167   4.887   4.136   9.817 -1.6523  0.3226 -0.2558
    3CHL1  H15B  168   4.803   4.296   9.797 -1.7045 -2.6221  1.9506
    3CHL1   C16  169   4.906   4.238   9.618  0.3213  0.2175  0.6541
    3CHL1  H16A  170   4.880   4.138   9.578  0.9908 -0.4477  1.8295
    3CHL1  H16B  171   4.855   4.318   9.560  1.0821 -1.0574 -1.9292
    3CHL1   C17  172   5.055   4.275   9.585 -0.2313  0.6193  0.2911
    3CHL1   H17  173   5.066   4.383   9.562  1.5422  1.2117  3.3560
    3CHL1   C13  174   5.129   4.252   9.719  0.3778 -0.1552 -0.3769
    3CHL1   C18  175   5.166   4.110   9.741 -0.2164  0.9278  0.3837
    3CHL1  H18A  176   5.190   4.073   9.843  3.0895  1.3723 -0.1339
    3CHL1  H18B  177   5.083   4.048   9.700 -0.6151  1.1381  0.8624
    3CHL1  H18C  178   5.252   4.080   9.678 -1.1825  1.4547 -1.2568
    3CHL1   C12  179   5.256   4.334   9.743 -0.3206  0.5725 -0.7739
    3CHL1  H12A  180   5.340   4.311   9.675 -0.0806  2.3264 -1.1352
    3CHL1  H12B  181   5.232   4.443   9.736 -0.0159  0.8309  1.4654
    3CHL1   C11  182   5.298   4.330   9.896  0.4401 -0.3872 -0.2849
    3CHL1  H11A  183   5.335   4.226   9.910  1.8046  0.3269  1.7426
    3CHL1  H11B  184   5.379   4.404   9.910 -1.1725  1.1480  1.5739
    3CHL1    C9  185   5.178   4.354   9.998  0.5091 -0.3456 -0.1730
    3CHL1    H9  186   5.139   4.457   9.981 -0.9565 -1.0634 -1.4240
    3CHL1   C10  187   5.221   4.341  10.146 -0.3525  0.4622  0.4655
    3CHL1   C19  188   5.291   4.204  10.175  0.3440 -0.4868  0.1369
    3CHL1  H19A  189   5.255   4.117  10.116 -0.6851 -0.5768  0.8751
    3CHL1  H19B  190   5.388   4.221  10.124  0.9589 -1.5478  0.9071
    3CHL1  H19C  191   5.297   4.172  10.282  2.7345 -0.3916  0.0960
    3CHL1    C1  192   5.327   4.453  10.180  0.2389 -0.5133 -0.5348
    3CHL1   H1A  193   5.425   4.421  10.138  0.3426 -0.0734 -0.6329
    3CHL1   H1B  194   5.289   4.550  10.143 -1.1145  0.2834  2.6394
    3CHL1    C2  195   5.345   4.473  10.330 -0.5377  1.1189 -0.6763
    3CHL1   H2A  196   5.398   4.569  10.348  0.1815  0.7137 -0.6146
    3CHL1   H2B  197   5.399   4.385  10.371 -0.1880  0.3789 -2.6312
    3CHL1   C20  198   5.100   4.201   9.466  0.5279  0.2569  0.2985
    3CHL1   H20  199   5.108   4.093   9.491 -2.7144 -0.7557 -2.2795
    3CHL1   C21  200   5.240   4.251   9.425 -0.2433  0.6297  0.4765
    3CHL1  H21A  201   5.240   4.359   9.397 -2.4663  0.7227  0.6568
    3CHL1  H21B  202   5.281   4.190   9.342 -0.8183  0.9932 -0.0842
    3CHL1  H21C  203   5.315   4.216   9.499 -1.0003 -0.4777  0.7310
    3CHL1   C22  204   4.999   4.201   9.348 -0.2135  0.3644 -1.0868
    3CHL1  H22A  205   4.921   4.123   9.360  0.2567 -0.2715 -2.0382
    3CHL1  H22B  206   4.960   4.304   9.336 -0.2550  0.8854  2.4254
    3CHL1   C23  207   5.073   4.163   9.216 -0.4812 -0.1025 -0.2223
    3CHL1  H23A  208   5.152   4.236   9.189 -1.4458  0.4045 -1.8525
    3CHL1  H23B  209   5.118   4.062   9.216 -1.8133 -0.7298 -1.4312
    3CHL1   C24  210   4.967   4.165   9.105 -0.2880  0.6213 -0.2883
    3CHL1  H24A  211   4.891   4.090   9.137  0.6952 -1.0892 -1.7755
    3CHL1  H24B  212   4.915   4.263   9.098 -0.4138  0.7072  1.5397
    3CHL1   C25  213   5.018   4.121   8.964  0.2421  0.0668 -0.3344
    3CHL1   H25  214   5.081   4.031   8.983  0.0618 -0.4682 -2.0926
    3CHL1   C26  215   4.907   4.070   8.865  0.7090  0.2653  0.0130
    3CHL1  H26A  216   4.958   4.022   8.779 -1.9844  0.2219 -1.6626
    3CHL1  H26B  217   4.850   3.992   8.921  1.0883 -0.4745 -0.6258
    3CHL1  H26C  218   4.844   4.150   8.820  1.3067  0.2367 -0.8965
    3CHL1   C27  219   5.093   4.218   8.885 -0.0048  0.2650 -0.0493
    3CHL1  H27A  220   5.166   4.276   8.945 -0.1947 -0.7210  1.1828
    3CHL1  H27B  221   5.159   4.160   8.816  0.2901 -1.1149  1.3452
    3CHL1  H27C  222   5.034   4.294   8.830 -0.2978  0.6125  0.7465
    4CHL1    C3  223   3.381   5.298  10.483  0.0259 -0.4667  0.6863
    4CHL1    H3  224   3.430   5.203  10.456  0.5393  0.2131 -0.8771
    4CHL1    O3  225   3.348   5.301  10.626  0.6410 -0.1393  0.3755
    4CHL1   H3'  226   3.289   5.377  10.631 -0.6512 -0.9536 -1.3126
    4CHL1    C4  227   3.487   5.408  10.453  0.6076 -0.0056  0.6712
    4CHL1   H4A  228   3.440   5.503  10.487  1.7981  1.4314 -1.4288
    4CHL1   H4B  229   3.573   5.397  10.523  1.2297  2.3538  0.3612
    4CHL1    C5  230   3.518   5.417  10.304 -0.8256 -0.2634 -0.7665
    4CHL1    C6  231   3.645   5.415  10.257  0.0329 -0.8342 -0.1159
    4CHL1    H6  232   3.726   5.417  10.331  0.0833 -0.2042 -0.1752
    4CHL1    C7  233   3.681   5.445  10.117 -0.9300  0.0757  0.3476
    4CHL1   H7A  234   3.761   5.521  10.104 -2.0506  1.2398  0.1332
    4CHL1   H7B  235   3.740   5.360  10.075 -0.7926  1.1184 -1.7460
    4CHL1    C8  236   3.560   5.472  10.019 -0.8528 -0.0193  0.6105
    4CHL1    H8  237   3.534   5.580  10.024  0.7766  0.4482 -0.4946
    4CHL1   C14  238   3.599   5.434   9.877 -0.6061  0.3277  0.3604
    4CHL1   H14  239   3.605   5.323   9.888 -1.2416  0.0941 -1.4492
    4CHL1   C15  240   3.734   5.484   9.814  0.0954  0.1339  0.0668
    4CHL1  H15A  241   3.765   5.589   9.836 -1.4493  0.9429 -1.4575
    4CHL1  H15B  242   3.815   5.421   9.857  0.3765  0.0071 -0.6391
    4CHL1   C16  243   3.718   5.453   9.668  0.3271 -0.0638  0.7203
    4CHL1  H16A  244   3.746   5.540   9.605  1.2636 -0.2905  0.8117
    4CHL1  H16B  245   3.785   5.374   9.627  0.1870  0.5578 -0.7762
    4CHL1   C17  246   3.570   5.408   9.650 -0.5658  0.5609  0.4319
    4CHL1   H17  247   3.571   5.298   9.666  2.3747  0.1979 -1.4897
    4CHL1   C13  248   3.493   5.460   9.773  0.4848 -0.2940  0.0396
    4CHL1   C18  249   3.462   5.609   9.773 -0.7824 -0.1901 -0.3861
    4CHL1  H18A  250   3.386   5.634   9.697 -2.1180 -0.6387  0.7443
    4CHL1  H18B  251   3.424   5.663   9.863  0.3596  0.7169 -0.4156
    4CHL1  H18C  252   3.554   5.666   9.750 -0.5486  0.1629  1.2453
    4CHL1   C12  253   3.369   5.375   9.815 -0.1950 -0.1102  0.0816
    4CHL1  H12A  254   3.289   5.397   9.741  0.9965  1.3119 -0.8358
    4CHL1  H12B  255   3.411   5.272   9.806  0.8065  0.3637 -0.9472
    4CHL1   C11  256   3.316   5.394   9.964  0.6650 -0.1885  0.0407
    4CHL1  H11A  257   3.270   5.495   9.972 -2.8939 -1.7783  1.3019
    4CHL1  H11B  258   3.241   5.315   9.982  2.2651 -1.9929 -0.7850
    4CHL1    C9  259   3.438   5.387  10.060  0.6518  0.4264 -1.2865
    4CHL1    H9  260   3.474   5.282  10.061  0.3662  0.3119  0.3935
    4CHL1   C10  261   3.389   5.410  10.209 -0.0613  0.0141 -0.5539
    4CHL1   C19  262   3.326   5.550  10.225  0.1538  0.5663 -0.7112
    4CHL1  H19A  263   3.398   5.629  10.194 -2.2404  2.8615 -0.7374
    4CHL1  H19B  264   3.231   5.553  10.168 -0.4919  1.3852  0.3617
    4CHL1  H19C  265   3.302   5.565  10.333 -2.9086 -0.2840 -1.1780
    4CHL1    C1  266   3.280   5.306  10.254 -0.2354  0.4086 -0.3932
    4CHL1   H1A  267   3.180   5.314  10.205 -1.2940 -1.8895  1.2211
    4CHL1   H1B  268   3.315   5.202  10.241 -0.3148  0.1973  0.9996
    4CHL1    C2  269   3.252   5.306  10.403 -0.1220 -0.9095  0.2675
    4CHL1   H2A  270   3.191   5.218  10.432  0.1677 -1.6169 -1.1932
    4CHL1   H2B  271   3.203   5.397  10.446  3.1201  0.7838  0.6735
    4CHL1   C20  272   3.511   5.438   9.503 -0.6915  0.0919 -0.1502
    4CHL1   H20  273   3.500   5.547   9.487 -0.3656 -0.1851 -2.8247
    4CHL1   C21  274   3.362   5.385   9.487  0.1797  0.3360 -0.1672
    4CHL1  H21A  275   3.286   5.452   9.533  0.1009 -0.7378  1.3473
    4CHL1  H21B  276   3.365   5.281   9.527 -2.0146 -1.3965 -3.9750
    4CHL1  H21C  277   3.326   5.368   9.383 -0.4388  1.1996 -0.0986
    4CHL1   C22  278   3.600   5.375   9.396 -0.2604 -0.3847  1.0690
    4CHL1  H22A  279   3.575   5.396   9.290 -0.4735 -1.2762  0.9375
    4CHL1  H22B  280   3.705   5.405   9.412 -0.1960 -0.8724  1.5741
    4CHL1   C23  281   3.592   5.223   9.381 -0.0350 -0.0080 -0.1341
    4CHL1  H23A  282   3.616   5.180   9.480 -1.0129 -1.8998 -0.6698
    4CHL1  H23B  283   3.488   5.198   9.351 -0.4545  0.9686  0.4562
    4CHL1   C24  284   3.698   5.171   9.280  0.1181  0.3181  0.0964
    4CHL1  H24A  285   3.683   5.228   9.186 -0.9473 -1.4783 -0.8685
    4CHL1  H24B  286   3.802   5.188   9.318  1.1244 -1.0839 -1.8942
    4CHL1   C25  287   3.688   5.023   9.254  0.2830 -0.2510 -0.4365
    4CHL1   H25  288   3.707   4.967   9.348 -0.0710  0.0881 -0.1615
    4CHL1   C26  289   3.551   5.003   9.185 -0.3090  0.2844  0.1070
    4CHL1  H26A  290   3.560   4.905   9.134  2.3356  1.2844 -1.5536
    4CHL1  H26B  291   3.470   5.001   9.261  0.0769  2.0767  0.6035
    4CHL1  H26C  292   3.521   5.081   9.112 -1.9882 -1.1656 -0.8334
    4CHL1   C27  293   3.801   4.984   9.150 -0.2122  0.0156 -0.0546
    4CHL1  H27A  294   3.903   5.002   9.188 -0.4178 -2.2303  1.8574
    4CHL1  H27B  295   3.800   4.873   9.142 -0.5005  0.0078  0.0544
    4CHL1  H27C  296   3.783   5.036   9.054  1.3669 -0.4094 -0.6084
    5CHL1    C3  297   6.073   5.516  10.354 -0.4475  0.1144 -0.0029
    5CHL1    H3  298   6.175   5.554  10.329 -0.8213  0.4929 -1.0203
    5CHL1    O3  299   6.047   5.531  10.497  0.4046 -0.1971  0.4552
    5CHL1   H3'  300   5.968   5.477  10.507  2.0331 -3.3491 -1.9417
    5CHL1    C4  301   5.957   5.589  10.275 -0.6977 -0.1006  0.6870
    5CHL1   H4A  302   5.865   5.534  10.304 -0.7792 -0.5870 -0.4447
    5CHL1   H4B  303   5.936   5.693  10.307 -1.7211 -0.3940  0.9946
    5CHL1    C5  304   5.994   5.570  10.128  0.3407 -0.1611  0.0728
    5CHL1    C6  305   6.002   5.678  10.048 -0.3668  0.6732  0.1194
    5CHL1    H6  306   5.980   5.779  10.086 -1.0427  0.9654 -0.9947
    5CHL1    C7  307   6.022   5.676   9.897  0.1554 -0.0191 -1.0719
    5CHL1   H7A  308   5.944   5.740   9.851  0.5447 -0.5195 -2.4761
    5CHL1   H7B  309   6.115   5.734   9.878  0.2784 -0.0071 -0.4513
    5CHL1    C8  310   6.021   5.535   9.839  0.6465 -0.2661 -1.5423
    5CHL1    H8  311   5.912   5.521   9.824  0.1283 -0.8522  1.9394
    5CHL1   C14  312   6.089   5.525   9.702  0.2789 -0.1850 -0.9751
    5CHL1   H14  313   6.197   5.546   9.718 -0.2451  1.4702  0.8054
    5CHL1   C15  314   6.050   5.620   9.593 -0.5635  1.1472  0.0316
    5CHL1  H15A  315   5.941   5.613   9.572 -0.6931 -0.0633  0.9735
    5CHL1  H15B  316   6.075   5.727   9.612 -0.8312  0.9433  1.6820
    5CHL1   C16  317   6.130   5.559   9.471 -0.3684  0.0114 -0.2548
    5CHL1  H16A  318   6.061   5.580   9.387 -0.3017  0.9884 -0.0764
    5CHL1  H16B  319   6.223   5.617   9.456 -0.4589  0.2636  0.1389
    5CHL1   C17  320   6.161   5.414   9.499 -0.2968  1.5463 -0.1796
    5CHL1   H17  321   6.267   5.394   9.528 -0.4064 -1.5235 -1.4726
    5CHL1   C13  322   6.084   5.385   9.634  0.3206 -0.1641 -0.2458
    5CHL1   C18  323   5.928   5.357   9.609  0.0663 -0.0678 -0.4477
    5CHL1  H18A  324   5.886   5.426   9.534  0.7503 -0.0459 -0.8230
    5CHL1  H18B  325   5.921   5.253   9.569 -0.8688  0.7336 -2.4820
    5CHL1  H18C  326   5.865   5.359   9.701  1.4063  0.4267  0.4938
    5CHL1   C12  327   6.145   5.284   9.736  1.0449  0.2503  0.9990
    5CHL1  H12A  328   6.135   5.182   9.694  0.2300 -0.1996  2.2388
    5CHL1  H12B  329   6.255   5.292   9.755  0.9492  0.5041  1.4463
    5CHL1   C11  330   6.079   5.285   9.865  1.3604 -0.6669 -0.5483
    5CHL1  H11A  331   5.969   5.269   9.855  0.4794  3.4782  0.5534
    5CHL1  H11B  332   6.124   5.206   9.929  0.1516 -1.0015 -0.0764
    5CHL1    C9  333   6.081   5.430   9.928 -0.7920 -0.5676  0.2852
    5CHL1    H9  334   6.186   5.466   9.938 -1.5695  2.0717 -0.2568
    5CHL1   C10  335   6.018   5.426  10.075  0.0028 -0.7116  0.2062
    5CHL1   C19  336   5.882   5.353  10.066  0.6966 -0.0438 -0.2192
    5CHL1  H19A  337   5.837   5.356  10.168  0.2696 -0.3741 -0.3995
    5CHL1  H19B  338   5.818   5.391   9.984  0.2613 -1.2553 -0.4522
    5CHL1  H19C  339   5.896   5.245  10.049 -0.8971 -0.0954 -1.4435
    5CHL1    C1  340   6.112   5.360  10.174  0.7632  0.0990  0.4329
    5CHL1   H1A  341   6.124   5.252  10.148  0.2988 -0.3511  1.9570
    5CHL1   H1B  342   6.212   5.403  10.151  0.6377 -0.4677 -1.2767
    5CHL1    C2  343   6.079   5.370  10.324 -0.7521  0.4844 -0.0704
    5CHL1   H2A  344   6.158   5.331  10.392 -0.8246 -0.7984 -0.6881
    5CHL1   H2B  345   5.983   5.321  10.349 -0.7875  1.0246  0.8744
    5CHL1   C20  346   6.111   5.318   9.385 -0.1135  0.3531 -0.6095
    5CHL1   H20  347   6.003   5.330   9.360 -0.4250 -0.7153  0.1305
    5CHL1   C21  348   6.143   5.168   9.412 -0.0895  0.2672  1.3805
    5CHL1  H21A  349   6.253   5.154   9.418 -0.3216 -3.0000 -0.0453
    5CHL1  H21B  350   6.109   5.114   9.322  2.2860  0.5408  0.2320
    5CHL1  H21C  351   6.094   5.123   9.501  0.6741 -2.0698  0.7005
    5CHL1   C22  352   6.186   5.360   9.256  0.2939 -0.0819 -0.3669
    5CHL1  H22A  353   6.201   5.469   9.240  0.6870  0.0535  0.8506
    5CHL1  H22B  354   6.290   5.321   9.262  0.1296 -0.3246  3.7283
    5CHL1   C23  355   6.121   5.300   9.130  0.0400 -0.0338  0.6111
    5CHL1  H23A  356   6.109   5.192   9.150  1.4982  0.1415  2.7976
    5CHL1  H23B  357   6.016   5.336   9.136  0.6614  1.8493  1.1409
    5CHL1   C24  358   6.192   5.321   9.000 -0.2732 -0.7502  0.6113
    5CHL1  H24A  359   6.222   5.426   8.978 -0.7452 -0.7747 -0.2073
    5CHL1  H24B  360   6.291   5.273   8.987 -0.2551 -0.5826  0.0911
    5CHL1   C25  361   6.104   5.289   8.877  0.5985 -0.7009  0.1015
    5CHL1   H25  362   6.002   5.328   8.900  1.0550  1.7606 -1.6795
    5CHL1   C26  363   6.147   5.365   8.751 -0.0838 -0.3808  1.4983
    5CHL1  H26A  364   6.250   5.332   8.724 -0.5066 -1.2193  0.8882
    5CHL1  H26B  365   6.087   5.333   8.664 -0.6929  0.8755  1.4364
    5CHL1  H26C  366   6.138   5.476   8.755  0.5886 -0.3386  2.0889
    5CHL1   C27  367   6.103   5.140   8.850 -0.0590 -0.1218  0.6036
    5CHL1  H27A  368   6.006   5.110   8.803 -1.1116  4.1776 -0.3954
    5CHL1  H27B  369   6.183   5.103   8.783 -0.8179  0.7623 -0.8360
    5CHL1  H27C  370   6.108   5.088   8.948  1.0851  2.4848  2.0072
    6CHL1    C3  371   3.070   1.335  10.576  0.8120 -0.1446  0.1105
    6CHL1    H3  372   2.961   1.315  10.568  0.9681 -0.5044 -1.3590
    6CHL1    O3  373   3.131   1.339  10.704 -1.0925  0.1647  0.1902
    6CHL1   H3'  374   3.222   1.361  10.686 -0.5113 -2.1576 -0.0351
    6CHL1    C4  375   3.149   1.221  10.496 -0.1555  0.1321 -0.2327
    6CHL1   H4A  376   3.255   1.215  10.527 -0.1260 -0.2955 -0.4173
    6CHL1   H4B  377   3.103   1.126  10.531  0.2735  0.3765  1.0562
    6CHL1    C5  378   3.128   1.215  10.349 -0.5413 -0.1707  0.0328
    6CHL1    C6  379   3.107   1.098  10.279 -0.8732 -0.4920  0.2833
    6CHL1    H6  380   3.094   1.000  10.327  3.1335 -1.3349 -0.0128
    6CHL1    C7  381   3.085   1.095  10.127  1.0947 -0.6464  0.4908
    6CHL1   H7A  382   3.138   1.009  10.081  1.2352 -0.0553 -0.4957
    6CHL1   H7B  383   2.976   1.078  10.117  0.5188  1.8636  1.7189
    6CHL1    C8  384   3.121   1.222  10.056  0.1315 -0.2671 -0.6107
    6CHL1    H8  385   3.231   1.233  10.060  0.1026  0.1599 -0.9122
    6CHL1   C14  386   3.069   1.225   9.914  0.6388  0.2910 -0.3576
    6CHL1   H14  387   2.960   1.206   9.920  0.4842  0.8724 -1.2073
    6CHL1   C15  388   3.112   1.108   9.821 -0.2833  0.0329 -0.1436
    6CHL1  H15A  389   3.223   1.110   9.829 -0.1434 -2.6290 -0.3891
    6CHL1  H15B  390   3.059   1.012   9.841 -1.1231  0.1313 -1.7194
    6CHL1   C16  391   3.060   1.168   9.685 -0.0578  0.3095 -0.0574
    6CHL1  H16A  392   3.148   1.177   9.618 -0.6013  1.6857 -0.6237
    6CHL1  H16B  393   2.988   1.103   9.631 -0.4467  0.9310 -0.2943
    6CHL1   C17  394   3.018   1.315   9.710  1.2442 -0.4622  0.9908
    6CHL1   H17  395   2.909   1.308   9.728  1.2309 -0.8478  0.7853
    6CHL1   C13  396   3.084   1.358   9.837  0.6503  0.6238 -0.2965
    6CHL1   C18  397   3.242   1.380   9.824  0.4257 -0.0761  0.0069
    6CHL1  H18A  398   3.300   1.293   9.785  0.4053  0.8881 -2.3892
    6CHL1  H18B  399   3.278   1.462   9.758  2.8576 -2.0681 -1.3558
    6CHL1  H18C  400   3.274   1.407   9.927 -1.9324  2.6013  0.1576
    6CHL1   C12  401   3.016   1.471   9.920  1.1217  0.4544  0.1113
    6CHL1  H12A  402   3.029   1.565   9.862 -2.6568  1.2190  0.2538
    6CHL1  H12B  403   2.909   1.443   9.919  1.3680 -0.5805 -1.3317
    6CHL1   C11  404   3.064   1.487  10.055 -0.1165  0.2201  0.1211
    6CHL1  H11A  405   3.165   1.533  10.050  0.3973 -0.9162 -0.6199
    6CHL1  H11B  406   3.009   1.565  10.111  0.1197 -0.5661  1.5276
    6CHL1    C9  407   3.069   1.348  10.136 -0.5314  0.1452  0.2321
    6CHL1    H9  408   2.961   1.337  10.158 -0.2539  1.8645  2.9388
    6CHL1   C10  409   3.127   1.359  10.282 -0.0490  0.7434 -0.2855
    6CHL1   C19  410   3.283   1.393  10.275  0.0642  0.0157 -0.1614
    6CHL1  H19A  411   3.328   1.379  10.375 -1.1867 -0.1691  0.3899
    6CHL1  H19B  412   3.338   1.338  10.195  0.5820  1.5328 -0.8765
    6CHL1  H19C  413   3.287   1.499  10.243  1.6003  0.1069  0.2583
    6CHL1    C1  414   3.048   1.459  10.367 -0.0191 -0.1679  0.0962
    6CHL1   H1A  415   3.065   1.561  10.325  0.1008  0.0689  0.6949
    6CHL1   H1B  416   2.937   1.452  10.362 -0.2504  1.9361  0.9722
    6CHL1    C2  417   3.099   1.470  10.509  0.7291 -0.4961  0.0548
    6CHL1   H2A  418   3.056   1.555  10.565 -0.7662 -1.5260  0.5447
    6CHL1   H2B  419   3.207   1.495  10.513  0.3685  1.3960 -0.9588
    6CHL1   C20  420   3.031   1.406   9.580  0.1707  0.5159 -0.4891
    6CHL1   H20  421   3.140   1.409   9.559  0.5683 -1.1389  1.1450
    6CHL1   C21  422   2.964   1.542   9.601  0.0049 -0.2733 -0.0034
    6CHL1  H21A  423   2.977   1.601   9.508 -1.8395  1.6056  0.8472
    6CHL1  H21B  424   3.008   1.598   9.685  1.0681 -0.6078 -0.3218
    6CHL1  H21C  425   2.854   1.529   9.604 -0.1225  0.1242 -1.8142
    6CHL1   C22  426   2.966   1.338   9.451  0.4080  0.5304 -0.1480
    6CHL1  H22A  427   3.010   1.237   9.436 -0.0507  0.5060 -1.4504
    6CHL1  H22B  428   2.859   1.313   9.468  0.3221  0.0179 -1.2845
    6CHL1   C23  429   2.985   1.412   9.317 -0.3637  0.3002 -0.0836
    6CHL1  H23A  430   2.906   1.488   9.299 -1.1652 -0.7065 -0.9679
    6CHL1  H23B  431   3.083   1.466   9.319 -0.6745  0.8506  1.9276
    6CHL1   C24  432   2.973   1.319   9.192 -0.5419 -0.0035  0.3956
    6CHL1  H24A  433   3.060   1.250   9.199  0.3776  1.2051  1.2711
    6CHL1  H24B  434   2.884   1.256   9.214 -0.1904 -0.0673  1.7245
    6CHL1   C25  435   2.961   1.383   9.053 -0.1505 -1.1049  0.2060
    6CHL1   H25  436   2.961   1.304   8.975  1.4355 -0.1245 -0.8563
    6CHL1   C26  437   2.828   1.472   9.033  0.2290 -0.2555 -0.1277
    6CHL1  H26A  438   2.789   1.531   9.118  1.5038  0.1604  0.1977
    6CHL1  H26B  439   2.834   1.544   8.948 -0.2569 -0.1042 -0.0365
    6CHL1  H26C  440   2.754   1.394   9.008  2.5785 -2.3531 -1.0244
    6CHL1   C27  441   3.086   1.465   9.019 -0.0203 -0.3648  0.0092
    6CHL1  H27A  442   3.179   1.421   9.061  0.2946  0.4667  0.1863
    6CHL1  H27B  443   3.104   1.470   8.910  0.3158  0.0710  0.0820
    6CHL1  H27C  444   3.077   1.570   9.053 -1.8771 -0.2817 -0.6087
    7CHL1    C3  445   6.222   4.055  10.476  0.7352  0.5189 -1.0144
    7CHL1    H3  446   6.269   3.954  10.478  0.0518  0.1546 -2.1085
    7CHL1    O3  447   6.177   4.078  10.610 -0.5909 -0.1713  0.4495
    7CHL1   H3'  448   6.133   4.163  10.605 -0.2088 -0.0063 -0.1062
    7CHL1    C4  449   6.318   4.170  10.435  0.5577  0.3514 -0.5530
    7CHL1   H4A  450   6.262   4.264  10.454  2.0240  0.8097  2.0481
    7CHL1   H4B  451   6.395   4.166  10.515  1.5892 -1.2189 -1.5829
    7CHL1    C5  452   6.363   4.174  10.295  0.3116  0.7875  0.1880
    7CHL1    C6  453   6.490   4.193  10.262  0.1919  0.2938  0.2642
    7CHL1    H6  454   6.567   4.199  10.340 -0.7229 -2.3843  1.5137
    7CHL1    C7  455   6.548   4.218  10.125  0.4265  0.4614  0.2939
    7CHL1   H7A  456   6.622   4.301  10.119 -0.2321  0.9435 -2.1864
    7CHL1   H7B  457   6.599   4.125  10.093 -0.5282 -0.0057  0.0984
    7CHL1    C8  458   6.434   4.228  10.023 -0.5181 -0.9279  0.6524
    7CHL1    H8  459   6.387   4.328  10.038 -0.9409 -0.8450 -1.0112
    7CHL1   C14  460   6.480   4.221   9.880 -1.4414  0.7194 -0.7595
    7CHL1   H14  461   6.533   4.125   9.860 -2.7165 -0.2587  0.4245
    7CHL1   C15  462   6.577   4.332   9.840 -0.2269 -0.2916 -0.0159
    7CHL1  H15A  463   6.536   4.430   9.871  2.0641  0.6132  0.3430
    7CHL1  H15B  464   6.681   4.328   9.879  0.9639 -0.5710 -2.9625
    7CHL1   C16  465   6.584   4.316   9.686 -0.3743  0.1089  0.2687
    7CHL1  H16A  466   6.581   4.420   9.648  0.6379  0.2886  0.6402
    7CHL1  H16B  467   6.680   4.269   9.656 -1.4595 -1.9000 -0.2116
    7CHL1   C17  468   6.452   4.225   9.646  0.0085 -0.4055  0.1363
    7CHL1   H17  469   6.485   4.121   9.628 -2.4890 -1.0879 -0.8258
    7CHL1   C13  470   6.364   4.222   9.778 -0.0097  0.2976  0.1596
    7CHL1   C18  471   6.278   4.346   9.787 -0.0483 -0.1017  0.7427
    7CHL1  H18A  472   6.223   4.354   9.883  1.2526 -1.8913  1.6953
    7CHL1  H18B  473   6.340   4.435   9.762 -1.0436  0.5430  0.5012
    7CHL1  H18C  474   6.193   4.337   9.716 -0.0019  2.6353  0.2278
    7CHL1   C12  475   6.279   4.091   9.811  0.9611  0.2666 -0.3039
    7CHL1  H12A  476   6.201   4.072   9.734  0.5561  2.2361 -0.4235
    7CHL1  H12B  477   6.350   4.005   9.802  0.5661  0.0381 -1.4513
    7CHL1   C11  478   6.210   4.090   9.947 -0.1230  0.8293  0.2920
    7CHL1  H11A  479   6.126   4.162   9.948 -0.9049 -0.0024 -1.6665
    7CHL1  H11B  480   6.166   3.989   9.964 -0.5664  1.0535  0.4870
    7CHL1    C9  481   6.322   4.125  10.052  1.1618 -0.1228  0.6117
    7CHL1    H9  482   6.375   4.029  10.071  0.5806 -0.5806  0.0055
    7CHL1   C10  483   6.258   4.166  10.191  0.4168  0.5609 -0.2280
    7CHL1   C19  484   6.174   4.293  10.182  0.2364  0.0012  0.1237
    7CHL1  H19A  485   6.228   4.386  10.153  1.4107 -0.7613 -0.1978
    7CHL1  H19B  486   6.087   4.289  10.113 -1.7979 -0.1172  2.5862
    7CHL1  H19C  487   6.126   4.324  10.277 -1.2828 -0.2259 -0.5390
    7CHL1    C1  488   6.161   4.045  10.240 -0.1290  0.3383  0.2574
    7CHL1   H1A  489   6.073   4.056  10.174  0.7430  1.8854 -0.7091
    7CHL1   H1B  490   6.217   3.952  10.215 -1.1075 -0.2448  0.1816
    7CHL1    C2  491   6.102   4.043  10.381  0.3612  0.6484 -0.2104
    7CHL1   H2A  492   6.048   3.954  10.420 -0.0462  0.0790 -1.9869
    7CHL1   H2B  493   6.037   4.134  10.384  0.9469  1.1032  2.7979
    7CHL1   C20  494   6.384   4.280   9.523 -0.1415  0.3581 -0.2170
    7CHL1   H20  495   6.352   4.384   9.545  2.2452  1.1783 -0.2988
    7CHL1   C21  496   6.269   4.184   9.492 -0.1025  0.0968 -0.5153
    7CHL1  H21A  497   6.191   4.184   9.571 -1.3780 -2.6295 -1.6669
    7CHL1  H21B  498   6.305   4.080   9.483 -0.5896 -0.2039  0.8228
    7CHL1  H21C  499   6.216   4.219   9.401  0.1201 -0.3754 -0.8313
    7CHL1   C22  500   6.482   4.304   9.401 -0.1944 -0.7979  0.0139
    7CHL1  H22A  501   6.540   4.397   9.422  0.1095 -1.4216  2.0976
    7CHL1  H22B  502   6.550   4.217   9.393  0.9756  0.2211 -2.0424
    7CHL1   C23  503   6.410   4.313   9.265 -0.2859 -0.0478  0.6807
    7CHL1  H23A  504   6.381   4.211   9.232  0.0476  0.0544  0.0592
    7CHL1  H23B  505   6.315   4.368   9.280 -1.4083 -1.4720 -0.9925
    7CHL1   C24  506   6.502   4.391   9.166  0.6204  0.2941 -0.0941
    7CHL1  H24A  507   6.518   4.491   9.211  0.3496  0.2474  0.1053
    7CHL1  H24B  508   6.594   4.328   9.172 -0.1493 -0.8973 -0.3447
    7CHL1   C25  509   6.460   4.403   9.019  0.2462  0.3337 -0.0269
    7CHL1   H25  510   6.437   4.299   8.987  0.0457 -0.3278  2.0779
    7CHL1   C26  511   6.344   4.489   9.002  0.0843  0.4384  0.2902
    7CHL1  H26A  512   6.360   4.597   9.022 -0.5959  1.1379 -2.4819
    7CHL1  H26B  513   6.301   4.481   8.899  1.2464 -0.9555 -0.1205
    7CHL1  H26C  514   6.261   4.450   9.065 -1.0270  1.5055 -0.4497
    7CHL1   C27  515   6.576   4.457   8.935 -0.1808 -0.4144  0.2607
    7CHL1  H27A  516   6.555   4.469   8.827 -0.7855 -1.9827  0.1746
    7CHL1  H27B  517   6.612   4.553   8.978  1.5412 -0.7022 -0.4710
    7CHL1  H27C  518   6.667   4.393   8.944  1.7746  2.3875  2.6869
    8CHL1    C3  519   6.552   5.227  10.416 -0.0993 -0.5515 -0.3810
    8CHL1    H3  520   6.634   5.301  10.422 -1.1678  0.5803  1.4015
    8CHL1    O3  521   6.506   5.184  10.547 -0.6411  0.2995 -0.3437
    8CHL1   H3'  522   6.578   5.123  10.565 -0.1417  0.2685 -2.2524
    8CHL1    C4  523   6.435   5.292  10.331 -0.4120  0.0522 -0.1941
    8CHL1   H4A  524   6.369   5.204  10.345 -0.0236  0.1097  2.5183
    8CHL1   H4B  525   6.398   5.390  10.368  0.5724  0.8650 -1.2867
    8CHL1    C5  526   6.471   5.306  10.180  0.0438 -0.4792 -0.5536
    8CHL1    C6  527   6.467   5.427  10.121  0.0551 -0.3924 -0.7366
    8CHL1    H6  528   6.428   5.513  10.177 -1.7303 -1.4885 -0.1917
    8CHL1    C7  529   6.505   5.455   9.978  0.2964 -0.5223 -0.7937
    8CHL1   H7A  530   6.415   5.498   9.929  0.2409  0.2869  0.0035
    8CHL1   H7B  531   6.595   5.520   9.973  2.5359 -3.3302  0.3165
    8CHL1    C8  532   6.525   5.323   9.900 -0.1096  0.2154  0.5917
    8CHL1    H8  533   6.423   5.284   9.878  0.1814  0.1280 -0.6932
    8CHL1   C14  534   6.594   5.352   9.767 -0.6965  0.3412  0.7742
    8CHL1   H14  535   6.690   5.399   9.797 -1.5539  2.9074 -0.2553
    8CHL1   C15  536   6.531   5.454   9.669 -0.1983  0.7664 -0.2185
    8CHL1  H15A  537   6.420   5.447   9.675 -0.0650 -1.0649  1.0554
    8CHL1  H15B  538   6.556   5.553   9.714 -0.0670 -0.4005  2.4684
    8CHL1   C16  539   6.594   5.427   9.532  0.1191  0.0455 -0.1099
    8CHL1  H16A  540   6.515   5.397   9.460 -1.4352 -0.8221  1.8541
    8CHL1  H16B  541   6.653   5.517   9.506 -2.7612  2.0704 -0.0896
    8CHL1   C17  542   6.679   5.288   9.546 -1.4063 -0.3209 -0.4573
    8CHL1   H17  543   6.781   5.318   9.578 -1.4500 -1.9560  1.3629
    8CHL1   C13  544   6.623   5.229   9.679  0.0610  0.1110  0.6613
    8CHL1   C18  545   6.493   5.158   9.639 -0.3800 -0.1345  0.2723
    8CHL1  H18A  546   6.514   5.058   9.596  0.5259  1.2221 -2.7611
    8CHL1  H18B  547   6.431   5.138   9.729  1.8759  1.2160  2.2449
    8CHL1  H18C  548   6.418   5.213   9.578 -2.2078 -0.3029  2.2519
    8CHL1   C12  549   6.716   5.132   9.757  0.1821 -0.2249  0.0854
    8CHL1  H12A  550   6.725   5.040   9.696 -0.6817 -1.2243  1.4042
    8CHL1  H12B  551   6.818   5.173   9.773 -0.5691  0.7640  3.0606
    8CHL1   C11  552   6.654   5.100   9.895  0.2567 -0.3061 -0.0502
    8CHL1  H11A  553   6.575   5.024   9.876 -1.9936  1.9947 -0.4179
    8CHL1  H11B  554   6.723   5.048   9.965 -1.6038 -3.3624 -0.2649
    8CHL1    C9  555   6.600   5.221   9.980 -1.2920 -0.1850 -0.2417
    8CHL1    H9  556   6.688   5.285  10.003  0.2694 -1.5768 -2.0573
    8CHL1   C10  557   6.526   5.179  10.115 -0.1369 -0.2081  0.5278
    8CHL1   C19  558   6.415   5.078  10.088  0.5862 -0.4598 -0.1663
    8CHL1  H19A  559   6.451   4.982  10.045 -0.9161 -1.0401 -0.2167
    8CHL1  H19B  560   6.349   5.050  10.174 -0.6028 -1.0298 -1.2213
    8CHL1  H19C  561   6.344   5.113  10.011  1.3147  1.4245 -0.0168
    8CHL1    C1  562   6.634   5.109  10.203  0.7401 -0.2516 -0.5201
    8CHL1   H1A  563   6.662   5.007  10.168  1.0827  0.1907 -1.5433
    8CHL1   H1B  564   6.721   5.177  10.205 -1.7149  3.1212  0.1818
    8CHL1    C2  565   6.597   5.100  10.354 -0.1306  0.6801  0.7312
    8CHL1   H2A  566   6.691   5.070  10.404 -0.9163  1.0270  2.4742
    8CHL1   H2B  567   6.528   5.014  10.362  0.3090  0.1624 -0.6964
    8CHL1   C20  568   6.706   5.209   9.420 -0.0697  0.6658  0.3817
    8CHL1   H20  569   6.619   5.144   9.396 -0.9630  1.9753  0.0053
    8CHL1   C21  570   6.831   5.123   9.438  0.6663 -0.0930  0.0899
    8CHL1  H21A  571   6.924   5.177   9.467  1.1218 -0.5583 -0.4619
    8CHL1  H21B  572   6.870   5.084   9.341  1.0769  0.3056  0.0905
    8CHL1  H21C  573   6.809   5.032   9.498  0.8713  0.8417  1.6143
    8CHL1   C22  574   6.734   5.298   9.293 -0.3157 -0.4994  0.0233
    8CHL1  H22A  575   6.635   5.349   9.284 -1.9258 -3.5822 -1.4868
    8CHL1  H22B  576   6.815   5.370   9.316 -0.3105 -1.0362  1.8229
    8CHL1   C23  577   6.751   5.228   9.157  0.1256  0.5322  0.2358
    8CHL1  H23A  578   6.850   5.178   9.152 -1.2973 -2.4342 -2.4833
    8CHL1  H23B  579   6.678   5.145   9.143 -0.1465  0.5409  1.4261
    8CHL1   C24  580   6.749   5.319   9.033 -0.3210 -0.1783 -0.7357
    8CHL1  H24A  581   6.649   5.362   9.009  0.5247  1.0134 -2.3844
    8CHL1  H24B  582   6.818   5.405   9.052 -0.6830  0.1505 -0.9102
    8CHL1   C25  583   6.788   5.246   8.907 -0.5145  0.5788 -0.3085
    8CHL1   H25  584   6.879   5.188   8.934 -2.0922 -1.4477  1.0603
    8CHL1   C26  585   6.686   5.135   8.869 -0.4982  0.2813  0.3595
    8CHL1  H26A  586   6.718   5.066   8.788  0.1192 -0.7848  1.4897
    8CHL1  H26B  587   6.665   5.061   8.948  0.9284 -0.8227 -0.2603
    8CHL1  H26C  588   6.593   5.188   8.839 -0.2523 -0.2034 -1.3843
    8CHL1   C27  589   6.799   5.350   8.794  0.2502  1.0601 -0.3517
    8CHL1  H27A  590   6.703   5.403   8.776 -0.1358  0.1715 -1.0152
    8CHL1  H27B  591   6.875   5.422   8.831  1.8551  0.0485 -1.5249
    8CHL1  H27C  592   6.826   5.298   8.699 -3.4870 -2.3686  0.1799
    9CHL1    C3  593   4.393   0.383  10.242  0.0945  0.9067  0.6615
    9CHL1    H3  594   4.363   0.300  10.174 -0.5153  2.0479 -0.5076
    9CHL1    O3  595   4.443   0.346  10.368  0.1012  0.1038  0.1878
    9CHL1   H3'  596   4.465   0.434  10.398 -2.3199  1.2594 -1.1323
    9CHL1    C4  597   4.503   0.462  10.160  0.6416 -0.6237 -0.9002
    9CHL1   H4A  598   4.530   0.547  10.226 -0.0202  0.6419 -2.2099
    9CHL1   H4B  599   4.591   0.394  10.165  1.0151 -0.0496  0.7806
    9CHL1    C5  600   4.469   0.512  10.021  0.2965 -0.5661  0.9590
    9CHL1    C6  601   4.553   0.487   9.919  0.0277 -0.5422 -0.0631
    9CHL1    H6  602   4.646   0.431   9.937 -0.2325 -1.1392 -0.5275
    9CHL1    C7  603   4.512   0.510   9.777 -0.2785  0.5767 -0.2328
    9CHL1   H7A  604   4.597   0.551   9.718  1.8826 -0.4784  1.9697
    9CHL1   H7B  605   4.468   0.417   9.734 -2.0478  1.2050  0.1341
    9CHL1    C8  606   4.396   0.623   9.772  0.4757  0.5941  0.6426
    9CHL1    H8  607   4.447   0.716   9.803 -1.2712  0.9460  2.7097
    9CHL1   C14  608   4.350   0.625   9.626 -0.4992  0.0236  0.5150
    9CHL1   H14  609   4.313   0.523   9.603 -1.8947  0.5804  0.1904
    9CHL1   C15  610   4.449   0.674   9.517  0.0895  0.1774  0.3618
    9CHL1  H15A  611   4.514   0.759   9.550 -1.7977  2.6376 -1.8123
    9CHL1  H15B  612   4.523   0.599   9.481  0.1787  1.3033 -1.9999
    9CHL1   C16  613   4.359   0.715   9.399  0.7753 -0.3749 -0.1849
    9CHL1  H16A  614   4.400   0.815   9.375  1.1192 -0.7341 -1.1383
    9CHL1  H16B  615   4.364   0.634   9.323  0.3229 -0.1153 -0.4961
    9CHL1   C17  616   4.208   0.714   9.457 -0.0413 -0.1890 -0.0607
    9CHL1   H17  617   4.172   0.610   9.443 -3.2061  0.8621 -0.3962
    9CHL1   C13  618   4.230   0.726   9.610  0.4566  0.1652 -0.7131
    9CHL1   C18  619   4.274   0.872   9.646 -0.1844  0.1314 -0.3450
    9CHL1  H18A  620   4.182   0.934   9.635  0.0434  0.3596 -1.0127
    9CHL1  H18B  621   4.305   0.882   9.752  0.7042 -0.8325 -0.4961
    9CHL1  H18C  622   4.355   0.914   9.582  1.2886 -1.5094  0.3821
    9CHL1   C12  623   4.115   0.677   9.705  0.2863 -0.7524 -0.5751
    9CHL1  H12A  624   4.026   0.745   9.703 -0.0279 -0.9537  2.4107
    9CHL1  H12B  625   4.089   0.577   9.664 -2.1206 -1.2989  1.9500
    9CHL1   C11  626   4.151   0.676   9.850  1.0451  0.7013 -0.7191
    9CHL1  H11A  627   4.157   0.778   9.895 -0.6066 -0.0724  1.4421
    9CHL1  H11B  628   4.070   0.621   9.903  0.2938  2.3296 -0.0804
    9CHL1    C9  629   4.283   0.592   9.872  0.3020 -0.0815  0.2365
    9CHL1    H9  630   4.257   0.487   9.846  0.6545 -0.5254  1.6112
    9CHL1   C10  631   4.326   0.582  10.016 -0.4161 -0.2994 -0.1962
    9CHL1   C19  632   4.339   0.720  10.081  0.2607 -0.2211  0.8004
    9CHL1  H19A  633   4.401   0.786  10.018  0.6975 -1.3761  0.0011
    9CHL1  H19B  634   4.239   0.769  10.091 -0.0782 -0.2603 -1.7596
    9CHL1  H19C  635   4.396   0.708  10.175 -0.0343 -2.7033  0.7332
    9CHL1    C1  636   4.225   0.505  10.104 -0.2800  0.1858  0.8188
    9CHL1   H1A  637   4.127   0.558  10.114 -0.0248  0.7920  0.2020
    9CHL1   H1B  638   4.198   0.412  10.050  2.4475 -0.7835  0.9783
    9CHL1    C2  639   4.273   0.471  10.253 -0.4173 -0.1111  0.3593
    9CHL1   H2A  640   4.197   0.406  10.302 -0.4093  0.6639  1.4440
    9CHL1   H2B  641   4.309   0.560  10.309  1.8363 -0.9563  0.3465
    9CHL1   C20  642   4.109   0.803   9.383 -0.2888 -0.0679  0.1069
    9CHL1   H20  643   4.157   0.902   9.373  3.7979 -1.4817  2.9386
    9CHL1   C21  644   3.975   0.825   9.460  0.7323  0.3089 -0.5565
    9CHL1  H21A  645   4.000   0.875   9.556  1.0997 -1.4511  0.3039
    9CHL1  H21B  646   3.927   0.728   9.483 -0.5284  0.0856 -3.7234
    9CHL1  H21C  647   3.907   0.883   9.394  0.2814 -1.7046 -1.9147
    9CHL1   C22  648   4.069   0.736   9.246 -0.2763 -0.1966  0.1660
    9CHL1  H22A  649   4.160   0.703   9.191  0.7170  0.6386  1.2501
    9CHL1  H22B  650   4.014   0.642   9.266  0.0024 -0.5196 -0.5445
    9CHL1   C23  651   3.982   0.823   9.154 -0.2923 -0.0938  1.2541
    9CHL1  H23A  652   3.882   0.839   9.199 -0.5415 -1.3766  1.1881
    9CHL1  H23B  653   4.032   0.922   9.150  1.6516 -1.0330 -1.8115
    9CHL1   C24  654   3.991   0.773   9.008  0.0684  0.3214 -0.1352
    9CHL1  H24A  655   4.097   0.764   8.977  0.5223 -1.5252  1.7320
    9CHL1  H24B  656   3.940   0.675   8.999 -2.1423  1.5590 -2.2680
    9CHL1   C25  657   3.925   0.870   8.909 -0.1939 -0.1651 -0.1225
    9CHL1   H25  658   3.966   0.972   8.921  2.0453 -1.0361  0.1558
    9CHL1   C26  659   3.968   0.814   8.763 -0.0320 -0.1410  0.6181
    9CHL1  H26A  660   3.932   0.711   8.743 -2.3680  1.1117 -2.3332
    9CHL1  H26B  661   3.923   0.888   8.693 -0.3277 -0.8429  0.0546
    9CHL1  H26C  662   4.077   0.818   8.745 -0.3028  1.1851 -0.9911
    9CHL1   C27  663   3.773   0.889   8.942  0.3684 -0.0869  0.4092
    9CHL1  H27A  664   3.729   0.972   8.883 -0.1541  1.3989  2.7527
    9CHL1  H27B  665   3.731   0.790   8.914  0.4241 -0.5867  2.0009
    9CHL1  H27C  666   3.754   0.908   9.050  2.8417  3.1381  0.4352
   10CHL1    C3  667   4.256   5.972  10.074  0.8283  0.0966  0.4204
   10CHL1    H3  668   4.165   5.919  10.038  0.5291  1.1280 -0.3890
   10CHL1    O3  669   4.282   5.933  10.207  0.8742 -0.1299  0.3186
   10CHL1   H3'  670   4.221   5.983  10.262  1.0361  0.9359 -0.4308
   10CHL1    C4  671   4.362   5.918   9.981  0.0576 -0.3734  0.2349
   10CHL1   H4A  672   4.459   5.948  10.025  1.2750 -0.9727 -1.8969
   10CHL1   H4B  673   4.352   5.808   9.996 -1.9064 -0.2508  0.1394
   10CHL1    C5  674   4.341   5.969   9.840  0.7862  0.0336 -0.1018
   10CHL1    C6  675   4.311   5.885   9.740 -0.0475  0.3705 -0.0759
   10CHL1    H6  676   4.316   5.777   9.758  1.2876  0.3097 -0.6841
   10CHL1    C7  677   4.289   5.932   9.604  0.0692 -0.2862  0.9152
   10CHL1   H7A  678   4.342   5.868   9.531  0.7737  1.2476  0.0132
   10CHL1   H7B  679   4.179   5.925   9.586  0.3287 -2.3868 -0.2099
   10CHL1    C8  680   4.341   6.068   9.573  0.2088 -0.8475 -0.1780
   10CHL1    H8  681   4.450   6.073   9.548 -0.0310  0.4902 -1.1143
   10CHL1   C14  682   4.273   6.118   9.447 -0.0819  0.6512 -0.5882
   10CHL1   H14  683   4.164   6.123   9.466  0.1582  1.3195  0.7194
   10CHL1   C15  684   4.284   6.031   9.321  0.1186  0.0424 -0.3644
   10CHL1  H15A  685   4.386   5.992   9.304 -1.0240 -2.1383 -3.0870
   10CHL1  H15B  686   4.217   5.943   9.308  0.1498  0.0868 -0.8342
   10CHL1   C16  687   4.244   6.125   9.207 -0.4178 -0.2561  0.1296
   10CHL1  H16A  688   4.301   6.101   9.115 -0.0510  1.4571 -0.1106
   10CHL1  H16B  689   4.139   6.094   9.188  0.6030 -4.0544 -0.2810
   10CHL1   C17  690   4.250   6.269   9.264 -0.5660 -0.3164 -0.0349
   10CHL1   H17  691   4.144   6.276   9.298 -0.8224 -1.1805 -0.6284
   10CHL1   C13  692   4.315   6.259   9.409 -1.0313  0.0410  0.1016
   10CHL1   C18  693   4.465   6.268   9.375 -0.6927  0.0115  0.3728
   10CHL1  H18A  694   4.526   6.244   9.465 -1.9167 -2.6517  0.5564
   10CHL1  H18B  695   4.487   6.204   9.288 -2.5605  0.6443 -0.6028
   10CHL1  H18C  696   4.487   6.368   9.332 -1.9763 -0.7413 -2.2297
   10CHL1   C12  697   4.269   6.360   9.515  0.2038  0.7078 -0.4400
   10CHL1  H12A  698   4.311   6.463   9.512  1.4944  0.2259  0.4385
   10CHL1  H12B  699   4.159   6.360   9.531  0.0909 -1.4711 -0.9537
   10CHL1   C11  700   4.324   6.311   9.657 -0.5793  0.1125  0.8562
   10CHL1  H11A  701   4.434   6.327   9.652 -0.4368 -1.0340 -0.6394
   10CHL1  H11B  702   4.275   6.373   9.734 -0.8870 -0.1017  0.8348
   10CHL1    C9  703   4.297   6.164   9.684 -0.1142  0.0180  0.4413
   10CHL1    H9  704   4.186   6.158   9.685 -0.2027  0.8567 -1.0660
   10CHL1   C10  705   4.342   6.126   9.824  0.1848  0.3323 -0.8287
   10CHL1   C19  706   4.484   6.184   9.861  0.1113 -0.4484  0.1393
   10CHL1  H19A  707   4.552   6.151   9.780 -0.3538  0.0302 -0.4555
   10CHL1  H19B  708   4.479   6.295   9.863  0.6196 -0.4283  0.2808
   10CHL1  H19C  709   4.521   6.151   9.961  1.5529  2.3732  0.6198
   10CHL1    C1  710   4.234   6.183   9.924  0.4447  0.3954 -0.8713
   10CHL1   H1A  711   4.229   6.294   9.924  0.9701  0.4859  1.8326
   10CHL1   H1B  712   4.134   6.148   9.890  0.5745 -2.8634  1.5907
   10CHL1    C2  713   4.242   6.125  10.071 -0.5672 -0.6197 -0.3420
   10CHL1   H2A  714   4.158   6.158  10.135  0.3326 -0.8030  0.9696
   10CHL1   H2B  715   4.329   6.177  10.116 -1.7916  1.4457 -0.2478
   10CHL1   C20  716   4.281   6.369   9.156  0.1747  0.5555 -0.2828
   10CHL1   H20  717   4.390   6.361   9.139  0.5803  3.6110  0.3873
   10CHL1   C21  718   4.257   6.510   9.204  0.3079  0.9092 -0.3325
   10CHL1  H21A  719   4.154   6.526   9.243  1.2509  1.5431  2.0808
   10CHL1  H21B  720   4.276   6.567   9.110 -1.0018  0.7771 -0.7101
   10CHL1  H21C  721   4.316   6.553   9.287 -1.9077  2.0223  0.7682
   10CHL1   C22  722   4.199   6.349   9.021 -0.4339  0.2697 -0.4678
   10CHL1  H22A  723   4.206   6.437   8.954  0.3903  0.5527 -0.0130
   10CHL1  H22B  724   4.239   6.262   8.965  1.8120  0.2774  1.0349
   10CHL1   C23  725   4.041   6.337   9.033  0.8442 -0.9296  0.3970
   10CHL1  H23A  726   4.016   6.230   9.053  0.3058 -1.2184 -1.6077
   10CHL1  H23B  727   4.003   6.403   9.114 -0.0857  1.3107 -1.7429
   10CHL1   C24  728   3.976   6.397   8.908  0.0701 -0.2062 -0.5474
   10CHL1  H24A  729   3.950   6.505   8.909 -3.8664 -1.0217  0.0244
   10CHL1  H24B  730   4.046   6.397   8.822  0.7484 -0.7857 -0.0124
   10CHL1   C25  731   3.866   6.311   8.836  0.1637 -0.8302  0.4536
   10CHL1   H25  732   3.906   6.214   8.799  0.1233 -0.4249 -0.6812
   10CHL1   C26  733   3.749   6.278   8.931  0.1986  0.1049  0.9477
   10CHL1  H26A  734   3.790   6.226   9.020  1.9804 -1.9085 -0.9124
   10CHL1  H26B  735   3.697   6.374   8.952  0.4609  0.6215 -0.6407
   10CHL1  H26C  736   3.675   6.209   8.883  0.2714  0.3267  0.5158
   10CHL1   C27  737   3.811   6.389   8.708  0.1858  0.0229  0.7934
   10CHL1  H27A  738   3.734   6.324   8.663  0.2023  2.5590 -3.4941
   10CHL1  H27B  739   3.771   6.488   8.739 -0.5637 -0.5881  1.8259
   10CHL1  H27C  740   3.889   6.417   8.634 -0.1827  0.3398  0.5211
   11CHL1    C3  741   5.321   1.842  10.121  0.1765  0.4829 -0.0217
   11CHL1    H3  742   5.320   1.944  10.076 -1.0373  1.0303  1.1738
   11CHL1    O3  743   5.320   1.854  10.262 -0.0237  0.4440 -0.6669
   11CHL1   H3'  744   5.349   1.768  10.293 -1.1877  0.7008  1.2448
   11CHL1    C4  745   5.183   1.788  10.086 -0.8469  0.1129 -0.7781
   11CHL1   H4A  746   5.148   1.693  10.133  0.6887 -0.9662 -1.6996
   11CHL1   H4B  747   5.110   1.866  10.116  1.0301  1.8048 -0.4285
   11CHL1    C5  748   5.165   1.774   9.940 -0.5463 -0.1864 -0.3564
   11CHL1    C6  749   5.056   1.830   9.881  0.4697 -0.4317  0.8678
   11CHL1    H6  750   4.971   1.857   9.946  0.6155  0.4306  0.7157
   11CHL1    C7  751   5.026   1.815   9.733 -0.2215 -0.1278  0.4459
   11CHL1   H7A  752   4.925   1.773   9.713  0.6674 -1.6512 -1.0583
   11CHL1   H7B  753   5.042   1.913   9.683  1.4360 -0.4137  0.3611
   11CHL1    C8  754   5.123   1.714   9.663  0.3666 -0.3074 -0.6784
   11CHL1    H8  755   5.090   1.613   9.694 -2.1914  0.6744  0.1246
   11CHL1   C14  756   5.124   1.746   9.519  0.2637 -0.1057 -0.6482
   11CHL1   H14  757   5.175   1.843   9.502 -0.5594  1.0954  2.8696
   11CHL1   C15  758   4.986   1.765   9.449 -0.4552  0.3948 -0.2014
   11CHL1  H15A  759   4.914   1.685   9.477 -0.9725 -0.8675 -4.5244
   11CHL1  H15B  760   4.929   1.858   9.471  0.2758  0.7869  0.0740
   11CHL1   C16  761   5.021   1.741   9.302 -0.3057 -0.2784 -0.2948
   11CHL1  H16A  762   4.957   1.661   9.260 -0.7065  0.2893 -0.7830
   11CHL1  H16B  763   5.001   1.832   9.241  2.1634  0.4777 -0.0799
   11CHL1   C17  764   5.168   1.689   9.285  0.6418 -0.2638  0.3030
   11CHL1   H17  765   5.235   1.777   9.272 -0.1736  0.2587 -0.5517
   11CHL1   C13  766   5.203   1.640   9.435 -0.4368 -0.2998  0.4822
   11CHL1   C18  767   5.137   1.503   9.453 -0.4142 -0.4912  0.6267
   11CHL1  H18A  768   5.189   1.429   9.388  0.9221  0.5053  0.5074
   11CHL1  H18B  769   5.155   1.460   9.554  0.4114 -1.1466  0.2247
   11CHL1  H18C  770   5.028   1.496   9.433 -0.1457 -1.4579 -0.7008
   11CHL1   C12  771   5.351   1.646   9.480  0.0823  0.2436 -0.6817
   11CHL1  H12A  772   5.412   1.564   9.437 -1.2058 -0.4748 -1.1729
   11CHL1  H12B  773   5.390   1.746   9.453 -0.6394  0.4028 -1.1676
   11CHL1   C11  774   5.367   1.642   9.634 -0.0016  0.3070 -0.3983
   11CHL1  H11A  775   5.350   1.541   9.677 -2.2529  0.5090 -0.6963
   11CHL1  H11B  776   5.473   1.665   9.658 -0.2450 -1.0052  2.4854
   11CHL1    C9  777   5.265   1.727   9.716 -0.3484  0.0529 -0.0967
   11CHL1    H9  778   5.284   1.835   9.699 -3.1506  0.3580 -2.0180
   11CHL1   C10  779   5.284   1.705   9.871  0.2643  0.0789  0.3251
   11CHL1   C19  780   5.261   1.557   9.914 -0.1791 -0.1810 -0.4441
   11CHL1  H19A  781   5.253   1.540  10.024  0.9970 -1.0147 -0.4639
   11CHL1  H19B  782   5.171   1.506   9.874  1.5143 -2.2098 -1.9316
   11CHL1  H19C  783   5.352   1.495   9.895  2.5163  2.9789  1.0892
   11CHL1    C1  784   5.424   1.752   9.920 -0.5875  0.3606  0.7535
   11CHL1   H1A  785   5.506   1.691   9.878 -0.1084  1.3433  0.2418
   11CHL1   H1B  786   5.439   1.851   9.872 -1.2980 -0.9247 -2.3497
   11CHL1    C2  787   5.430   1.752  10.072  0.3750  0.2068  0.1938
   11CHL1   H2A  788   5.528   1.788  10.109  0.5651 -2.4240  2.6200
   11CHL1   H2B  789   5.428   1.649  10.112 -0.3807 -0.3606 -1.2288
   11CHL1   C20  790   5.196   1.595   9.164 -0.3506 -0.3068  0.0035
   11CHL1   H20  791   5.124   1.511   9.157 -0.5402 -0.0685 -1.0079
   11CHL1   C21  792   5.338   1.542   9.176  0.2498  0.1916 -0.2765
   11CHL1  H21A  793   5.358   1.481   9.085 -0.3617 -2.5694  1.3446
   11CHL1  H21B  794   5.359   1.470   9.258  1.1821  0.5186 -0.2167
   11CHL1  H21C  795   5.410   1.627   9.172 -1.2862  1.6595  1.3843
   11CHL1   C22  796   5.174   1.669   9.027  0.4952 -0.3164 -0.4691
   11CHL1  H22A  797   5.071   1.712   9.031  0.5878 -0.1995  0.8390
   11CHL1  H22B  798   5.242   1.757   9.034 -0.6743  0.6339 -0.6637
   11CHL1   C23  799   5.205   1.592   8.903 -0.2772  0.2305  1.0800
   11CHL1  H23A  800   5.305   1.546   8.890 -1.4525 -1.8926 -1.3896
   11CHL1  H23B  801   5.134   1.508   8.895 -0.0126  0.1645 -2.2998
   11CHL1   C24  802   5.189   1.686   8.773 -0.1779  0.0024  0.0079
   11CHL1  H24A  803   5.257   1.773   8.770  2.6262 -2.0710 -0.7458
   11CHL1  H24B  804   5.210   1.640   8.674  2.2691  1.0619 -0.0261
   11CHL1   C25  805   5.040   1.721   8.738 -0.0385 -0.1867  0.1054
   11CHL1   H25  806   5.007   1.774   8.830  1.8520  0.3252  0.5386
   11CHL1   C26  807   5.022   1.823   8.620  0.3387  0.0780  0.1633
   11CHL1  H26A  808   4.912   1.837   8.614 -0.1270 -1.9140  2.6375
   11CHL1  H26B  809   5.066   1.924   8.639  0.2382 -0.0069  0.8532
   11CHL1  H26C  810   5.050   1.779   8.522 -1.1319 -2.3382  0.7519
   11CHL1   C27  811   4.956   1.597   8.708 -0.4403  0.5806 -1.1545
   11CHL1  H27A  812   4.977   1.514   8.779  0.1136  1.8654  0.2597
   11CHL1  H27B  813   4.852   1.633   8.696 -1.2897 -0.9049  1.0095
   11CHL1  H27C  814   4.988   1.567   8.606  0.2210 -1.7271 -0.3389
   12CHL1    C3  815   0.713   5.288  10.528  0.9860 -0.4314  0.8022
   12CHL1    H3  816   0.606   5.260  10.523  0.2964  2.0663  0.2827
   12CHL1    O3  817   0.740   5.328  10.655  0.2657 -0.0096 -0.3225
   12CHL1   H3'  818   0.705   5.255  10.707 -0.9159 -1.7985 -3.4049
   12CHL1    C4  819   0.799   5.169  10.488 -0.3851  0.1907  0.3995
   12CHL1   H4A  820   0.902   5.200  10.516  0.1774 -0.9271 -0.3485
   12CHL1   H4B  821   0.785   5.083  10.557 -0.4264 -0.3395 -0.2595
   12CHL1    C5  822   0.788   5.134  10.343 -0.4885 -0.0666 -0.0239
   12CHL1    C6  823   0.760   5.011  10.306  0.7129  0.3562 -0.2245
   12CHL1    H6  824   0.736   4.932  10.379 -0.0169  0.9714  0.2149
   12CHL1    C7  825   0.756   4.975  10.166  0.3388  0.9055 -0.2649
   12CHL1   H7A  826   0.815   4.881  10.160 -1.7326 -0.4953  0.2308
   12CHL1   H7B  827   0.650   4.960  10.134  0.8853 -0.2088 -1.6964
   12CHL1    C8  828   0.823   5.081  10.066  0.1475  0.2200  0.2026
   12CHL1    H8  829   0.934   5.080  10.070  0.3424 -1.6762 -2.5140
   12CHL1   C14  830   0.786   5.051   9.919  0.2064  0.0755  0.2948
   12CHL1   H14  831   0.677   5.073   9.911  0.4381  1.7477  1.1086
   12CHL1   C15  832   0.811   4.911   9.866  0.0488  0.1771  0.2458
   12CHL1  H15A  833   0.912   4.885   9.905 -0.2635 -1.8386 -0.1860
   12CHL1  H15B  834   0.740   4.835   9.906  1.9097 -1.2557  1.0254
   12CHL1   C16  835   0.811   4.921   9.713 -1.0298 -0.1810 -0.6834
   12CHL1  H16A  836   0.908   4.884   9.675 -1.5144 -0.0972 -2.0594
   12CHL1  H16B  837   0.724   4.868   9.668 -1.5527  0.9331 -1.0252
   12CHL1   C17  838   0.799   5.078   9.681  0.2265 -0.1391 -0.1176
   12CHL1   H17  839   0.689   5.094   9.675  0.2753 -0.0911 -1.0239
   12CHL1   C13  840   0.849   5.140   9.816  0.6486 -0.4307 -0.0136
   12CHL1   C18  841   1.008   5.136   9.796  0.2571  0.0482 -0.5479
   12CHL1  H18A  842   1.055   5.153   9.895 -0.0366  0.2921 -0.4498
   12CHL1  H18B  843   1.035   5.032   9.770 -0.2566 -0.6580  1.5263
   12CHL1  H18C  844   1.039   5.213   9.722 -0.8070  1.9540  0.8739
   12CHL1   C12  845   0.804   5.285   9.850 -0.6259  0.3270  0.1299
   12CHL1  H12A  846   0.850   5.358   9.780 -0.5405 -1.2069 -1.5114
   12CHL1  H12B  847   0.694   5.278   9.833 -1.0221 -1.3014  2.7306
   12CHL1   C11  848   0.823   5.321   9.996 -0.6089  0.6116 -0.7810
   12CHL1  H11A  849   0.933   5.324  10.011 -1.0415  0.3600  3.5893
   12CHL1  H11B  850   0.793   5.426  10.017  1.0663  0.9417  0.1738
   12CHL1    C9  851   0.774   5.217  10.100 -0.4841 -0.1768  0.1688
   12CHL1    H9  852   0.664   5.215  10.093 -0.5407 -0.7086  0.9857
   12CHL1   C10  853   0.814   5.256  10.245 -0.1463  0.0628  1.0456
   12CHL1   C19  854   0.968   5.286  10.254  0.0548  0.0886 -0.1731
   12CHL1  H19A  855   1.030   5.207  10.207  0.9915 -0.7015  2.2217
   12CHL1  H19B  856   0.992   5.388  10.218 -0.3085  0.3193  0.2308
   12CHL1  H19C  857   0.996   5.295  10.361 -0.1505  0.1119 -0.1206
   12CHL1    C1  858   0.728   5.373  10.289  1.0354 -0.7830 -0.0061
   12CHL1   H1A  859   0.762   5.462  10.233 -1.4337 -0.9091 -1.8980
   12CHL1   H1B  860   0.620   5.373  10.261  0.8831  1.7074  0.3629
   12CHL1    C2  861   0.742   5.409  10.438  0.2178 -0.2565 -0.3386
   12CHL1   H2A  862   0.679   5.499  10.455 -0.3391 -0.8196  0.7202
   12CHL1   H2B  863   0.849   5.434  10.454  0.6215 -1.9845 -0.1900
   12CHL1   C20  864   0.861   5.118   9.545 -0.2419  0.8509 -0.1080
   12CHL1   H20  865   0.972   5.120   9.547 -0.0683 -1.5650 -1.7760
   12CHL1   C21  866   0.824   5.263   9.511  0.1340  0.7778 -0.3169
   12CHL1  H21A  867   0.883   5.334   9.572  0.1453  0.7002 -0.2360
   12CHL1  H21B  868   0.714   5.279   9.520  0.0747 -0.3204  1.2718
   12CHL1  H21C  869   0.830   5.286   9.403 -4.2650  1.3866 -0.6035
   12CHL1   C22  870   0.810   5.025   9.426 -0.8881 -0.4236  0.6719
   12CHL1  H22A  871   0.841   4.922   9.454  0.7405  0.3502  1.8737
   12CHL1  H22B  872   0.700   5.034   9.417 -0.6448  3.4434 -0.0377
   12CHL1   C23  873   0.873   5.044   9.285 -0.6334 -0.9691 -0.1739
   12CHL1  H23A  874   0.839   5.141   9.242  0.9217 -0.7685 -1.0203
   12CHL1  H23B  875   0.982   5.046   9.301 -0.3913 -1.0022 -1.6659
   12CHL1   C24  876   0.842   4.938   9.169 -0.3589  0.2636  0.2637
   12CHL1  H24A  877   0.889   4.848   9.213  2.8101  2.2348  1.2619
   12CHL1  H24B  878   0.733   4.917   9.164 -0.7138  2.2751 -2.4123
   12CHL1   C25  879   0.905   4.965   9.026  0.7173 -0.2783 -0.7662
   12CHL1   H25  880   0.846   5.049   8.984  0.8505  0.4202  0.3981
   12CHL1   C26  881   1.056   5.009   9.040  0.3954  0.1324  0.8064
   12CHL1  H26A  882   1.054   5.109   9.089 -0.9535  1.1568 -1.2107
   12CHL1  H26B  883   1.119   4.938   9.100 -0.4541 -0.0973  1.4458
   12CHL1  H26C  884   1.098   5.009   8.937 -1.4599  0.8946  0.0140
   12CHL1   C27  885   0.900   4.834   8.949  0.0722  0.0681 -0.5319
   12CHL1  H27A  886   0.793   4.805   8.949 -0.1545  0.8708 -1.1425
   12CHL1  H27B  887   0.941   4.844   8.847 -0.7324  0.1930 -0.8504
   12CHL1  H27C  888   0.956   4.752   8.998 -2.3550 -0.7227  1.0753
   13CHL1    C3  889   1.770   0.570  10.056  0.6904 -0.1324  0.3917
   13CHL1    H3  890   1.823   0.662  10.024 -1.6301  0.5742 -1.6950
   13CHL1    O3  891   1.754   0.557  10.195  0.5060  0.5504 -0.3841
   13CHL1   H3'  892   1.710   0.473  10.207  0.5247  0.4964 -0.6726
   13CHL1    C4  893   1.627   0.569   9.997 -0.3918  0.6648 -0.1921
   13CHL1   H4A  894   1.582   0.469  10.018  0.6548  0.1873 -0.1487
   13CHL1   H4B  895   1.555   0.645  10.034 -2.1743 -0.8783 -0.3238
   13CHL1    C5  896   1.630   0.581   9.846  0.2275 -0.4102 -0.6629
   13CHL1    C6  897   1.576   0.695   9.794  0.0990  1.3662  0.5923
   13CHL1    H6  898   1.529   0.766   9.863 -1.8385  0.0993  0.6596
   13CHL1    C7  899   1.572   0.720   9.649  0.3675 -0.1377  0.7800
   13CHL1   H7A  900   1.478   0.754   9.601 -0.4810 -0.6132  2.0503
   13CHL1   H7B  901   1.637   0.808   9.627 -0.0866 -0.2854 -1.3461
   13CHL1    C8  902   1.628   0.601   9.566  0.2139  0.6539  0.2377
   13CHL1    H8  903   1.538   0.536   9.557  0.2452  0.5585  0.6033
   13CHL1   C14  904   1.677   0.650   9.429 -0.3120  0.4460 -0.9643
   13CHL1   H14  905   1.769   0.709   9.451  1.8578 -3.2694  1.0335
   13CHL1   C15  906   1.573   0.748   9.354  0.0894 -0.6147  0.4788
   13CHL1  H15A  907   1.466   0.719   9.361  0.5870 -3.0571 -0.8413
   13CHL1  H15B  908   1.582   0.850   9.397  1.5900  0.2353 -1.6591
   13CHL1   C16  909   1.628   0.744   9.207 -0.0634  0.0353 -0.0580
   13CHL1  H16A  910   1.549   0.709   9.138 -1.3015 -2.2670  2.3402
   13CHL1  H16B  911   1.662   0.848   9.187 -0.7844 -0.1091 -2.3123
   13CHL1   C17  912   1.742   0.640   9.205 -1.0916  0.5955  0.4280
   13CHL1   H17  913   1.836   0.695   9.229 -0.6234  0.4461 -0.9308
   13CHL1   C13  914   1.723   0.543   9.325 -0.1020 -0.5409  0.1288
   13CHL1   C18  915   1.604   0.450   9.287  0.3105  0.2489  0.0842
   13CHL1  H18A  916   1.562   0.398   9.376 -2.8073 -0.7112 -1.7805
   13CHL1  H18B  917   1.522   0.516   9.251  1.1776  2.0121  1.1640
   13CHL1  H18C  918   1.626   0.360   9.227  1.2702 -0.2283  1.1139
   13CHL1   C12  919   1.839   0.466   9.387 -0.6089 -0.8994 -0.5869
   13CHL1  H12A  920   1.868   0.387   9.315 -0.0092  0.9821 -2.4928
   13CHL1  H12B  921   1.922   0.540   9.383 -0.1018 -1.4590 -0.5309
   13CHL1   C11  922   1.800   0.413   9.522 -0.4209  0.3489 -0.4635
   13CHL1  H11A  923   1.725   0.334   9.499 -1.6140  1.1642  0.4602
   13CHL1  H11B  924   1.892   0.366   9.564 -0.1649 -2.3675 -3.6514
   13CHL1    C9  925   1.747   0.519   9.624 -0.2924  0.3918  0.5073
   13CHL1    H9  926   1.832   0.590   9.633 -0.1547  0.0088  2.6816
   13CHL1   C10  927   1.718   0.475   9.768 -0.1035 -1.1913 -0.2263
   13CHL1   C19  928   1.654   0.336   9.768  0.3493 -0.1396  0.1374
   13CHL1  H19A  929   1.642   0.299   9.872  0.3029  3.2788  1.4828
   13CHL1  H19B  930   1.552   0.356   9.727 -0.6086 -1.3375  1.7968
   13CHL1  H19C  931   1.712   0.270   9.700  0.6999  1.0005 -0.7162
   13CHL1    C1  932   1.856   0.458   9.844 -0.1661 -0.1441  0.1031
   13CHL1   H1A  933   1.903   0.366   9.803 -0.1296  0.2394 -0.7434
   13CHL1   H1B  934   1.929   0.534   9.808  0.0484 -0.6776 -0.6139
   13CHL1    C2  935   1.841   0.452   9.994 -0.3734  0.1802 -0.1057
   13CHL1   H2A  936   1.944   0.442  10.035 -0.7131 -1.0743  0.4816
   13CHL1   H2B  937   1.792   0.355  10.016 -1.4487  0.4339 -1.2564
   13CHL1   C20  938   1.770   0.577   9.063 -0.3713 -0.1557  0.4421
   13CHL1   H20  939   1.706   0.487   9.058  2.0604 -2.0090  0.4695
   13CHL1   C21  940   1.920   0.529   9.052  0.0989  0.0656 -0.5782
   13CHL1  H21A  941   1.926   0.480   8.953 -1.9286 -0.5779 -0.4211
   13CHL1  H21B  942   1.961   0.462   9.131 -0.7640  0.2620  0.0459
   13CHL1  H21C  943   1.985   0.619   9.044  1.8169 -1.2841 -3.2852
   13CHL1   C22  944   1.753   0.671   8.935 -0.1348  0.2815  0.2939
   13CHL1  H22A  945   1.659   0.731   8.939  0.6916  1.6456  0.0867
   13CHL1  H22B  946   1.843   0.736   8.940  0.3783 -0.3886 -0.1185
   13CHL1   C23  947   1.743   0.603   8.805  0.6532 -0.0780  0.5433
   13CHL1  H23A  948   1.815   0.519   8.803  0.5430 -0.2576  2.4030
   13CHL1  H23B  949   1.639   0.564   8.801  0.5943 -0.0259  1.4145
   13CHL1   C24  950   1.755   0.684   8.678 -0.6720  0.7376  0.4706
   13CHL1  H24A  951   1.716   0.786   8.699  0.4182  0.7150  2.9887
   13CHL1  H24B  952   1.862   0.692   8.649 -0.4865 -2.1497  0.0765
   13CHL1   C25  953   1.678   0.619   8.557  0.1178 -0.5489  0.3759
   13CHL1   H25  954   1.571   0.598   8.578 -0.0589 -0.4774 -0.4392
   13CHL1   C26  955   1.688   0.719   8.444  0.0648  0.5642  0.1739
   13CHL1  H26A  956   1.794   0.752   8.436  0.2634  0.2092  1.2155
   13CHL1  H26B  957   1.649   0.673   8.351 -0.9358  0.4343  0.6491
   13CHL1  H26C  958   1.628   0.811   8.460  0.5018  1.0994 -1.1191
   13CHL1   C27  959   1.734   0.479   8.530  0.2345  0.5665  0.4294
   13CHL1  H27A  960   1.672   0.419   8.460  1.1228 -0.4377  0.4790
   13CHL1  H27B  961   1.832   0.488   8.479 -0.5397  0.0360 -1.2221
   13CHL1  H27C  962   1.739   0.418   8.622 -0.7936 -1.1333 -0.5752
   14CHL1    C3  963   0.719   2.434  10.414  0.8762 -0.5034  0.1227
   14CHL1    H3  964   0.816   2.385  10.390  1.0862  0.3347 -0.7770
   14CHL1    O3  965   0.693   2.427  10.558 -0.1461 -0.4392 -0.1018
   14CHL1   H3'  966   0.597   2.435  10.559 -0.2807 -1.1054 -2.3129
   14CHL1    C4  967   0.712   2.587  10.382  0.6778 -0.4175  0.0399
   14CHL1   H4A  968   0.611   2.623  10.412 -0.0304 -0.1148 -2.4373
   14CHL1   H4B  969   0.787   2.642  10.443  2.3008 -1.0462 -1.3149
   14CHL1    C5  970   0.732   2.614  10.234 -0.4947 -0.8393  0.2277
   14CHL1    C6  971   0.822   2.700  10.193  0.5733 -0.0230  0.8378
   14CHL1    H6  972   0.885   2.764  10.257 -0.9812  3.5616 -0.9745
   14CHL1    C7  973   0.835   2.740  10.049  0.6109  0.7488  0.0698
   14CHL1   H7A  974   0.854   2.849  10.032  0.6370  0.4075 -2.6115
   14CHL1   H7B  975   0.929   2.688  10.021 -0.5011 -0.8100 -0.9398
   14CHL1    C8  976   0.728   2.681   9.956  0.4849 -0.1037  0.1941
   14CHL1    H8  977   0.641   2.749   9.964  0.2838 -0.0658 -1.8727
   14CHL1   C14  978   0.767   2.676   9.807 -0.1473 -0.0043  0.1742
   14CHL1   H14  979   0.846   2.598   9.807 -0.7301 -0.6359 -1.3536
   14CHL1   C15  980   0.833   2.804   9.750 -0.1240  0.4327  0.3906
   14CHL1  H15A  981   0.760   2.887   9.766 -0.5584  0.7626 -2.6046
   14CHL1  H15B  982   0.937   2.825   9.781 -0.9292  2.5165  1.9181
   14CHL1   C16  983   0.836   2.763   9.600 -0.5396 -0.4436  0.1260
   14CHL1  H16A  984   0.809   2.851   9.539 -0.3441 -0.9535 -0.7146
   14CHL1  H16B  985   0.942   2.741   9.576 -0.8982 -3.5758  0.9417
   14CHL1   C17  986   0.757   2.631   9.574  0.4878 -0.0020 -0.1830
   14CHL1   H17  987   0.824   2.543   9.569 -0.4001 -0.6907 -0.3646
   14CHL1   C13  988   0.673   2.620   9.705  0.5025  0.4791  0.4731
   14CHL1   C18  989   0.549   2.708   9.706 -0.0022 -0.8376  0.1297
   14CHL1  H18A  990   0.567   2.807   9.659 -0.2364 -1.0138 -0.3461
   14CHL1  H18B  991   0.467   2.659   9.649 -0.2729 -0.9233  0.5879
   14CHL1  H18C  992   0.506   2.732   9.806  0.0452  0.6385 -0.1850
   14CHL1   C12  993   0.648   2.471   9.747  0.0398  0.2726  0.1544
   14CHL1  H12A  994   0.571   2.438   9.674 -0.1481 -0.2154  0.5658
   14CHL1  H12B  995   0.746   2.418   9.749 -0.8273 -1.4121  0.0207
   14CHL1   C11  996   0.596   2.468   9.898 -0.3610  0.0732  0.1679
   14CHL1  H11A  997   0.495   2.514   9.891 -1.9043 -3.0942 -0.3424
   14CHL1  H11B  998   0.578   2.360   9.918 -1.1512  0.4658  1.6948
   14CHL1    C9  999   0.687   2.544   9.996 -0.7298  0.2622 -0.6622
   14CHL1    H9 1000   0.784   2.491   9.995 -0.6658  0.3724 -0.4150
   14CHL1   C10 1001   0.647   2.533  10.141  0.3725  0.8117 -0.2862
   14CHL1   C19 1002   0.497   2.592  10.151  0.1594 -0.0938 -0.4959
   14CHL1  H19A 1003   0.463   2.591  10.257 -0.7567  1.3146 -0.7499
   14CHL1  H19B 1004   0.484   2.697  10.117  1.8298  0.6442  0.9794
   14CHL1  H19C 1005   0.418   2.536  10.095  0.0171  1.0548 -1.4733
   14CHL1    C1 1006   0.622   2.383  10.194 -0.1026 -0.2201 -0.2423
   14CHL1   H1A 1007   0.525   2.349  10.150 -0.1421 -2.8915  1.6544
   14CHL1   H1B 1008   0.702   2.325  10.143  0.0808 -2.0059  1.9561
   14CHL1    C2 1009   0.613   2.360  10.343 -0.3125 -0.2350  1.2186
   14CHL1   H2A 1010   0.619   2.251  10.368  1.7902 -0.1437  1.2972
   14CHL1   H2B 1011   0.513   2.398  10.371 -1.2823 -1.8646  0.1583
   14CHL1   C20 1012   0.676   2.625   9.445  0.2885  0.5878  0.3579
   14CHL1   H20 1013   0.588   2.558   9.458 -0.5273  1.4752 -0.4496
   14CHL1   C21 1014   0.758   2.557   9.341 -0.1048 -0.1577  1.0442
   14CHL1  H21A 1015   0.805   2.461   9.369  0.0512 -0.2790  0.3717
   14CHL1  H21B 1016   0.844   2.625   9.320 -0.1953 -0.1534  0.6942
   14CHL1  H21C 1017   0.700   2.543   9.248 -2.3335  1.2092  2.1400
   14CHL1   C22 1018   0.605   2.758   9.398  0.1027 -0.1666 -0.5001
   14CHL1  H22A 1019   0.559   2.817   9.480 -1.9776  0.7940 -2.2494
   14CHL1  H22B 1020   0.672   2.826   9.340  1.2866 -0.5563  0.3859
   14CHL1   C23 1021   0.493   2.728   9.306  0.6122 -0.3857  0.0540
   14CHL1  H23A 1022   0.541   2.669   9.225  2.5928 -1.0088  1.6034
   14CHL1  H23B 1023   0.405   2.690   9.361  1.2977 -2.6307 -0.3194
   14CHL1   C24 1024   0.434   2.849   9.230  0.4462 -0.3702  0.0173
   14CHL1  H24A 1025   0.404   2.927   9.303 -0.7468 -2.9514  2.4318
   14CHL1  H24B 1026   0.521   2.889   9.173  1.2463  1.0230  2.0831
   14CHL1   C25 1027   0.317   2.827   9.128  0.4404  0.3770 -0.2584
   14CHL1   H25 1028   0.335   2.730   9.076 -1.0882 -1.8135  2.9290
   14CHL1   C26 1029   0.181   2.812   9.206 -1.5527 -0.2511  0.1492
   14CHL1  H26A 1030   0.104   2.765   9.140 -1.7699  1.8017 -1.1501
   14CHL1  H26B 1031   0.181   2.745   9.294 -2.4393 -0.1176  0.2605
   14CHL1  H26C 1032   0.142   2.913   9.230  3.9217  2.3341 -0.3692
   14CHL1   C27 1033   0.314   2.937   9.020  0.1527 -0.3459 -0.4199
   14CHL1  H27A 1034   0.243   2.908   8.940 -0.0457  0.3198 -0.4864
   14CHL1  H27B 1035   0.275   3.036   9.053 -0.7043 -0.1376 -1.9693
   14CHL1  H27C 1036   0.417   2.945   8.979  0.7925  3.7947  1.4620
   15CHL1    C3 1037   6.236   2.944  10.243  0.1505  1.1560 -0.3340
   15CHL1    H3 1038   6.285   2.846  10.221  2.3911  1.8839  1.0981
   15CHL1    O3 1039   6.194   2.943  10.378 -0.0104 -0.5863 -0.2738
   15CHL1   H3' 1040   6.126   3.010  10.394  0.4594 -0.3474  0.8191
   15CHL1    C4 1041   6.338   3.060  10.219  0.2055  0.6716  0.5299
   15CHL1   H4A 1042   6.289   3.153  10.258  1.4521  1.4153  0.3753
   15CHL1   H4B 1043   6.427   3.044  10.283  0.1681  3.4482  1.4106
   15CHL1    C5 1044   6.375   3.067  10.072  0.0269 -0.2969 -0.5987
   15CHL1    C6 1045   6.504   3.067  10.043  0.2680 -0.5561  0.4299
   15CHL1    H6 1046   6.582   3.078  10.120 -0.1200 -1.7724  1.0144
   15CHL1    C7 1047   6.550   3.084   9.898 -0.5074 -0.3579  0.2821
   15CHL1   H7A 1048   6.613   3.176   9.900 -0.5726 -0.2993 -0.3066
   15CHL1   H7B 1049   6.606   2.993   9.869 -0.2748 -0.0362 -0.2943
   15CHL1    C8 1050   6.429   3.115   9.796 -0.3122  0.6609  0.1377
   15CHL1    H8 1051   6.410   3.224   9.804 -0.0579  0.6228  1.6666
   15CHL1   C14 1052   6.476   3.074   9.654 -0.2815  0.1523  0.1437
   15CHL1   H14 1053   6.505   2.967   9.656 -1.7610 -0.2712 -0.1782
   15CHL1   C15 1054   6.610   3.142   9.604 -0.0617 -0.4235  0.1263
   15CHL1  H15A 1055   6.599   3.247   9.638 -0.4651 -0.7670  1.0927
   15CHL1  H15B 1056   6.697   3.097   9.657 -2.4179 -2.3625  2.6713
   15CHL1   C16 1057   6.601   3.125   9.453  0.0615 -0.2092 -0.0510
   15CHL1  H16A 1058   6.596   3.223   9.401 -0.6814  0.3589  1.0387
   15CHL1  H16B 1059   6.693   3.078   9.412  1.3984  1.5402  0.7744
   15CHL1   C17 1060   6.467   3.050   9.432  0.3740 -0.5603 -0.2028
   15CHL1   H17 1061   6.487   2.941   9.444  0.5638 -0.4436  0.5876
   15CHL1   C13 1062   6.368   3.096   9.545  0.4265  0.3775 -0.3893
   15CHL1   C18 1063   6.320   3.244   9.542  0.8984 -0.0071  0.7757
   15CHL1  H18A 1064   6.246   3.273   9.463  0.4924  0.2967  1.2579
   15CHL1  H18B 1065   6.279   3.278   9.639  0.8232  0.1115  0.7040
   15CHL1  H18C 1066   6.402   3.314   9.517 -0.7737  1.5795 -0.6167
   15CHL1   C12 1067   6.254   2.996   9.579  0.3085 -0.4675  0.1186
   15CHL1  H12A 1068   6.176   2.998   9.501  0.2513  2.0504  0.1664
   15CHL1  H12B 1069   6.292   2.892   9.590  0.1241 -0.5708 -0.2223
   15CHL1   C11 1070   6.193   3.036   9.717  0.3589 -0.1747  0.1811
   15CHL1  H11A 1071   6.147   3.136   9.703  0.1417 -0.4373 -1.1176
   15CHL1  H11B 1072   6.114   2.958   9.729  1.6704 -1.7463 -0.9048
   15CHL1    C9 1073   6.304   3.030   9.839 -0.3724  0.6725  0.7311
   15CHL1    H9 1074   6.337   2.924   9.841 -1.8933  0.1637  0.3854
   15CHL1   C10 1075   6.255   3.062   9.975  0.0553 -0.7593 -0.2447
   15CHL1   C19 1076   6.195   3.206   9.982 -0.2711  0.4344  0.3384
   15CHL1  H19A 1077   6.104   3.228   9.922 -0.6003  1.6974  1.2604
   15CHL1  H19B 1078   6.171   3.253  10.080 -0.6707  2.1175 -0.5197
   15CHL1  H19C 1079   6.261   3.285   9.941 -0.1540  2.0232  3.3293
   15CHL1    C1 1080   6.145   2.952  10.012 -0.3721  0.3264 -1.0739
   15CHL1   H1A 1081   6.051   2.966   9.955 -1.8329 -0.7440  0.9739
   15CHL1   H1B 1082   6.187   2.852   9.989  0.4908 -0.6035  3.5260
   15CHL1    C2 1083   6.109   2.955  10.160 -0.1674  0.2426  0.2960
   15CHL1   H2A 1084   6.049   2.863  10.182  1.1348  0.0053  3.4039
   15CHL1   H2B 1085   6.070   3.054  10.190 -0.0392  0.2831  0.3314
   15CHL1   C20 1086   6.412   3.081   9.294  0.3311 -0.3499  0.5294
   15CHL1   H20 1087   6.415   3.192   9.284  0.4773 -0.3303  0.8039
   15CHL1   C21 1088   6.266   3.027   9.272  1.1105 -0.2610  0.6552
   15CHL1  H21A 1089   6.247   2.929   9.320  3.0700 -1.4190 -0.7910
   15CHL1  H21B 1090   6.238   3.014   9.165  0.8521 -0.6855  0.7727
   15CHL1  H21C 1091   6.200   3.098   9.326 -1.6164 -1.5878 -0.7694
   15CHL1   C22 1092   6.507   3.023   9.186 -0.4423  0.3885 -0.0486
   15CHL1  H22A 1093   6.607   2.993   9.224 -0.2580 -0.5995 -1.2241
   15CHL1  H22B 1094   6.467   2.922   9.162 -0.1228  0.1876  0.2546
   15CHL1   C23 1095   6.519   3.112   9.064  0.1824  0.3789  0.4643
   15CHL1  H23A 1096   6.416   3.136   9.030  0.1642  0.9423  0.8987
   15CHL1  H23B 1097   6.554   3.216   9.086  0.0447  0.9657 -1.8338
   15CHL1   C24 1098   6.593   3.053   8.942 -0.4071  0.0932 -0.1979
   15CHL1  H24A 1099   6.583   3.129   8.861  1.7874  1.8128  1.0356
   15CHL1  H24B 1100   6.702   3.050   8.959 -0.0582 -1.9868 -2.4173
   15CHL1   C25 1101   6.529   2.914   8.897  0.4055 -0.7142  1.2361
   15CHL1   H25 1102   6.513   2.845   8.983  1.9845 -1.0627  1.2803
   15CHL1   C26 1103   6.390   2.928   8.826 -0.0007  0.0222  0.0711
   15CHL1  H26A 1104   6.389   2.988   8.733  2.8419  0.2370  0.0977
   15CHL1  H26B 1105   6.357   2.824   8.804 -1.5694  0.0820  1.8129
   15CHL1  H26C 1106   6.311   2.960   8.897  0.1664 -1.4616  0.9694
   15CHL1   C27 1107   6.620   2.854   8.786  0.5118  0.5191 -0.1004
   15CHL1  H27A 1108   6.727   2.847   8.815  0.9523  1.7192 -1.3238
   15CHL1  H27B 1109   6.577   2.754   8.764  0.3527  0.1547  1.7200
   15CHL1  H27C 1110   6.615   2.912   8.691 -0.1540  1.4259  0.4631
   16CHL1    C3 1111   1.164   3.860  10.430 -0.7287  0.2676 -0.1015
   16CHL1    H3 1112   1.067   3.809  10.415  0.1647 -1.9106  1.0441
   16CHL1    O3 1113   1.160   3.904  10.568 -0.1272 -0.5133 -0.1214
   16CHL1   H3' 1114   1.254   3.920  10.580 -0.2336  2.3421 -1.9704
   16CHL1    C4 1115   1.278   3.751  10.415  0.2691  0.0238 -0.0891
   16CHL1   H4A 1116   1.370   3.806  10.444  0.4775  0.2693 -1.1735
   16CHL1   H4B 1117   1.258   3.666  10.485  0.2156  0.6346  0.6552
   16CHL1    C5 1118   1.321   3.707  10.276  0.4982 -0.2947 -0.7465
   16CHL1    C6 1119   1.343   3.580  10.249 -0.1917 -0.3543  0.6842
   16CHL1    H6 1120   1.335   3.504  10.328  0.5336  0.1535  1.2635
   16CHL1    C7 1121   1.389   3.528  10.118  0.1405 -0.0080  0.4099
   16CHL1   H7A 1122   1.469   3.452  10.132 -1.2327 -1.4432  0.7876
   16CHL1   H7B 1123   1.301   3.475  10.075  1.8053 -1.8774 -0.8823
   16CHL1    C8 1124   1.433   3.640  10.028  0.2587  0.5284  0.7550
   16CHL1    H8 1125   1.532   3.665  10.074 -0.0112  1.5175  0.8209
   16CHL1   C14 1126   1.459   3.593   9.880  0.2956  0.0127 -0.7010
   16CHL1   H14 1127   1.361   3.563   9.837  0.0912 -0.4631  0.0756
   16CHL1   C15 1128   1.536   3.464   9.854 -0.0792  0.7014  0.0946
   16CHL1  H15A 1129   1.632   3.466   9.910  0.3882  0.9853 -0.7068
   16CHL1  H15B 1130   1.471   3.376   9.873 -1.5300  1.5478 -0.7927
   16CHL1   C16 1131   1.562   3.468   9.704 -0.6705  0.2003  0.2462
   16CHL1  H16A 1132   1.667   3.454   9.669 -1.3205  0.7194 -2.1034
   16CHL1  H16B 1133   1.493   3.391   9.665 -0.6415  0.1751  0.2444
   16CHL1   C17 1134   1.524   3.609   9.655  0.9179  0.5662 -0.0968
   16CHL1   H17 1135   1.418   3.607   9.624  0.8569 -0.3580  0.1341
   16CHL1   C13 1136   1.509   3.690   9.785 -0.6477 -0.1953  0.0247
   16CHL1   C18 1137   1.649   3.741   9.830  0.3390  0.0986 -0.0828
   16CHL1  H18A 1138   1.677   3.820   9.757 -2.1126 -0.2707 -1.5462
   16CHL1  H18B 1139   1.647   3.798   9.926  0.6652  0.7408 -0.4463
   16CHL1  H18C 1140   1.730   3.666   9.822  1.1725  0.6759  2.1086
   16CHL1   C12 1141   1.414   3.823   9.779  0.1992  0.2229 -0.0011
   16CHL1  H12A 1142   1.469   3.909   9.736 -2.8589  1.8993 -0.8686
   16CHL1  H12B 1143   1.322   3.807   9.719 -0.6024  2.3034  0.6176
   16CHL1   C11 1144   1.377   3.878   9.922 -0.3020  0.2229  0.3875
   16CHL1  H11A 1145   1.466   3.936   9.955  0.7527  0.1817 -2.1653
   16CHL1  H11B 1146   1.294   3.951   9.909 -0.9083 -0.4182  0.6594
   16CHL1    C9 1147   1.346   3.770  10.034 -0.1327 -0.3128  0.7909
   16CHL1    H9 1148   1.244   3.738  10.004  0.5699 -4.1216  1.9063
   16CHL1   C10 1149   1.343   3.829  10.178 -0.9349  0.0350  0.1506
   16CHL1   C19 1150   1.486   3.896  10.205  0.0692  0.0293 -0.3173
   16CHL1  H19A 1151   1.475   3.937  10.308 -1.1264 -0.2011 -0.3394
   16CHL1  H19B 1152   1.579   3.836  10.195  0.5663  0.6121  0.6612
   16CHL1  H19C 1153   1.496   3.979  10.132  0.9601 -1.9401 -2.5602
   16CHL1    C1 1154   1.224   3.928  10.188  0.0568  0.0927 -0.7434
   16CHL1   H1A 1155   1.244   4.012  10.118 -1.6343 -0.3016 -1.7453
   16CHL1   H1B 1156   1.131   3.876  10.158  0.1837 -0.2985 -0.4655
   16CHL1    C2 1157   1.191   3.982  10.334 -0.1392 -0.2850 -0.1047
   16CHL1   H2A 1158   1.106   4.051  10.317 -0.3212 -0.5956 -0.4911
   16CHL1   H2B 1159   1.270   4.044  10.380  2.0522 -2.1846 -1.0844
   16CHL1   C20 1160   1.608   3.655   9.535  0.5804 -0.1809  0.3870
   16CHL1   H20 1161   1.710   3.682   9.571 -0.4051  0.8368  2.5951
   16CHL1   C21 1162   1.556   3.795   9.482  0.0305 -0.4801  0.3605
   16CHL1  H21A 1163   1.556   3.868   9.566 -0.9393  1.0824 -0.9333
   16CHL1  H21B 1164   1.458   3.776   9.435 -1.7939  1.4295  3.0933
   16CHL1  H21C 1165   1.631   3.836   9.410 -0.9157  0.8874  0.1132
   16CHL1   C22 1166   1.624   3.560   9.418 -0.1547 -0.7589  0.2698
   16CHL1  H22A 1167   1.684   3.619   9.346  0.6746 -0.4656  1.1793
   16CHL1  H22B 1168   1.683   3.469   9.442 -0.3853 -1.0980 -0.4077
   16CHL1   C23 1169   1.492   3.515   9.351  0.3116  0.0217  0.0931
   16CHL1  H23A 1170   1.429   3.457   9.421  1.1005 -0.3314  0.5298
   16CHL1  H23B 1171   1.430   3.601   9.318 -2.1444 -1.6763  0.0504
   16CHL1   C24 1172   1.512   3.422   9.230  0.6200 -0.0779  0.3886
   16CHL1  H24A 1173   1.568   3.463   9.143  0.6034 -1.6795 -0.4299
   16CHL1  H24B 1174   1.568   3.335   9.272 -1.3349 -1.2163  0.7687
   16CHL1   C25 1175   1.383   3.367   9.166 -0.2021  0.4735 -0.0989
   16CHL1   H25 1176   1.308   3.336   9.241 -0.4688 -0.7610 -0.8510
   16CHL1   C26 1177   1.318   3.474   9.080  0.8311 -0.2686  0.4355
   16CHL1  H26A 1178   1.224   3.441   9.031 -0.0236  2.5938 -0.0485
   16CHL1  H26B 1179   1.278   3.562   9.135  1.5783  0.3976 -0.0677
   16CHL1  H26C 1180   1.381   3.510   8.995 -0.8742 -1.8421 -1.6075
   16CHL1   C27 1181   1.412   3.241   9.084 -0.5482 -0.7397  0.2877
   16CHL1  H27A 1182   1.493   3.248   9.008 -1.7554  1.3715 -0.9102
   16CHL1  H27B 1183   1.446   3.154   9.144 -1.0618 -1.5087 -0.5067
   16CHL1  H27C 1184   1.321   3.209   9.028  0.6581 -1.8599 -1.1225
   17CHL1    C3 1185   4.335   6.610  10.105 -0.4914  0.3827  0.0946
   17CHL1    H3 1186   4.308   6.511  10.063 -0.9206  0.5845 -0.1126
   17CHL1    O3 1187   4.359   6.599  10.244 -0.1151  0.0986 -0.3482
   17CHL1   H3' 1188   4.357   6.690  10.274 -0.3199  0.1316 -0.4655
   17CHL1    C4 1189   4.475   6.653  10.049  0.6531  0.0675  0.3473
   17CHL1   H4A 1190   4.525   6.734  10.106  0.0195  0.5844  0.1792
   17CHL1   H4B 1191   4.540   6.565  10.071  0.6154  0.0556  0.4136
   17CHL1    C5 1192   4.448   6.680   9.903  0.0162  0.3526 -0.1178
   17CHL1    C6 1193   4.526   6.629   9.813 -0.4255  0.0076 -0.4183
   17CHL1    H6 1194   4.603   6.559   9.847 -2.3648 -1.7563  0.6137
   17CHL1    C7 1195   4.523   6.668   9.672 -0.1853 -0.3353 -0.2060
   17CHL1   H7A 1196   4.625   6.673   9.628 -0.6073 -0.4875 -1.2205
   17CHL1   H7B 1197   4.469   6.588   9.618 -0.7488  1.2979 -2.2262
   17CHL1    C8 1198   4.445   6.794   9.643  0.8229 -0.2168 -0.0662
   17CHL1    H8 1199   4.514   6.876   9.675 -0.1533  0.4995  0.2571
   17CHL1   C14 1200   4.420   6.799   9.496 -0.4367  0.1268  0.0086
   17CHL1   H14 1201   4.351   6.715   9.471 -1.2880  0.4677  1.1146
   17CHL1   C15 1202   4.547   6.771   9.405 -0.2864  0.2018  0.5091
   17CHL1  H15A 1203   4.638   6.817   9.450  0.3105  0.4917 -0.9379
   17CHL1  H15B 1204   4.562   6.661   9.407 -0.2888  0.1382 -1.1095
   17CHL1   C16 1205   4.510   6.828   9.266  0.6067 -0.0659  0.1008
   17CHL1  H16A 1206   4.584   6.907   9.242  0.3090  0.4282  0.7681
   17CHL1  H16B 1207   4.509   6.744   9.193  1.3224  0.1768 -0.1926
   17CHL1   C17 1208   4.368   6.895   9.292  0.2835  0.3003 -0.3328
   17CHL1   H17 1209   4.291   6.820   9.265  2.1013 -1.1268 -1.8902
   17CHL1   C13 1210   4.355   6.925   9.446 -0.7823 -0.8659 -0.0773
   17CHL1   C18 1211   4.440   7.052   9.479  0.2107 -0.1819 -0.2950
   17CHL1  H18A 1212   4.382   7.141   9.448 -1.5593 -1.0073  0.5064
   17CHL1  H18B 1213   4.454   7.061   9.589 -2.3072 -1.6072  0.2131
   17CHL1  H18C 1214   4.542   7.052   9.435  0.6629  1.8049  0.6534
   17CHL1   C12 1215   4.213   6.921   9.518  0.0449  0.4893 -0.7254
   17CHL1  H12A 1216   4.152   7.005   9.480 -1.1346 -0.5966 -1.3155
   17CHL1  H12B 1217   4.165   6.830   9.476  2.1929 -1.6979  1.1972
   17CHL1   C11 1218   4.216   6.918   9.665 -0.3940  0.5481 -1.3087
   17CHL1  H11A 1219   4.264   7.015   9.693  1.2371  0.2426 -2.8564
   17CHL1  H11B 1220   4.112   6.914   9.704  0.5004 -1.5883  1.0880
   17CHL1    C9 1221   4.313   6.795   9.722 -0.4911  0.2573 -0.1613
   17CHL1    H9 1222   4.259   6.700   9.701 -0.0639 -0.3661  1.4324
   17CHL1   C10 1223   4.339   6.786   9.872 -0.4186  0.5111  0.5132
   17CHL1   C19 1224   4.377   6.929   9.932 -0.8782  0.1636  0.7581
   17CHL1  H19A 1225   4.293   7.000   9.915 -1.6435 -1.2661 -1.9878
   17CHL1  H19B 1226   4.386   6.917  10.042 -0.2608  0.2035  0.7198
   17CHL1  H19C 1227   4.471   6.973   9.891 -0.8705  0.4785  1.1045
   17CHL1    C1 1228   4.201   6.740   9.927  0.2488 -0.1160 -0.0435
   17CHL1   H1A 1229   4.127   6.821   9.912  1.3069  1.4789  2.5693
   17CHL1   H1B 1230   4.166   6.643   9.886 -1.5213  0.4071  0.1400
   17CHL1    C2 1231   4.212   6.712  10.077 -0.1847  0.4793 -0.4053
   17CHL1   H2A 1232   4.117   6.667  10.113  0.4738 -1.4193 -0.9233
   17CHL1   H2B 1233   4.226   6.807  10.132  1.4039 -0.4655  0.9457
   17CHL1   C20 1234   4.340   7.016   9.201 -0.0064 -0.3991 -0.0562
   17CHL1   H20 1235   4.409   7.095   9.236  0.9677 -0.9547 -0.6790
   17CHL1   C21 1236   4.193   7.064   9.221 -0.5653 -0.0910 -0.2784
   17CHL1  H21A 1237   4.131   6.980   9.184 -2.5651  2.1962 -2.6090
   17CHL1  H21B 1238   4.177   7.147   9.149 -0.0566  0.2225 -0.0334
   17CHL1  H21C 1239   4.168   7.100   9.323  1.3757  1.4184 -0.2866
   17CHL1   C22 1240   4.365   6.993   9.053 -0.4227 -0.0070 -0.6813
   17CHL1  H22A 1241   4.354   7.090   8.999  1.5311 -0.1684 -1.4546
   17CHL1  H22B 1242   4.467   6.953   9.037 -1.0957 -3.0264  1.6782
   17CHL1   C23 1243   4.275   6.883   8.990 -0.4759  0.6028 -0.0287
   17CHL1  H23A 1244   4.297   6.784   9.036 -0.8722 -0.4911 -2.1021
   17CHL1  H23B 1245   4.169   6.915   8.999 -1.2682 -1.3864 -1.5440
   17CHL1   C24 1246   4.314   6.864   8.844  0.1558  0.2764  0.2142
   17CHL1  H24A 1247   4.342   6.963   8.802 -1.5365  0.7607  0.1583
   17CHL1  H24B 1248   4.408   6.805   8.839 -0.3764 -0.5170 -0.6693
   17CHL1   C25 1249   4.207   6.794   8.754  0.5097 -0.4369 -0.0885
   17CHL1   H25 1250   4.111   6.849   8.758  1.3456  1.0771  0.1179
   17CHL1   C26 1251   4.265   6.797   8.614 -0.7309  0.0037  0.3064
   17CHL1  H26A 1252   4.182   6.765   8.547  0.2316 -0.4182 -0.7132
   17CHL1  H26B 1253   4.304   6.897   8.587  3.7363 -1.5564  0.2887
   17CHL1  H26C 1254   4.338   6.714   8.606 -0.1093  0.4700  1.0984
   17CHL1   C27 1255   4.194   6.651   8.794  0.2658 -0.0310 -0.6545
   17CHL1  H27A 1256   4.108   6.607   8.739 -1.4220 -1.1252  2.6126
   17CHL1  H27B 1257   4.284   6.587   8.780 -0.3859 -0.7590 -1.7145
   17CHL1  H27C 1258   4.175   6.649   8.903  3.0602 -4.1686 -0.0142
   18CHL1    C3 1259   3.390   6.056  10.102  0.3396  0.0559 -0.1016
   18CHL1    H3 1260   3.496   6.024  10.105  1.3577  3.1873  0.1191
   18CHL1    O3 1261   3.333   6.071  10.236 -0.6064 -0.0281  0.0746
   18CHL1   H3' 1262   3.268   6.142  10.229 -0.1170  0.6102  1.5599
   18CHL1    C4 1263   3.372   6.178  10.022  0.1392 -0.2652  0.9216
   18CHL1   H4A 1264   3.268   6.211  10.042  0.3457  1.2058 -0.2210
   18CHL1   H4B 1265   3.435   6.260  10.064  1.4263 -0.3479 -0.7178
   18CHL1    C5 1266   3.388   6.161   9.870  0.2000  0.4092 -0.1584
   18CHL1    C6 1267   3.479   6.234   9.811 -0.1181  0.6706 -0.2472
   18CHL1    H6 1268   3.538   6.309   9.865  1.1140  0.7400 -1.6145
   18CHL1    C7 1269   3.520   6.221   9.667 -0.5154  0.4945  0.2124
   18CHL1   H7A 1270   3.514   6.330   9.649 -2.8646  0.6172  1.3142
   18CHL1   H7B 1271   3.625   6.187   9.651 -0.6807  1.1228 -3.0184
   18CHL1    C8 1272   3.419   6.144   9.591 -0.0284  0.1061  0.3529
   18CHL1    H8 1273   3.331   6.211   9.580 -0.6156 -0.8610 -1.1825
   18CHL1   C14 1274   3.473   6.115   9.450  0.3027  0.2707 -0.7956
   18CHL1   H14 1275   3.560   6.050   9.473  1.1302  1.6393  0.1386
   18CHL1   C15 1276   3.555   6.220   9.371 -0.2873 -0.3782 -1.0248
   18CHL1  H15A 1277   3.495   6.313   9.377 -1.2965 -1.1015  3.2407
   18CHL1  H15B 1278   3.658   6.240   9.409 -0.5412  2.8280 -1.7191
   18CHL1   C16 1279   3.545   6.173   9.227  0.0536  0.3226  0.5882
   18CHL1  H16A 1280   3.494   6.251   9.166 -1.4300 -1.0293  0.0308
   18CHL1  H16B 1281   3.641   6.138   9.184 -0.3239 -0.1901  0.1453
   18CHL1   C17 1282   3.453   6.048   9.227 -0.2400 -0.1142  0.3788
   18CHL1   H17 1283   3.529   5.966   9.229  1.6306  1.5598  0.8062
   18CHL1   C13 1284   3.385   6.042   9.359  0.6165  0.0858 -0.0316
   18CHL1   C18 1285   3.248   6.122   9.343 -0.0697 -0.1654  0.5160
   18CHL1  H18A 1286   3.185   6.056   9.280  0.4639 -2.6389  2.3999
   18CHL1  H18B 1287   3.194   6.138   9.438  0.0846 -0.6181  0.6833
   18CHL1  H18C 1288   3.263   6.222   9.295  1.0696  0.0799  1.3343
   18CHL1   C12 1289   3.360   5.905   9.425  0.2655  0.4125 -0.2156
   18CHL1  H12A 1290   3.298   5.853   9.348  1.4241  0.8303 -1.4815
   18CHL1  H12B 1291   3.453   5.845   9.435 -0.6574 -0.9929  0.2685
   18CHL1   C11 1292   3.297   5.926   9.565 -0.0922 -0.0253 -0.7104
   18CHL1  H11A 1293   3.195   5.969   9.555  0.1927  0.4425 -1.6766
   18CHL1  H11B 1294   3.309   5.829   9.617 -0.2322  0.5747  0.4923
   18CHL1    C9 1295   3.378   6.016   9.660 -0.6906 -0.7290 -0.3102
   18CHL1    H9 1296   3.473   5.962   9.680 -0.5918 -0.1188  0.9575
   18CHL1   C10 1297   3.323   6.045   9.804  0.3230  0.0995  0.1829
   18CHL1   C19 1298   3.173   6.090   9.796  0.3782  0.3210  0.1083
   18CHL1  H19A 1299   3.127   6.001   9.748  1.5877 -0.1358 -0.2499
   18CHL1  H19B 1300   3.128   6.107   9.896  2.4431 -0.4515  1.2293
   18CHL1  H19C 1301   3.153   6.161   9.713 -3.2451 -2.1511 -1.3927
   18CHL1    C1 1302   3.356   5.929   9.896 -0.3076  0.6024  0.3747
   18CHL1   H1A 1303   3.310   5.840   9.848 -0.6021 -0.2439  2.1525
   18CHL1   H1B 1304   3.466   5.912   9.896 -0.4354 -0.2650  0.1249
   18CHL1    C2 1305   3.308   5.938  10.042 -0.3799 -0.7851  0.5548
   18CHL1   H2A 1306   3.332   5.854  10.111  0.0528  1.5274  3.4684
   18CHL1   H2B 1307   3.198   5.944  10.033 -0.5007  0.2605  2.2080
   18CHL1   C20 1308   3.375   6.023   9.093 -0.3322 -0.0931  0.2895
   18CHL1   H20 1309   3.287   6.090   9.084 -0.1370  0.3704  1.5938
   18CHL1   C21 1310   3.319   5.874   9.092 -0.2589 -0.6160  0.4996
   18CHL1  H21A 1311   3.271   5.843   8.997 -1.2884 -0.2695  0.8866
   18CHL1  H21B 1312   3.235   5.877   9.165 -2.6742 -0.4551 -2.1011
   18CHL1  H21C 1313   3.407   5.812   9.117  0.5410 -0.1517 -1.0368
   18CHL1   C22 1314   3.465   6.039   8.969 -0.7543  0.2950  0.5584
   18CHL1  H22A 1315   3.483   6.148   8.961  3.6188 -0.3087 -0.2067
   18CHL1  H22B 1316   3.569   6.005   8.988 -0.2980  1.2127 -0.1947
   18CHL1   C23 1317   3.402   5.990   8.836  0.1823  0.3453 -0.6139
   18CHL1  H23A 1318   3.416   5.880   8.843 -0.3640  0.3209  0.4038
   18CHL1  H23B 1319   3.293   6.013   8.836  0.1336  0.2389  0.9105
   18CHL1   C24 1320   3.450   6.064   8.708  0.3744 -0.1832 -0.3742
   18CHL1  H24A 1321   3.413   6.168   8.706 -0.3342 -0.3960  0.8593
   18CHL1  H24B 1322   3.561   6.072   8.709  0.3373  0.4666  1.3288
   18CHL1   C25 1323   3.405   5.986   8.580 -0.3201 -0.1018  0.0183
   18CHL1   H25 1324   3.424   5.877   8.587  0.6851  0.1404  1.6061
   18CHL1   C26 1325   3.253   6.005   8.547 -0.7493  0.3183  0.4996
   18CHL1  H26A 1326   3.195   5.947   8.622 -0.9092  1.0557  0.9566
   18CHL1  H26B 1327   3.216   6.108   8.565 -1.5247  0.0937  0.2467
   18CHL1  H26C 1328   3.229   5.966   8.446 -0.2480  2.1635 -0.3784
   18CHL1   C27 1329   3.482   6.039   8.464  0.4053  0.2823  0.1086
   18CHL1  H27A 1330   3.593   6.039   8.474  0.5319 -3.3200 -0.0198
   18CHL1  H27B 1331   3.454   5.984   8.373  1.3695  0.7071 -0.4674
   18CHL1  H27C 1332   3.453   6.145   8.444  2.1268  0.2760 -3.0790
   19CHL1    C3 1333   5.957   1.802  10.290 -0.0460 -0.0304 -0.4876
   19CHL1    H3 1334   5.906   1.703  10.293 -1.2487  0.5951  1.1583
   19CHL1    O3 1335   5.996   1.848  10.420 -0.3800  0.6554 -0.2739
   19CHL1   H3' 1336   6.086   1.880  10.411 -0.5229  1.7085  1.4798
   19CHL1    C4 1337   6.080   1.779  10.206 -0.4764  1.0444 -0.2449
   19CHL1   H4A 1338   6.144   1.869  10.209  0.5811  0.3313 -0.6199
   19CHL1   H4B 1339   6.132   1.692  10.252 -0.7167  0.0504 -1.7405
   19CHL1    C5 1340   6.056   1.748  10.061 -0.4626 -0.3909 -0.0492
   19CHL1    C6 1341   6.101   1.639  10.006  0.8097 -0.1999 -0.3580
   19CHL1    H6 1342   6.160   1.570  10.067 -0.5560  0.8442  2.2811
   19CHL1    C7 1343   6.085   1.601   9.859 -0.1454  0.4345  0.2309
   19CHL1   H7A 1344   6.180   1.566   9.814 -0.1151 -0.9272  1.3019
   19CHL1   H7B 1345   6.022   1.511   9.849  2.1274 -1.1051 -1.1620
   19CHL1    C8 1346   6.028   1.716   9.772  0.2760 -0.3899  0.4728
   19CHL1    H8 1347   6.113   1.784   9.750 -0.2723  0.2682  0.3230
   19CHL1   C14 1348   5.979   1.665   9.632  0.5853  0.1854 -0.4032
   19CHL1   H14 1349   5.907   1.586   9.663  2.1031 -1.0452  0.1407
   19CHL1   C15 1350   6.075   1.576   9.544  0.8477 -0.7141 -0.4237
   19CHL1  H15A 1351   6.172   1.628   9.536  1.1015 -0.8401  1.3274
   19CHL1  H15B 1352   6.085   1.470   9.578  0.0455 -2.0418 -3.8548
   19CHL1   C16 1353   6.005   1.576   9.410  0.9140 -0.0299  0.6310
   19CHL1  H16A 1354   6.075   1.607   9.329  0.2247 -1.8967 -0.7356
   19CHL1  H16B 1355   5.970   1.474   9.383 -0.6248  1.0756 -1.8483
   19CHL1   C17 1356   5.885   1.670   9.425  0.1582 -0.4590  0.1330
   19CHL1   H17 1357   5.797   1.618   9.468 -1.7862  2.3350 -0.1686
   19CHL1   C13 1358   5.913   1.768   9.548 -0.1768  0.5563  0.2898
   19CHL1   C18 1359   6.017   1.866   9.503 -0.6719  0.3615  0.1643
   19CHL1  H18A 1360   6.115   1.821   9.479  0.1888  2.3753 -0.3051
   19CHL1  H18B 1361   5.986   1.928   9.415  0.3898  0.6273 -0.0315
   19CHL1  H18C 1362   6.032   1.941   9.584 -1.5908  0.9492 -0.1907
   19CHL1   C12 1363   5.796   1.827   9.618  0.0214  0.1256 -0.4428
   19CHL1  H12A 1364   5.755   1.905   9.550 -0.5008 -1.1885 -1.7069
   19CHL1  H12B 1365   5.709   1.760   9.635 -2.2580  1.6416 -4.4806
   19CHL1   C11 1366   5.833   1.888   9.765  0.5095  0.6874  0.5963
   19CHL1  H11A 1367   5.895   1.979   9.751 -0.9671  1.8510  1.3131
   19CHL1  H11B 1368   5.743   1.924   9.819  0.5159 -0.7822  1.6677
   19CHL1    C9 1369   5.914   1.785   9.851  0.0587 -0.3147  0.8689
   19CHL1    H9 1370   5.841   1.705   9.875 -0.6366 -0.0209 -0.2201
   19CHL1   C10 1371   5.966   1.848   9.986 -0.1518  0.0536 -0.7325
   19CHL1   C19 1372   6.039   1.986   9.967 -0.0419  0.5986 -0.0551
   19CHL1  H19A 1373   6.105   2.019  10.050  1.5020  0.5275 -1.2105
   19CHL1  H19B 1374   6.106   1.968   9.880 -0.2759 -0.1134 -0.0964
   19CHL1  H19C 1375   5.970   2.069   9.942 -0.3300  0.5276  0.4925
   19CHL1    C1 1376   5.842   1.874  10.084  0.3231 -0.3218  0.1565
   19CHL1   H1A 1377   5.782   1.953  10.034 -1.7384 -3.2693 -2.4346
   19CHL1   H1B 1378   5.777   1.784  10.075 -0.9055  0.5391  0.0760
   19CHL1    C2 1379   5.871   1.908  10.227  0.1437 -0.2970  0.1073
   19CHL1   H2A 1380   5.779   1.918  10.287 -0.4678 -4.3872  0.1672
   19CHL1   H2B 1381   5.932   2.001  10.227  3.2039 -2.1244 -0.9077
   19CHL1   C20 1382   5.838   1.737   9.292 -0.2551  0.0051 -0.4086
   19CHL1   H20 1383   5.784   1.829   9.323  1.5493  1.1800 -0.5769
   19CHL1   C21 1384   5.728   1.639   9.240  0.0146  0.5239  0.9252
   19CHL1  H21A 1385   5.764   1.535   9.223  3.7874  1.4421  2.2675
   19CHL1  H21B 1386   5.694   1.678   9.142  0.2323  1.8646  1.3645
   19CHL1  H21C 1387   5.644   1.659   9.310 -0.1321  1.1474  0.5805
   19CHL1   C22 1388   5.945   1.782   9.189 -0.2412  0.1112  0.5024
   19CHL1  H22A 1389   6.019   1.838   9.250 -0.2858  2.5496 -1.5108
   19CHL1  H22B 1390   5.996   1.690   9.154 -1.0537 -0.3441  0.4940
   19CHL1   C23 1391   5.881   1.860   9.070 -0.8091 -0.3209 -0.0579
   19CHL1  H23A 1392   5.831   1.793   8.997 -1.0630 -2.5948  2.0890
   19CHL1  H23B 1393   5.803   1.924   9.116 -0.2000  0.0692  0.4482
   19CHL1   C24 1394   5.983   1.957   9.002 -0.3218 -0.8420 -0.5556
   19CHL1  H24A 1395   6.036   2.014   9.081  0.0001 -0.4087 -1.0794
   19CHL1  H24B 1396   6.059   1.893   8.953 -0.3664 -0.4378 -1.1645
   19CHL1   C25 1397   5.924   2.068   8.909  0.1609 -0.1854  0.0400
   19CHL1   H25 1398   5.827   2.019   8.886  0.6932 -0.3164 -2.0989
   19CHL1   C26 1399   5.903   2.203   8.970 -0.2081 -0.2436 -0.3087
   19CHL1  H26A 1400   5.849   2.216   9.066  2.3045  0.9576  1.0618
   19CHL1  H26B 1401   6.004   2.235   9.004  0.0554  0.2019 -1.4562
   19CHL1  H26C 1402   5.862   2.262   8.886  1.4531  0.0402 -0.9712
   19CHL1   C27 1403   6.003   2.088   8.774  0.9062 -0.0380  0.4734
   19CHL1  H27A 1404   6.008   1.988   8.725 -1.4279 -0.2714  0.5786
   19CHL1  H27B 1405   5.942   2.150   8.705  1.4773  1.2362  1.0878
   19CHL1  H27C 1406   6.099   2.138   8.797 -0.4742  3.2514 -0.4079
   20CHL1    C3 1407   5.941   2.501  10.309 -0.4704  0.2339 -0.1734
   20CHL1    H3 1408   5.883   2.583  10.260  0.2463  0.5965 -0.4252
   20CHL1    O3 1409   5.892   2.504  10.443 -0.0388 -0.0331 -0.2318
   20CHL1   H3' 1410   5.796   2.508  10.443 -0.0180  0.7112 -1.5294
   20CHL1    C4 1411   5.906   2.373  10.245 -0.0103 -0.5687  0.6035
   20CHL1   H4A 1412   5.967   2.293  10.292 -0.8099 -0.7109  1.4122
   20CHL1   H4B 1413   5.800   2.351  10.268 -0.4553  0.0194 -0.7339
   20CHL1    C5 1414   5.941   2.369  10.098  0.3164 -0.1429  0.0404
   20CHL1    C6 1415   5.845   2.334  10.017  0.1603 -0.1674  0.1051
   20CHL1    H6 1416   5.746   2.297  10.050 -0.2778 -0.3292 -1.3229
   20CHL1    C7 1417   5.861   2.334   9.866 -0.0338 -0.6027 -0.4584
   20CHL1   H7A 1418   5.836   2.232   9.831  0.0990 -1.0067  0.5663
   20CHL1   H7B 1419   5.799   2.407   9.809 -0.1901 -1.0976 -0.9294
   20CHL1    C8 1420   6.007   2.374   9.821  0.0657  0.0761  0.1758
   20CHL1    H8 1421   6.066   2.283   9.839  0.4647  0.2704 -0.1337
   20CHL1   C14 1422   6.015   2.411   9.681 -0.5927  0.3036  0.5826
   20CHL1   H14 1423   5.946   2.497   9.668  0.0086  0.8083  0.6277
   20CHL1   C15 1424   5.961   2.313   9.571 -0.6333  0.0044 -0.0596
   20CHL1  H15A 1425   5.978   2.209   9.603  0.7863  0.4386  0.6612
   20CHL1  H15B 1426   5.852   2.336   9.575 -0.0617  2.9138  1.8544
   20CHL1   C16 1427   6.031   2.341   9.440 -0.4254  0.0140 -0.3559
   20CHL1  H16A 1428   6.095   2.253   9.417  1.4172  1.1005  0.3235
   20CHL1  H16B 1429   5.961   2.364   9.357  1.9156 -0.4511 -2.6043
   20CHL1   C17 1430   6.132   2.462   9.476 -0.5982 -0.3159 -0.1350
   20CHL1   H17 1431   6.079   2.559   9.459  1.7564  1.1879  0.6133
   20CHL1   C13 1432   6.160   2.453   9.628  0.5379 -0.0241 -0.0722
   20CHL1   C18 1433   6.247   2.325   9.651  0.6722  0.0181  0.2361
   20CHL1  H18A 1434   6.262   2.285   9.753 -0.3143  1.8250  1.1445
   20CHL1  H18B 1435   6.224   2.235   9.591  1.6025  0.4081 -0.7292
   20CHL1  H18C 1436   6.355   2.345   9.633  0.8493  0.9319  2.0801
   20CHL1   C12 1437   6.211   2.581   9.707 -0.6576  0.0106  0.2550
   20CHL1  H12A 1438   6.314   2.612   9.679 -1.2282 -0.1945 -2.3553
   20CHL1  H12B 1439   6.144   2.666   9.683 -2.2955 -1.7495 -1.8756
   20CHL1   C11 1440   6.203   2.552   9.860 -0.5688  0.3380 -0.2634
   20CHL1  H11A 1441   6.278   2.477   9.893 -1.1517 -0.8660 -1.5380
   20CHL1  H11B 1442   6.212   2.646   9.919 -1.2799 -0.4577  1.1602
   20CHL1    C9 1443   6.068   2.480   9.906  0.4534  0.2553 -0.6511
   20CHL1    H9 1444   5.998   2.566   9.902  1.8099  1.3620 -1.3297
   20CHL1   C10 1445   6.073   2.431  10.057  0.0413  0.1227 -0.5896
   20CHL1   C19 1446   6.176   2.316  10.068 -0.5551  0.3151 -0.3594
   20CHL1  H19A 1447   6.158   2.235   9.994  1.3593 -0.1819 -0.3490
   20CHL1  H19B 1448   6.282   2.349  10.060 -0.2817  0.0745  1.6040
   20CHL1  H19C 1449   6.175   2.268  10.169  0.3105  0.0319 -0.4730
   20CHL1    C1 1450   6.121   2.551  10.147  0.0237  0.6800 -0.1514
   20CHL1   H1A 1451   6.228   2.573  10.126  0.7382 -2.3053 -0.0127
   20CHL1   H1B 1452   6.054   2.634  10.115 -2.7932 -1.8803 -1.2881
   20CHL1    C2 1453   6.088   2.536  10.297 -0.1080  0.2567 -0.0879
   20CHL1   H2A 1454   6.110   2.637  10.337  0.8037  0.7153 -1.6939
   20CHL1   H2B 1455   6.141   2.453  10.348 -0.7464  0.1294  0.3943
   20CHL1   C20 1456   6.249   2.461   9.372 -0.2293 -0.0517  0.2012
   20CHL1   H20 1457   6.303   2.365   9.387 -0.3573 -0.2519 -0.5874
   20CHL1   C21 1458   6.353   2.577   9.398  0.3435  0.0364  0.3144
   20CHL1  H21A 1459   6.438   2.579   9.327  0.7032  2.2808  0.7202
   20CHL1  H21B 1460   6.395   2.559   9.500 -2.6321 -0.6093  1.5523
   20CHL1  H21C 1461   6.306   2.677   9.396 -0.3859 -0.3192 -1.1192
   20CHL1   C22 1462   6.200   2.472   9.226 -0.0098  0.3333 -0.3512
   20CHL1  H22A 1463   6.126   2.390   9.215 -1.0949  1.2015  0.2919
   20CHL1  H22B 1464   6.169   2.576   9.201  2.2824  1.1274 -0.1652
   20CHL1   C23 1465   6.307   2.450   9.118  0.1504  0.2059  0.1991
   20CHL1  H23A 1466   6.385   2.530   9.120  2.3916 -1.8721  1.2115
   20CHL1  H23B 1467   6.341   2.345   9.133 -0.4181  0.1470  1.1701
   20CHL1   C24 1468   6.245   2.438   8.983  0.8153 -0.1929  0.6382
   20CHL1  H24A 1469   6.188   2.343   8.974  0.1218  0.2361  0.4614
   20CHL1  H24B 1470   6.171   2.521   8.981 -1.6367 -2.2169  1.3043
   20CHL1   C25 1471   6.346   2.450   8.870 -0.3058  0.0874  0.7658
   20CHL1   H25 1472   6.417   2.532   8.894 -1.9372  1.7217  0.2319
   20CHL1   C26 1473   6.423   2.324   8.858  0.0974  0.6671 -0.0242
   20CHL1  H26A 1474   6.506   2.345   8.788 -0.4567 -0.1297 -0.9476
   20CHL1  H26B 1475   6.467   2.288   8.954  0.8598  0.6740 -0.3619
   20CHL1  H26C 1476   6.363   2.236   8.827  0.9274 -0.1656  0.6502
   20CHL1   C27 1477   6.279   2.481   8.740 -0.1982 -0.3822 -0.6041
   20CHL1  H27A 1478   6.252   2.588   8.744 -0.6663 -0.5310  1.3086
   20CHL1  H27B 1479   6.351   2.468   8.657  0.5578  0.1318 -0.0456
   20CHL1  H27C 1480   6.193   2.414   8.717 -0.6812 -0.2948  0.7880
   21CHL1    C3 1481   1.548   5.251  10.310  0.4917  0.8192 -0.7818
   21CHL1    H3 1482   1.628   5.185  10.268 -0.6422 -2.4882  1.8065
   21CHL1    O3 1483   1.555   5.263  10.449  0.2211 -0.0110 -0.2133
   21CHL1   H3' 1484   1.468   5.280  10.486  1.1527  2.1873  1.2172
   21CHL1    C4 1485   1.556   5.397  10.252  0.5426 -0.0291  0.3301
   21CHL1   H4A 1486   1.466   5.456  10.277 -1.8867 -3.0328 -0.7044
   21CHL1   H4B 1487   1.644   5.453  10.290  0.6918 -0.6749  0.9541
   21CHL1    C5 1488   1.560   5.381  10.102  0.1051 -0.7038  0.1457
   21CHL1    C6 1489   1.669   5.415  10.029 -0.3782  0.2068 -0.7318
   21CHL1    H6 1490   1.757   5.464  10.072 -1.3127  1.9057 -0.6500
   21CHL1    C7 1491   1.681   5.405   9.883  0.2463  0.0693  0.0469
   21CHL1   H7A 1492   1.725   5.496   9.837 -1.5857  0.2502 -1.4990
   21CHL1   H7B 1493   1.749   5.319   9.862  0.7710  0.2545  0.9650
   21CHL1    C8 1494   1.541   5.383   9.821 -0.3982 -0.4309  0.0957
   21CHL1    H8 1495   1.485   5.478   9.835 -1.0810 -0.9465  0.9185
   21CHL1   C14 1496   1.551   5.356   9.673  0.4475  0.5602 -0.0882
   21CHL1   H14 1497   1.602   5.258   9.660  0.7059  0.5718  0.7708
   21CHL1   C15 1498   1.631   5.449   9.579  0.0354 -0.2612 -0.6889
   21CHL1  H15A 1499   1.631   5.552   9.620  2.6503 -0.7341  0.7030
   21CHL1  H15B 1500   1.741   5.434   9.575  0.6650  2.7632  1.7740
   21CHL1   C16 1501   1.567   5.430   9.439 -0.2692 -0.5117  0.9451
   21CHL1  H16A 1502   1.544   5.526   9.387 -0.9452 -2.2237 -2.1443
   21CHL1  H16B 1503   1.644   5.380   9.377 -1.5606  1.2483 -2.3436
   21CHL1   C17 1504   1.444   5.336   9.451  0.3958  0.5465 -0.1709
   21CHL1   H17 1505   1.482   5.234   9.427  1.0460  0.7111  0.1345
   21CHL1   C13 1506   1.411   5.341   9.599 -0.3950 -0.1221 -1.0557
   21CHL1   C18 1507   1.326   5.472   9.629 -0.5869  0.3046 -0.2138
   21CHL1  H18A 1508   1.312   5.495   9.737  1.0265 -2.2131  0.6148
   21CHL1  H18B 1509   1.387   5.553   9.583  2.8536 -0.0996  3.1445
   21CHL1  H18C 1510   1.231   5.463   9.573 -0.7559 -2.8565  0.4395
   21CHL1   C12 1511   1.340   5.218   9.665 -0.0329  0.0924  0.3470
   21CHL1  H12A 1512   1.240   5.197   9.621 -0.3806 -0.4502  1.3658
   21CHL1  H12B 1513   1.404   5.130   9.644  1.0609  0.8049  0.6124
   21CHL1   C11 1514   1.321   5.233   9.819  0.3859 -0.0800  0.0039
   21CHL1  H11A 1515   1.236   5.304   9.833 -0.1055 -0.1399 -2.3881
   21CHL1  H11B 1516   1.286   5.135   9.859 -3.6359  1.6448  1.2929
   21CHL1    C9 1517   1.454   5.274   9.890  0.5489  0.2890 -0.3898
   21CHL1    H9 1518   1.510   5.178   9.881 -0.0514  0.1161 -2.8984
   21CHL1   C10 1519   1.440   5.306  10.038  0.4919  0.4769 -0.0369
   21CHL1   C19 1520   1.320   5.406  10.049  0.3652  0.7006  0.0210
   21CHL1  H19A 1521   1.231   5.348  10.014  0.9404  0.7058 -1.4997
   21CHL1  H19B 1522   1.302   5.426  10.157 -2.2467  0.0421 -0.2188
   21CHL1  H19C 1523   1.333   5.507  10.005  1.8327  1.2838  1.6512
   21CHL1    C1 1524   1.402   5.181  10.115 -0.2918 -0.6014 -0.1489
   21CHL1   H1A 1525   1.305   5.140  10.080 -0.4255 -2.7664  2.4160
   21CHL1   H1B 1526   1.474   5.104  10.081  0.1667 -0.8333  1.2665
   21CHL1    C2 1527   1.412   5.191  10.274  0.1577 -0.4397  0.6561
   21CHL1   H2A 1528   1.393   5.089  10.312  1.3772 -1.2883 -0.8894
   21CHL1   H2B 1529   1.337   5.259  10.319  0.7551 -1.2116  2.9157
   21CHL1   C20 1530   1.330   5.359   9.348  0.3431 -0.8530 -0.8456
   21CHL1   H20 1531   1.295   5.464   9.357  2.0798 -0.4081  1.8828
   21CHL1   C21 1532   1.212   5.262   9.375  0.8100  0.4103 -0.3559
   21CHL1  H21A 1533   1.155   5.284   9.469 -0.3222 -3.8466  0.1734
   21CHL1  H21B 1534   1.256   5.161   9.392 -0.9354 -0.7729 -2.3697
   21CHL1  H21C 1535   1.139   5.249   9.293 -0.4549  1.5862  0.5350
   21CHL1   C22 1536   1.370   5.338   9.206  0.0366  0.4784 -0.3249
   21CHL1  H22A 1537   1.475   5.371   9.191 -0.0664  0.6635 -0.6608
   21CHL1  H22B 1538   1.378   5.228   9.207 -0.3468  0.4416 -0.8992
   21CHL1   C23 1539   1.283   5.394   9.096  0.8534  0.3056  0.6951
   21CHL1  H23A 1540   1.174   5.383   9.117  1.1083 -0.3941  1.7290
   21CHL1  H23B 1541   1.282   5.504   9.104 -1.9993  0.5321 -1.2578
   21CHL1   C24 1542   1.312   5.341   8.956 -1.1543  0.2618  1.0710
   21CHL1  H24A 1543   1.306   5.231   8.974 -1.9735  0.5577  2.7644
   21CHL1  H24B 1544   1.242   5.383   8.880 -1.3466  0.6026  1.4291
   21CHL1   C25 1545   1.454   5.369   8.903  0.4926  0.1498  0.7519
   21CHL1   H25 1546   1.530   5.321   8.968  0.7264  0.2673  0.5692
   21CHL1   C26 1547   1.466   5.318   8.755  0.1049 -0.2040 -0.8410
   21CHL1  H26A 1548   1.384   5.367   8.699 -0.3215 -1.6280 -1.5178
   21CHL1  H26B 1549   1.570   5.339   8.720  0.1978  0.5372 -0.1251
   21CHL1  H26C 1550   1.441   5.210   8.763 -0.3751 -0.2682 -2.7316
   21CHL1   C27 1551   1.482   5.518   8.899 -0.2090 -0.3079 -0.0741
   21CHL1  H27A 1552   1.573   5.545   8.841 -1.9289  1.4822 -2.1400
   21CHL1  H27B 1553   1.397   5.568   8.848 -0.9018  0.0182  1.3566
   21CHL1  H27C 1554   1.495   5.553   9.003  0.1895 -1.0925  0.1485
   22CHL1    C3 1555   2.396   0.371   9.983  0.6279  0.0562 -0.1729
   22CHL1    H3 1556   2.446   0.461  10.025 -0.2902 -0.3107  1.8547
   22CHL1    O3 1557   2.368   0.292  10.096  0.0325 -0.1200 -0.2018
   22CHL1   H3' 1558   2.307   0.343  10.150  0.7096  0.8942 -0.3671
   22CHL1    C4 1559   2.266   0.405   9.921 -0.1489  0.5102 -0.6505
   22CHL1   H4A 1560   2.193   0.323   9.900 -2.1145  2.3322 -1.3133
   22CHL1   H4B 1561   2.211   0.459  10.001  0.0055  0.6463 -0.6347
   22CHL1    C5 1562   2.271   0.481   9.792 -0.7797 -0.3557  0.6096
   22CHL1    C6 1563   2.214   0.600   9.779  0.1530 -0.7072  0.1505
   22CHL1    H6 1564   2.159   0.641   9.866  1.5380  0.1146  0.6702
   22CHL1    C7 1565   2.223   0.681   9.654  0.1090 -0.2553  0.4771
   22CHL1   H7A 1566   2.118   0.710   9.633 -0.3092 -1.8198  0.2369
   22CHL1   H7B 1567   2.297   0.764   9.663  0.1935 -0.3513  0.6993
   22CHL1    C8 1568   2.280   0.601   9.533 -0.0071 -0.6645  0.2408
   22CHL1    H8 1569   2.200   0.531   9.500 -0.5276 -1.0935  2.2595
   22CHL1   C14 1570   2.314   0.691   9.416  0.6188  0.4497 -0.6097
   22CHL1   H14 1571   2.397   0.761   9.441 -0.6152  1.7405 -0.0226
   22CHL1   C15 1572   2.200   0.779   9.368 -0.7643  0.2023 -0.6336
   22CHL1  H15A 1573   2.105   0.723   9.379 -1.0886  0.8597 -0.0218
   22CHL1  H15B 1574   2.197   0.876   9.422  0.4599  1.1478 -2.1708
   22CHL1   C16 1575   2.236   0.802   9.218 -0.0494  0.4073 -0.7665
   22CHL1  H16A 1576   2.161   0.761   9.148  0.4820  0.1247 -1.1760
   22CHL1  H16B 1577   2.252   0.912   9.216 -0.1256  0.4125 -1.0927
   22CHL1   C17 1578   2.366   0.726   9.188 -0.0510 -0.1054  0.4839
   22CHL1   H17 1579   2.455   0.782   9.224  1.2167 -0.5532 -1.7429
   22CHL1   C13 1580   2.357   0.610   9.293  0.1452  0.1126  0.5908
   22CHL1   C18 1581   2.247   0.506   9.244  0.1588  0.5179 -0.2535
   22CHL1  H18A 1582   2.227   0.440   9.331  0.1157  0.0665 -0.6018
   22CHL1  H18B 1583   2.148   0.548   9.214 -0.7493 -1.6794 -0.5046
   22CHL1  H18C 1584   2.278   0.452   9.152 -1.6704 -0.7304 -0.1889
   22CHL1   C12 1585   2.482   0.532   9.327  0.2149 -0.4366  0.1673
   22CHL1  H12A 1586   2.513   0.468   9.242  3.5631 -0.3553  1.1877
   22CHL1  H12B 1587   2.563   0.605   9.351 -1.4351  2.0489 -1.4028
   22CHL1   C11 1588   2.467   0.443   9.451 -0.6375 -0.1337  0.1742
   22CHL1  H11A 1589   2.427   0.345   9.416  0.6891 -0.9413  0.7954
   22CHL1  H11B 1590   2.571   0.426   9.488 -0.6346  1.8281  1.1766
   22CHL1    C9 1591   2.397   0.508   9.572  0.6564  0.2136  0.2938
   22CHL1    H9 1592   2.476   0.573   9.617  1.0748 -0.9400  1.2942
   22CHL1   C10 1593   2.363   0.415   9.688  0.6399 -0.0294  0.6000
   22CHL1   C19 1594   2.289   0.288   9.639 -0.3842  0.3893 -0.1825
   22CHL1  H19A 1595   2.245   0.224   9.718  1.2402 -3.2798 -1.9987
   22CHL1  H19B 1596   2.213   0.312   9.562 -0.1391  1.5837 -0.0721
   22CHL1  H19C 1597   2.360   0.215   9.593 -0.1602  1.3727 -1.4429
   22CHL1    C1 1598   2.499   0.366   9.752  0.0474  0.1728 -0.8496
   22CHL1   H1A 1599   2.547   0.295   9.681 -1.2321  0.7444 -2.3418
   22CHL1   H1B 1600   2.555   0.460   9.772  1.0730 -1.0086  2.5440
   22CHL1    C2 1601   2.486   0.294   9.892  0.0536  0.0652 -1.1105
   22CHL1   H2A 1602   2.588   0.290   9.936  0.1399 -0.5752 -1.3532
   22CHL1   H2B 1603   2.440   0.194   9.876 -1.3136 -0.3586  3.9001
   22CHL1   C20 1604   2.395   0.688   9.040  0.3637 -0.2238 -0.3494
   22CHL1   H20 1605   2.328   0.608   9.001 -0.6779  1.7680 -2.9580
   22CHL1   C21 1606   2.541   0.629   9.025  0.2042 -0.1848 -0.5511
   22CHL1  H21A 1607   2.609   0.646   9.111  0.7161 -2.0556 -0.5356
   22CHL1  H21B 1608   2.590   0.646   8.927 -1.3634 -1.2126 -1.5656
   22CHL1  H21C 1609   2.525   0.519   9.035  0.3257 -0.2364 -0.9274
   22CHL1   C22 1610   2.372   0.810   8.955  0.0085  0.3295  0.6516
   22CHL1  H22A 1611   2.407   0.780   8.854  2.8956  0.5905  1.4992
   22CHL1  H22B 1612   2.265   0.836   8.937 -0.0210 -0.3381 -0.2056
   22CHL1   C23 1613   2.463   0.932   8.996 -0.1914  0.1567 -0.4805
   22CHL1  H23A 1614   2.438   0.968   9.098 -2.3361 -1.4133 -0.3987
   22CHL1  H23B 1615   2.569   0.899   9.002 -0.6192 -1.1447  0.2870
   22CHL1   C24 1616   2.462   1.060   8.912  0.2183  0.1765 -0.1524
   22CHL1  H24A 1617   2.359   1.067   8.871  0.0709  0.7649  0.3055
   22CHL1  H24B 1618   2.480   1.152   8.972 -1.3579  0.5914 -0.2944
   22CHL1   C25 1619   2.553   1.055   8.786  0.2168  0.3055  0.6885
   22CHL1   H25 1620   2.621   0.971   8.812  1.1484  1.2157  1.2579
   22CHL1   C26 1621   2.469   1.010   8.660 -0.2131 -0.1893  0.2702
   22CHL1  H26A 1622   2.388   1.076   8.622 -0.9709  0.2444  2.4709
   22CHL1  H26B 1623   2.539   0.991   8.576 -1.3625 -0.6317 -0.6208
   22CHL1  H26C 1624   2.428   0.908   8.677 -0.3858 -0.4088 -1.2978
   22CHL1   C27 1625   2.633   1.187   8.774  0.1877  0.6828  0.2045
   22CHL1  H27A 1626   2.666   1.211   8.877 -0.7054  0.3623  0.5766
   22CHL1  H27B 1627   2.717   1.188   8.701  1.1615  0.9346  1.3086
   22CHL1  H27C 1628   2.563   1.273   8.762  0.0309  0.7202  1.3052
   23CHL1    C3 1629   2.829   0.747  10.111 -0.2491  0.3532  1.0397
   23CHL1    H3 1630   2.827   0.858  10.109 -1.0243  0.3535 -1.3760
   23CHL1    O3 1631   2.805   0.702  10.243  0.4605 -0.0198 -0.4708
   23CHL1   H3' 1632   2.841   0.613  10.249 -1.6088 -0.9948 -1.5388
   23CHL1    C4 1633   2.723   0.677  10.027 -0.0470  0.1813 -0.1545
   23CHL1   H4A 1634   2.731   0.568  10.047 -0.5757  0.4029  1.4759
   23CHL1   H4B 1635   2.618   0.697  10.061 -0.3444 -0.7439 -0.4984
   23CHL1    C5 1636   2.731   0.718   9.878 -0.0468 -0.6218 -0.2312
   23CHL1    C6 1637   2.634   0.782   9.807 -0.2124 -0.2159 -0.3557
   23CHL1    H6 1638   2.543   0.808   9.863 -0.3270 -1.6877  0.2134
   23CHL1    C7 1639   2.645   0.834   9.669 -0.2991 -0.3535  0.1660
   23CHL1   H7A 1640   2.554   0.807   9.612 -0.2812 -1.2199  0.5194
   23CHL1   H7B 1641   2.659   0.944   9.668  1.8048 -0.5645 -0.5735
   23CHL1    C8 1642   2.766   0.766   9.591  0.7925  0.3082  0.1638
   23CHL1    H8 1643   2.722   0.666   9.567 -0.1395  0.6544  0.3705
   23CHL1   C14 1644   2.813   0.852   9.477  0.2759  0.3824  0.1388
   23CHL1   H14 1645   2.861   0.947   9.508 -0.6990  1.0940 -0.4719
   23CHL1   C15 1646   2.706   0.907   9.377  0.2518  0.1365 -0.1368
   23CHL1  H15A 1647   2.657   0.813   9.343 -0.7158  0.5606  0.0520
   23CHL1  H15B 1648   2.629   0.970   9.425 -0.1566 -1.9641  2.1826
   23CHL1   C16 1649   2.790   0.956   9.249  0.1173  0.2283 -0.4779
   23CHL1  H16A 1650   2.741   0.912   9.159 -2.4943  1.0108  0.4758
   23CHL1  H16B 1651   2.790   1.067   9.247  0.0094  0.2249 -0.6567
   23CHL1   C17 1652   2.933   0.905   9.276  0.6452 -0.4037 -0.4443
   23CHL1   H17 1653   2.981   0.995   9.319  2.2106 -1.3895 -0.0502
   23CHL1   C13 1654   2.928   0.791   9.393 -1.0256 -0.8354  0.0410
   23CHL1   C18 1655   2.879   0.668   9.325  0.6386 -0.0075 -0.3436
   23CHL1  H18A 1656   2.840   0.594   9.399  1.6890 -0.5430 -0.3141
   23CHL1  H18B 1657   2.803   0.697   9.250  0.8739 -3.0832 -1.9633
   23CHL1  H18C 1658   2.955   0.623   9.258 -0.1578  0.4747 -1.5989
   23CHL1   C12 1659   3.051   0.782   9.479  0.3025  0.5596 -0.5956
   23CHL1  H12A 1660   3.136   0.729   9.432 -0.1314 -1.6053  0.9031
   23CHL1  H12B 1661   3.084   0.883   9.510  1.4700  0.1483 -0.4473
   23CHL1   C11 1662   3.015   0.704   9.608  0.6820  0.4040 -0.5551
   23CHL1  H11A 1663   2.994   0.600   9.575  1.1054 -0.8982  2.8932
   23CHL1  H11B 1664   3.106   0.698   9.672  0.2689  1.8240  0.2103
   23CHL1    C9 1665   2.885   0.756   9.683  0.1966 -0.7632 -0.5496
   23CHL1    H9 1666   2.913   0.863   9.700  1.4126 -1.3204  1.1859
   23CHL1   C10 1667   2.866   0.686   9.816  0.2320 -0.1595 -0.6348
   23CHL1   C19 1668   2.868   0.528   9.791  0.6268 -0.6591  0.1481
   23CHL1  H19A 1669   2.805   0.514   9.701  1.3237  0.0186 -0.4624
   23CHL1  H19B 1670   2.964   0.487   9.753 -1.2164 -2.3391 -3.0908
   23CHL1  H19C 1671   2.831   0.474   9.881 -1.2012  0.0841 -0.1156
   23CHL1    C1 1672   2.993   0.717   9.911 -0.2928 -0.5201 -0.1016
   23CHL1   H1A 1673   3.081   0.657   9.879  2.5749  3.2710 -0.0509
   23CHL1   H1B 1674   3.026   0.816   9.871  1.1902 -1.2854 -0.8486
   23CHL1    C2 1675   2.972   0.702  10.061 -1.1300 -0.0632 -1.0653
   23CHL1   H2A 1676   3.046   0.770  10.109 -0.9784  0.1403 -1.5791
   23CHL1   H2B 1677   2.987   0.599  10.099 -0.6756  1.0133  1.9491
   23CHL1   C20 1678   3.004   0.873   9.139  0.5592 -0.0355  0.0851
   23CHL1   H20 1679   2.943   0.789   9.099  1.1060  0.8077 -2.8100
   23CHL1   C21 1680   3.148   0.832   9.162  0.2401 -0.8230 -0.3376
   23CHL1  H21A 1681   3.216   0.916   9.189  0.2112  0.1889 -3.0736
   23CHL1  H21B 1682   3.194   0.816   9.062  0.4397  0.8878 -0.5584
   23CHL1  H21C 1683   3.164   0.745   9.230 -1.2171 -1.9689 -1.3966
   23CHL1   C22 1684   2.984   0.990   9.038 -0.2557 -0.4665  0.3560
   23CHL1  H22A 1685   2.875   1.013   9.035 -0.6080 -2.0073  0.3378
   23CHL1  H22B 1686   3.046   1.075   9.072  0.4393 -0.1673 -1.5372
   23CHL1   C23 1687   3.031   0.964   8.890 -0.9061  0.8015 -0.3952
   23CHL1  H23A 1688   3.017   1.058   8.832  0.6642  1.8540  0.8622
   23CHL1  H23B 1689   3.138   0.942   8.873 -1.3723  1.1365 -5.0079
   23CHL1   C24 1690   2.944   0.867   8.817  0.0037  0.2976 -0.3901
   23CHL1  H24A 1691   2.958   0.766   8.861  2.0682  0.7667  0.1291
   23CHL1  H24B 1692   2.836   0.889   8.830 -0.5421 -2.2918 -0.0774
   23CHL1   C25 1693   2.978   0.870   8.667  1.1306 -1.1245 -0.0391
   23CHL1   H25 1694   2.974   0.976   8.634  3.1539 -0.5724  1.3621
   23CHL1   C26 1695   3.113   0.812   8.638  0.6030 -0.1519 -0.7708
   23CHL1  H26A 1696   3.122   0.718   8.696  1.3450 -1.7908 -3.3790
   23CHL1  H26B 1697   3.121   0.780   8.532  0.1222 -0.2887 -0.7719
   23CHL1  H26C 1698   3.206   0.867   8.664  1.7597 -0.7633 -3.3718
   23CHL1   C27 1699   2.870   0.793   8.586 -0.0832  0.4177  0.2863
   23CHL1  H27A 1700   2.772   0.843   8.602  0.6733  0.9865  3.9899
   23CHL1  H27B 1701   2.905   0.798   8.481  1.2548  3.0374  0.7690
   23CHL1  H27C 1702   2.871   0.684   8.608 -1.1600  0.0445 -1.3442
   24CHL1    C3 1703   5.420   2.388  10.103  0.5108  0.9685 -0.4604
   24CHL1    H3 1704   5.519   2.434  10.084 -0.1268  1.4603 -3.0184
   24CHL1    O3 1705   5.364   2.414  10.234  0.0971  0.4794  0.2815
   24CHL1   H3' 1706   5.352   2.327  10.272  1.4757 -0.3369 -1.0262
   24CHL1    C4 1707   5.324   2.444   9.993  0.0695 -0.7619  0.3823
   24CHL1   H4A 1708   5.221   2.406  10.010 -0.2177 -0.3637 -0.4335
   24CHL1   H4B 1709   5.331   2.554  10.004  0.7680 -0.7378 -0.1771
   24CHL1    C5 1710   5.365   2.407   9.851  0.0553 -0.3632 -1.0253
   24CHL1    C6 1711   5.392   2.492   9.755 -0.4287  0.3670 -0.4607
   24CHL1    H6 1712   5.393   2.597   9.785  0.0949  0.7491 -1.7556
   24CHL1    C7 1713   5.425   2.458   9.613  0.1436  0.2096 -0.0690
   24CHL1   H7A 1714   5.364   2.529   9.553  2.0501  0.7553 -1.4519
   24CHL1   H7B 1715   5.528   2.487   9.581 -0.6588  2.3390 -0.9067
   24CHL1    C8 1716   5.380   2.318   9.579 -0.7225  0.6267  0.2520
   24CHL1    H8 1717   5.270   2.324   9.572 -0.6283  1.5760 -0.6436
   24CHL1   C14 1718   5.443   2.282   9.445 -0.4486 -0.3763 -0.2075
   24CHL1   H14 1719   5.554   2.282   9.447 -0.3664 -1.3510 -2.1106
   24CHL1   C15 1720   5.404   2.377   9.327  0.0850 -0.0567  0.3522
   24CHL1  H15A 1721   5.293   2.380   9.327  0.0088 -1.7616 -0.3012
   24CHL1  H15B 1722   5.446   2.476   9.355 -0.6709  0.1195  0.8883
   24CHL1   C16 1723   5.447   2.296   9.207 -0.1973  0.4552  0.1161
   24CHL1  H16A 1724   5.353   2.285   9.149  0.7957 -1.9402 -1.2101
   24CHL1  H16B 1725   5.535   2.333   9.150 -0.7997  0.1321 -1.0434
   24CHL1   C17 1726   5.480   2.155   9.255 -0.0765 -0.2563 -0.5476
   24CHL1   H17 1727   5.590   2.153   9.271  0.1906  2.7455 -1.3365
   24CHL1   C13 1728   5.422   2.143   9.403 -0.0357 -0.2543  0.5135
   24CHL1   C18 1729   5.267   2.113   9.380  0.5174  0.1408  1.0963
   24CHL1  H18A 1730   5.225   2.172   9.296 -0.6458  0.7067  2.0430
   24CHL1  H18B 1731   5.248   2.008   9.350 -1.2421 -0.0810  2.7662
   24CHL1  H18C 1732   5.200   2.154   9.459  0.4270  0.5953  0.7921
   24CHL1   C12 1733   5.485   2.046   9.500 -0.7114  0.2788  0.5353
   24CHL1  H12A 1734   5.462   1.939   9.482  0.4883 -0.9196  4.9756
   24CHL1  H12B 1735   5.596   2.055   9.502 -0.6917  0.1721  0.0004
   24CHL1   C11 1736   5.427   2.074   9.643 -0.0990 -0.4259 -0.5082
   24CHL1  H11A 1737   5.323   2.037   9.627  0.0925 -1.5728  0.7137
   24CHL1  H11B 1738   5.483   2.001   9.706 -1.2583 -1.0505 -0.1708
   24CHL1    C9 1739   5.432   2.223   9.680  0.0250  0.0649  0.2770
   24CHL1    H9 1740   5.542   2.238   9.690  0.0200  0.5039 -0.2475
   24CHL1   C10 1741   5.379   2.257   9.825  1.4357 -0.0803  0.4360
   24CHL1   C19 1742   5.244   2.196   9.838 -0.3911  0.3062 -0.6195
   24CHL1  H19A 1743   5.249   2.085   9.841 -0.0349  0.3386  0.2841
   24CHL1  H19B 1744   5.188   2.228   9.929  1.1147 -1.9555  1.2390
   24CHL1  H19C 1745   5.173   2.219   9.756  0.3041  3.1406 -0.5285
   24CHL1    C1 1746   5.473   2.197   9.936  0.3600 -0.0347 -1.2194
   24CHL1   H1A 1747   5.485   2.087   9.925  0.1248 -0.3653  1.2034
   24CHL1   H1B 1748   5.576   2.233   9.914  0.5576 -1.0680 -2.0529
   24CHL1    C2 1749   5.427   2.235  10.079 -0.3981  0.0073 -0.0780
   24CHL1   H2A 1750   5.497   2.190  10.152  0.7742 -0.8096 -1.6420
   24CHL1   H2B 1751   5.327   2.192  10.103 -0.8598  1.9376  1.7685
   24CHL1   C20 1752   5.454   2.054   9.142  0.4033  0.1190  0.0628
   24CHL1   H20 1753   5.344   2.052   9.122  0.4544  1.7153 -0.5595
   24CHL1   C21 1754   5.497   1.913   9.195  0.0992 -0.5557 -0.3727
   24CHL1  H21A 1755   5.606   1.916   9.216 -0.6676  0.3982  4.8928
   24CHL1  H21B 1756   5.486   1.841   9.111 -0.7304  0.1944 -0.9318
   24CHL1  H21C 1757   5.438   1.876   9.281 -0.7289 -2.9637 -1.8972
   24CHL1   C22 1758   5.525   2.092   9.001  0.5458  0.1256  0.5577
   24CHL1  H22A 1759   5.483   2.182   8.952  0.8897  0.3680  0.7046
   24CHL1  H22B 1760   5.632   2.108   9.027  0.2183  2.8419  0.5122
   24CHL1   C23 1761   5.523   1.983   8.897  0.8073  0.0027  0.2470
   24CHL1  H23A 1762   5.580   1.894   8.931  0.3810  0.5998  2.6532
   24CHL1  H23B 1763   5.423   1.943   8.869  0.6000 -0.1907  1.2251
   24CHL1   C24 1764   5.575   2.041   8.767  0.8659  0.3540  0.2755
   24CHL1  H24A 1765   5.492   2.080   8.703  1.2661 -1.9728 -1.8104
   24CHL1  H24B 1766   5.654   2.119   8.778  1.2329 -0.0070  0.2039
   24CHL1   C25 1767   5.625   1.936   8.665 -0.3031  0.9064 -1.0109
   24CHL1   H25 1768   5.712   1.890   8.717 -1.4748 -0.8039 -0.4810
   24CHL1   C26 1769   5.526   1.822   8.635  0.6613 -0.2070  0.3612
   24CHL1  H26A 1770   5.572   1.758   8.556  2.1902  2.4390 -1.0524
   24CHL1  H26B 1771   5.491   1.760   8.720 -0.4831 -1.7193 -1.1476
   24CHL1  H26C 1772   5.429   1.864   8.603  1.7092  0.0922 -2.7768
   24CHL1   C27 1773   5.673   2.001   8.530  0.0175  0.2077  0.1337
   24CHL1  H27A 1774   5.590   2.065   8.493  0.4172  1.0474  0.6395
   24CHL1  H27B 1775   5.759   2.068   8.553  0.1679  0.5695 -1.3916
   24CHL1  H27C 1776   5.715   1.926   8.460  0.7379 -0.2494  1.0223
   25CHL1    C3 1777   6.620   3.382  10.499  0.0295 -0.0054  0.2773
   25CHL1    H3 1778   6.719   3.340  10.473  0.2852  1.1202 -0.6756
   25CHL1    O3 1779   6.580   3.340  10.624 -0.4438 -0.4118  0.3820
   25CHL1   H3' 1780   6.485   3.327  10.626 -0.3531 -1.0541  1.4320
   25CHL1    C4 1781   6.637   3.539  10.490 -0.8275 -0.0548 -0.0707
   25CHL1   H4A 1782   6.541   3.587  10.521 -0.1334  2.1313 -1.1554
   25CHL1   H4B 1783   6.719   3.567  10.558 -1.2699 -1.2096  0.9916
   25CHL1    C5 1784   6.661   3.582  10.348  0.3405 -0.0229 -0.9817
   25CHL1    C6 1785   6.761   3.667  10.319  0.1777 -0.3084 -0.3696
   25CHL1    H6 1786   6.816   3.705  10.407 -0.6848  0.1116 -0.0057
   25CHL1    C7 1787   6.784   3.724  10.184  0.6136 -0.4442  0.5960
   25CHL1   H7A 1788   6.787   3.835  10.199  1.5107 -0.4560  0.5652
   25CHL1   H7B 1789   6.882   3.693  10.142  1.1532  2.4369 -0.5648
   25CHL1    C8 1790   6.671   3.696  10.078 -0.4832 -0.3004 -0.2868
   25CHL1    H8 1791   6.590   3.769  10.098 -0.3775 -0.5852  1.3861
   25CHL1   C14 1792   6.722   3.716   9.930 -0.0321 -0.1653 -0.0343
   25CHL1   H14 1793   6.795   3.634   9.912 -0.1418  0.5558 -4.9118
   25CHL1   C15 1794   6.807   3.845   9.896  0.5355 -0.8434  0.7206
   25CHL1  H15A 1795   6.766   3.925   9.962  0.7471  1.2995 -1.5689
   25CHL1  H15B 1796   6.916   3.829   9.912  0.7651  0.3803  0.4989
   25CHL1   C16 1797   6.780   3.865   9.751  0.5339  0.4971  0.0921
   25CHL1  H16A 1798   6.712   3.953   9.749  0.9589  0.9447  2.2239
   25CHL1  H16B 1799   6.871   3.891   9.693  1.4306  2.7944  2.3594
   25CHL1   C17 1800   6.691   3.743   9.700  0.0659 -0.0879  0.3433
   25CHL1   H17 1801   6.759   3.659   9.675  0.8944  0.6327  0.1051
   25CHL1   C13 1802   6.615   3.697   9.824  0.1381  0.2800 -0.2609
   25CHL1   C18 1803   6.493   3.788   9.855 -0.0635  0.4392 -0.4123
   25CHL1  H18A 1804   6.522   3.893   9.877  1.9863  0.1163 -1.3316
   25CHL1  H18B 1805   6.416   3.791   9.774  0.7584  1.7930 -1.1874
   25CHL1  H18C 1806   6.440   3.750   9.945  0.4303  1.4407  0.3256
   25CHL1   C12 1807   6.571   3.548   9.829 -0.1141 -0.5651 -0.5911
   25CHL1  H12A 1808   6.501   3.513   9.751  2.4599 -0.0710 -3.2972
   25CHL1  H12B 1809   6.659   3.480   9.820 -0.9839 -2.2079  2.0302
   25CHL1   C11 1810   6.530   3.509   9.974 -0.9864 -0.0597  0.2967
   25CHL1  H11A 1811   6.427   3.551   9.979  0.0008  2.8895 -1.6311
   25CHL1  H11B 1812   6.523   3.399   9.990  1.5793 -0.3356 -0.0206
   25CHL1    C9 1813   6.619   3.555  10.092  0.6085  1.0455  0.4370
   25CHL1    H9 1814   6.705   3.485  10.090  1.5401  2.0840  1.9174
   25CHL1   C10 1815   6.564   3.529  10.239  0.2101  0.9671 -0.7512
   25CHL1   C19 1816   6.424   3.590  10.241 -0.0912 -0.4422 -0.3277
   25CHL1  H19A 1817   6.379   3.581  10.342  1.6432 -2.7861  0.3364
   25CHL1  H19B 1818   6.432   3.699  10.225  0.7333 -0.1226  1.8538
   25CHL1  H19C 1819   6.361   3.539  10.166  0.5470 -0.2202 -1.0278
   25CHL1    C1 1820   6.553   3.377  10.262  0.6554 -0.1079 -0.1381
   25CHL1   H1A 1821   6.476   3.332  10.196  0.0063  0.1998  0.3979
   25CHL1   H1B 1822   6.648   3.323  10.239  0.5807  0.6430 -2.4450
   25CHL1    C2 1823   6.516   3.335  10.401 -0.2914  0.0983 -0.0829
   25CHL1   H2A 1824   6.509   3.224  10.408 -1.2640  0.0241 -1.7314
   25CHL1   H2B 1825   6.422   3.384  10.435  0.5801  0.5072  1.8793
   25CHL1   C20 1826   6.620   3.787   9.572 -0.5855 -0.1650 -0.3416
   25CHL1   H20 1827   6.556   3.873   9.602 -0.8164 -0.6599  0.6286
   25CHL1   C21 1828   6.517   3.679   9.528 -0.1313 -0.4342  0.3457
   25CHL1  H21A 1829   6.432   3.653   9.594  2.3394 -1.1596  3.4780
   25CHL1  H21B 1830   6.570   3.582   9.523  0.8028  0.1038 -0.7627
   25CHL1  H21C 1831   6.481   3.701   9.425 -0.2222 -2.1680 -0.0202
   25CHL1   C22 1832   6.721   3.813   9.457  0.1838  0.3783  0.1439
   25CHL1  H22A 1833   6.821   3.850   9.489 -0.1910  0.9793  0.6515
   25CHL1  H22B 1834   6.742   3.711   9.418 -1.7694  0.3070 -0.8541
   25CHL1   C23 1835   6.662   3.903   9.346 -0.4925  0.0555  0.1572
   25CHL1  H23A 1836   6.571   3.852   9.308  0.5605 -1.4574 -0.4669
   25CHL1  H23B 1837   6.637   4.005   9.381  0.3532  0.9023 -1.6008
   25CHL1   C24 1838   6.755   3.917   9.232 -0.7467 -0.0316 -0.0553
   25CHL1  H24A 1839   6.847   3.942   9.290 -1.3012 -2.5104  2.0912
   25CHL1  H24B 1840   6.753   3.823   9.173 -2.5423  1.4201 -2.4761
   25CHL1   C25 1841   6.733   4.030   9.131  0.3723 -0.6532  0.0874
   25CHL1   H25 1842   6.754   4.127   9.182  0.2926 -1.0486  0.8880
   25CHL1   C26 1843   6.831   4.019   9.012 -0.1160 -0.2490 -0.0237
   25CHL1  H26A 1844   6.818   4.099   8.935 -3.8145 -2.6333 -2.2081
   25CHL1  H26B 1845   6.934   4.009   9.051  1.4410  1.0062 -3.3704
   25CHL1  H26C 1846   6.806   3.935   8.943  1.1491 -0.1031 -0.7056
   25CHL1   C27 1847   6.586   4.033   9.074 -0.1235 -0.1843 -0.5832
   25CHL1  H27A 1848   6.573   4.098   8.985  0.2317 -2.0387 -2.0462
   25CHL1  H27B 1849   6.562   3.928   9.048 -1.5067  0.1218 -0.5986
   25CHL1  H27C 1850   6.517   4.070   9.153 -2.2900  0.0573 -2.4895
   26CHL1    C3 1851   1.918   5.626  10.263 -0.0201  0.3202  0.8458
   26CHL1    H3 1852   1.832   5.564  10.229  2.0112 -2.2426  0.0308
   26CHL1    O3 1853   1.938   5.600  10.392  0.4415  0.0803 -0.1575
   26CHL1   H3' 1854   2.022   5.642  10.409  0.2038  0.6707 -0.4350
   26CHL1    C4 1855   2.044   5.592  10.176  1.2223  0.0355 -0.1857
   26CHL1   H4A 1856   2.122   5.665  10.205  0.7537  1.5298 -2.3876
   26CHL1   H4B 1857   2.063   5.487  10.205  0.0099 -0.4107 -0.8873
   26CHL1    C5 1858   2.017   5.614  10.023  0.1796 -0.5918 -0.3313
   26CHL1    C6 1859   2.039   5.520   9.934  0.4042  0.5505 -0.3817
   26CHL1    H6 1860   2.077   5.422   9.966 -0.2700  0.6877  0.8931
   26CHL1    C7 1861   2.020   5.540   9.789  0.3509  0.0765  0.1986
   26CHL1   H7A 1862   2.103   5.490   9.735 -1.0841 -0.5476 -1.5390
   26CHL1   H7B 1863   1.923   5.498   9.756  1.0516 -0.7241 -0.9079
   26CHL1    C8 1864   2.009   5.692   9.743 -1.2782 -0.5120 -0.6097
   26CHL1    H8 1865   2.112   5.732   9.759  0.2135 -4.1433 -0.0909
   26CHL1   C14 1866   1.949   5.702   9.603  0.8865 -0.1626  0.2613
   26CHL1   H14 1867   1.848   5.660   9.621  1.4752 -0.7757  2.5302
   26CHL1   C15 1868   2.014   5.616   9.488  0.7558 -0.1658  0.4030
   26CHL1  H15A 1869   2.125   5.621   9.494  1.1091 -2.9795 -1.6367
   26CHL1  H15B 1870   1.980   5.510   9.489  0.2838 -0.0596 -1.1930
   26CHL1   C16 1871   1.982   5.693   9.355  0.9230  0.0533 -0.2371
   26CHL1  H16A 1872   2.081   5.694   9.304  1.0690 -2.6794 -0.1599
   26CHL1  H16B 1873   1.907   5.622   9.313  0.1305  0.0127  1.1892
   26CHL1   C17 1874   1.901   5.818   9.410  0.1650 -0.4153  0.3893
   26CHL1   H17 1875   1.794   5.793   9.423  0.4967 -1.1985  1.8343
   26CHL1   C13 1876   1.949   5.841   9.558 -0.5488  0.0240 -0.3789
   26CHL1   C18 1877   2.090   5.907   9.564 -0.6172  0.0437 -0.4079
   26CHL1  H18A 1878   2.095   6.007   9.517 -0.2495  1.0827  1.7352
   26CHL1  H18B 1879   2.129   5.913   9.668 -0.5324 -0.6033 -0.3969
   26CHL1  H18C 1880   2.170   5.843   9.520  0.8857  0.9793  0.8660
   26CHL1   C12 1881   1.854   5.926   9.642  0.5432  0.1266 -0.0097
   26CHL1  H12A 1882   1.867   6.033   9.617  2.5157 -0.2123 -0.6121
   26CHL1  H12B 1883   1.747   5.900   9.631  0.3494  0.9070 -0.0171
   26CHL1   C11 1884   1.897   5.922   9.795 -0.1915 -0.2229  0.1717
   26CHL1  H11A 1885   1.991   5.980   9.807  0.4679 -0.8437 -1.6440
   26CHL1  H11B 1886   1.824   5.977   9.859  0.4953  1.7877 -0.6832
   26CHL1    C9 1887   1.917   5.775   9.842  0.1073 -0.2971 -0.5868
   26CHL1    H9 1888   1.818   5.725   9.834 -0.6088  1.0245 -0.2418
   26CHL1   C10 1889   1.966   5.756   9.990 -0.1569  0.9860  0.5921
   26CHL1   C19 1890   2.097   5.846  10.013  0.1458  0.2540 -0.6063
   26CHL1  H19A 1891   2.128   5.845  10.119 -1.7648  2.8832  0.0768
   26CHL1  H19B 1892   2.181   5.815   9.947  0.7145 -0.2153  0.3146
   26CHL1  H19C 1893   2.075   5.953   9.993 -1.2590 -0.1816 -1.6057
   26CHL1    C1 1894   1.856   5.810  10.093 -0.2527  0.1762 -0.6451
   26CHL1   H1A 1895   1.851   5.921  10.092 -1.3046  0.2583  2.2419
   26CHL1   H1B 1896   1.758   5.769  10.060  0.7747 -1.0650 -2.3180
   26CHL1    C2 1897   1.881   5.776  10.241  0.0385 -0.4811 -0.7039
   26CHL1   H2A 1898   1.788   5.789  10.300  1.4066 -2.1444  2.0919
   26CHL1   H2B 1899   1.962   5.845  10.274 -1.5716  2.0327 -1.8186
   26CHL1   C20 1900   1.893   5.937   9.316 -0.2782 -0.1420  0.1335
   26CHL1   H20 1901   1.983   6.002   9.323 -0.7106  0.4058  0.7667
   26CHL1   C21 1902   1.770   6.026   9.343 -0.4317 -0.1847  0.2456
   26CHL1  H21A 1903   1.681   5.970   9.308  0.6737 -1.0641 -1.2689
   26CHL1  H21B 1904   1.779   6.133   9.313 -1.9982  0.2761  1.2481
   26CHL1  H21C 1905   1.766   6.034   9.454 -2.5319 -1.9785  0.3646
   26CHL1   C22 1906   1.874   5.895   9.165 -0.5223  1.0229 -0.0409
   26CHL1  H22A 1907   1.951   5.823   9.131  0.0050  2.0545 -1.1043
   26CHL1  H22B 1908   1.785   5.829   9.156 -0.1591  0.6073 -0.6498
   26CHL1   C23 1909   1.869   6.010   9.064 -0.3027  0.3301  0.4092
   26CHL1  H23A 1910   1.780   6.075   9.069  0.4634  1.3600  0.9090
   26CHL1  H23B 1911   1.953   6.078   9.089  0.3380 -0.1637 -0.3068
   26CHL1   C24 1912   1.880   5.964   8.917 -0.5201 -0.2825 -0.2507
   26CHL1  H24A 1913   1.987   5.937   8.915 -0.4404 -0.0467  0.4438
   26CHL1  H24B 1914   1.807   5.888   8.882 -1.0640  0.3350 -0.4787
   26CHL1   C25 1915   1.863   6.088   8.830 -0.6566 -0.0528 -0.0180
   26CHL1   H25 1916   1.905   6.165   8.899  2.7169 -0.5194 -1.3409
   26CHL1   C26 1917   1.944   6.093   8.694 -0.1696  0.1023 -0.2379
   26CHL1  H26A 1918   1.906   6.022   8.618 -0.6943  0.7734 -0.6134
   26CHL1  H26B 1919   1.927   6.191   8.646 -2.3038 -0.0616  0.0828
   26CHL1  H26C 1920   2.050   6.075   8.724  0.3184  0.9833 -1.3573
   26CHL1   C27 1921   1.713   6.110   8.804  0.3094 -0.5784 -0.3517
   26CHL1  H27A 1922   1.661   6.045   8.731 -0.7013 -1.5772  1.1844
   26CHL1  H27B 1923   1.649   6.106   8.895  0.8027  0.2691  0.0464
   26CHL1  H27C 1924   1.723   6.212   8.761 -0.8148 -1.1645 -2.1212
   27CHL1    C3 1925   2.188   4.546  10.363  0.1241 -0.0954  0.5808
   27CHL1    H3 1926   2.246   4.641  10.364  1.0924 -0.6781  1.1996
   27CHL1    O3 1927   2.151   4.540  10.500  0.2983 -0.0874 -0.2491
   27CHL1   H3' 1928   2.239   4.537  10.538  0.5675  0.0360 -0.8434
   27CHL1    C4 1929   2.067   4.562  10.271 -0.1154  0.5539  0.5339
   27CHL1   H4A 1930   1.992   4.489  10.306  0.3520 -0.6286 -0.8556
   27CHL1   H4B 1931   2.021   4.662  10.292 -1.4404  0.2068 -0.5771
   27CHL1    C5 1932   2.100   4.547  10.123 -0.4633  0.8187 -0.0467
   27CHL1    C6 1933   2.072   4.642  10.035  0.0319  0.4393 -0.0419
   27CHL1    H6 1934   2.014   4.729  10.067  1.9823  1.6447  0.3500
   27CHL1    C7 1935   2.105   4.633   9.891  0.4767 -0.3735 -0.5043
   27CHL1   H7A 1936   2.021   4.679   9.835 -0.5760 -0.3664  1.0126
   27CHL1   H7B 1937   2.193   4.696   9.868  0.4016 -0.2524 -0.4628
   27CHL1    C8 1938   2.129   4.488   9.841 -0.6448 -0.0281  0.1386
   27CHL1    H8 1939   2.030   4.439   9.838 -2.0379  2.6156 -2.3782
   27CHL1   C14 1940   2.195   4.485   9.702 -0.7741  0.2952  0.2063
   27CHL1   H14 1941   2.297   4.525   9.718 -0.7340 -0.2787  1.4945
   27CHL1   C15 1942   2.144   4.574   9.587  0.4506  0.7064  0.6537
   27CHL1  H15A 1943   2.034   4.580   9.603  0.0851  0.4900 -1.5109
   27CHL1  H15B 1944   2.193   4.673   9.589  1.3649  0.3456 -1.5871
   27CHL1   C16 1945   2.180   4.500   9.462 -0.4051 -0.5194  0.7568
   27CHL1  H16A 1946   2.088   4.469   9.407  1.2697  0.1478 -2.6731
   27CHL1  H16B 1947   2.257   4.552   9.401 -1.1745 -1.0234 -0.6980
   27CHL1   C17 1948   2.264   4.374   9.506  0.8339 -0.5786  0.3849
   27CHL1   H17 1949   2.368   4.403   9.530  0.3992  1.1840  0.2916
   27CHL1   C13 1950   2.204   4.339   9.644  0.8822  0.4263  0.4681
   27CHL1   C18 1951   2.066   4.269   9.617 -0.6446  0.4950  0.4524
   27CHL1  H18A 1952   2.005   4.244   9.706  0.8518 -0.8713  1.1419
   27CHL1  H18B 1953   1.987   4.317   9.554 -2.8254 -2.1349  0.9596
   27CHL1  H18C 1954   2.084   4.174   9.562  0.1219  0.5721  0.5658
   27CHL1   C12 1955   2.301   4.264   9.734  0.1276 -0.6223 -0.3008
   27CHL1  H12A 1956   2.317   4.155   9.721  2.4804 -0.2432 -1.1360
   27CHL1  H12B 1957   2.399   4.317   9.730 -1.1697  2.0520  0.9757
   27CHL1   C11 1958   2.246   4.266   9.878 -0.3801  0.6005  1.0317
   27CHL1  H11A 1959   2.149   4.213   9.883 -0.6450  0.9862  0.1764
   27CHL1  H11B 1960   2.313   4.203   9.941 -1.6798  1.6077  3.5713
   27CHL1    C9 1961   2.218   4.411   9.934 -0.8052 -0.0615 -0.4306
   27CHL1    H9 1962   2.316   4.463   9.937 -0.3190 -0.8350  3.9322
   27CHL1   C10 1963   2.172   4.417  10.085  1.1971 -1.1418 -0.0759
   27CHL1   C19 1964   2.074   4.299  10.115 -0.5219  0.5978 -0.9026
   27CHL1  H19A 1965   2.037   4.292  10.220  3.3615 -0.3452  0.5960
   27CHL1  H19B 1966   1.999   4.303  10.034  0.8323 -0.6941 -2.2853
   27CHL1  H19C 1967   2.139   4.210  10.099 -0.6905  0.1820  0.5762
   27CHL1    C1 1968   2.296   4.407  10.173  0.0870  0.1052 -0.2128
   27CHL1   H1A 1969   2.347   4.309  10.158  1.3076  0.7076 -0.1463
   27CHL1   H1B 1970   2.365   4.492  10.155  1.3717 -1.2064 -1.9180
   27CHL1    C2 1971   2.262   4.417  10.325 -0.3678  0.7290  0.1194
   27CHL1   H2A 1972   2.355   4.409  10.385 -0.0605 -1.6962 -0.5843
   27CHL1   H2B 1973   2.186   4.341  10.351 -1.8022  1.9495 -0.3914
   27CHL1   C20 1974   2.283   4.263   9.405 -0.9471 -0.2748 -0.4391
   27CHL1   H20 1975   2.188   4.213   9.377 -0.3784 -0.0657 -3.0225
   27CHL1   C21 1976   2.379   4.155   9.457 -0.1730 -0.0071 -0.4431
   27CHL1  H21A 1977   2.472   4.199   9.499 -0.5521  1.5945 -1.2151
   27CHL1  H21B 1978   2.412   4.093   9.371  0.9470  0.8030 -0.6268
   27CHL1  H21C 1979   2.331   4.083   9.527  0.1448 -0.4744 -0.7004
   27CHL1   C22 1980   2.333   4.313   9.262  0.3063 -0.2606 -0.0557
   27CHL1  H22A 1981   2.314   4.421   9.246  0.6236 -0.0318  1.0653
   27CHL1  H22B 1982   2.444   4.303   9.254  0.2116 -1.5642  0.0183
   27CHL1   C23 1983   2.286   4.241   9.141  0.4532 -0.6064 -0.8797
   27CHL1  H23A 1984   2.353   4.280   9.061  0.0411 -0.3430 -1.1028
   27CHL1  H23B 1985   2.300   4.131   9.145  0.5192 -0.5588  1.0278
   27CHL1   C24 1986   2.141   4.261   9.098  0.0402 -0.0789  0.0635
   27CHL1  H24A 1987   2.079   4.223   9.183  0.1473  1.4271  0.8498
   27CHL1  H24B 1988   2.121   4.369   9.084 -2.4373 -0.6614 -1.4651
   27CHL1   C25 1989   2.101   4.196   8.966 -0.3116 -0.3851 -0.2180
   27CHL1   H25 1990   2.180   4.226   8.894  0.4358 -1.2716  0.2127
   27CHL1   C26 1991   2.099   4.041   8.988 -0.2762  0.5223 -0.6568
   27CHL1  H26A 1992   2.060   3.989   8.898 -1.4940 -0.4367  0.3934
   27CHL1  H26B 1993   2.200   4.006   9.020 -1.0357  0.2109  1.5848
   27CHL1  H26C 1994   2.029   4.014   9.069  1.6654 -3.5504 -0.1111
   27CHL1   C27 1995   1.966   4.248   8.910  0.4388 -0.4111  0.6270
   27CHL1  H27A 1996   1.958   4.222   8.802  0.3380 -1.5273  0.8878
   27CHL1  H27B 1997   1.883   4.207   8.970 -1.4935 -0.9017 -2.1572
   27CHL1  H27C 1998   1.967   4.358   8.923  2.0995 -0.6741  3.4617
   28CHL1    C3 1999   5.557   2.878  10.245  0.1815  0.3763 -0.2609
   28CHL1    H3 2000   5.507   2.977  10.239 -3.0315 -1.1222 -0.2705
   28CHL1    O3 2001   5.560   2.824  10.378 -0.2750 -0.2042  0.4752
   28CHL1   H3' 2002   5.490   2.870  10.425 -2.0471 -1.1003 -1.1513
   28CHL1    C4 2003   5.480   2.785  10.145 -0.1936  0.6319 -0.6842
   28CHL1   H4A 2004   5.494   2.677  10.167 -0.0215  0.3066 -2.2824
   28CHL1   H4B 2005   5.373   2.804  10.168 -0.2670  0.3003 -0.7496
   28CHL1    C5 2006   5.517   2.818   9.998 -0.0409  0.0168  0.2049
   28CHL1    C6 2007   5.422   2.846   9.906  0.2315  0.4242  0.0692
   28CHL1    H6 2008   5.319   2.838   9.945 -0.0276  0.4772 -0.5945
   28CHL1    C7 2009   5.445   2.862   9.759  0.3480  0.1294  0.6981
   28CHL1   H7A 2010   5.352   2.821   9.716  0.0608 -0.3827  1.7820
   28CHL1   H7B 2011   5.451   2.968   9.726 -0.3704 -0.2348 -0.6477
   28CHL1    C8 2012   5.584   2.797   9.715 -0.5671  0.4470 -0.4511
   28CHL1    H8 2013   5.575   2.686   9.723 -0.7161  0.5922  1.8465
   28CHL1   C14 2014   5.616   2.839   9.573  0.1527  0.6682  0.5936
   28CHL1   H14 2015   5.639   2.947   9.581 -0.4332  0.7040  1.8911
   28CHL1   C15 2016   5.517   2.812   9.454 -0.5024 -0.0903 -0.4044
   28CHL1  H15A 2017   5.477   2.709   9.465 -1.3555  0.4103  1.7658
   28CHL1  H15B 2018   5.422   2.868   9.457  0.4550  1.5687  0.4296
   28CHL1   C16 2019   5.596   2.829   9.327 -0.9038 -0.2321 -0.0171
   28CHL1  H16A 2020   5.588   2.739   9.262  3.3797 -2.5233  2.1890
   28CHL1  H16B 2021   5.563   2.916   9.267 -1.4811  0.4193  1.2109
   28CHL1   C17 2022   5.745   2.839   9.373  0.2400  0.2206 -0.0603
   28CHL1   H17 2023   5.764   2.947   9.392  0.3546  0.5535 -1.9442
   28CHL1   C13 2024   5.750   2.778   9.517  0.2292  0.4395 -0.8499
   28CHL1   C18 2025   5.743   2.624   9.512 -0.2365  0.0275 -0.7241
   28CHL1  H18A 2026   5.834   2.595   9.455  1.1042 -2.3889  2.3356
   28CHL1  H18B 2027   5.755   2.570   9.608  0.9875 -0.7507 -1.2783
   28CHL1  H18C 2028   5.659   2.581   9.453 -2.1705  2.8141 -0.1899
   28CHL1   C12 2029   5.867   2.826   9.615 -0.4521  0.0404 -0.1371
   28CHL1  H12A 2030   5.954   2.764   9.583 -1.3149 -1.6056  0.5684
   28CHL1  H12B 2031   5.880   2.934   9.597  2.3352 -0.3043 -0.7109
   28CHL1   C11 2032   5.836   2.793   9.765 -0.2581 -0.6111 -0.1681
   28CHL1  H11A 2033   5.857   2.684   9.762  1.9404 -0.2718  0.6268
   28CHL1  H11B 2034   5.916   2.839   9.827 -1.4554  2.5320 -0.7876
   28CHL1    C9 2035   5.703   2.840   9.811 -0.1186  0.1776  0.3102
   28CHL1    H9 2036   5.703   2.950   9.797  0.3367 -0.0486 -1.9246
   28CHL1   C10 2037   5.663   2.811   9.957 -0.2593 -0.3869 -0.4194
   28CHL1   C19 2038   5.706   2.665   9.998  0.5156  0.9335  0.5988
   28CHL1  H19A 2039   5.811   2.652   9.964  0.3062 -0.6714  0.5056
   28CHL1  H19B 2040   5.710   2.637  10.106 -0.3650 -1.3613  0.0923
   28CHL1  H19C 2041   5.655   2.582   9.945  0.9406 -0.1191  1.7879
   28CHL1    C1 2042   5.741   2.914  10.047  0.4253  0.5701 -0.3795
   28CHL1   H1A 2043   5.852   2.915  10.041  0.6098 -2.7964  0.2547
   28CHL1   H1B 2044   5.712   3.017  10.019 -0.2475  0.6620  0.6205
   28CHL1    C2 2045   5.707   2.892  10.199  0.6013 -0.3976  0.4242
   28CHL1   H2A 2046   5.756   2.973  10.258 -2.1050  1.7175 -0.0763
   28CHL1   H2B 2047   5.763   2.797  10.213  1.8444 -0.3035 -2.9858
   28CHL1   C20 2048   5.854   2.799   9.270  0.6120 -0.5626  0.1224
   28CHL1   H20 2049   5.850   2.689   9.257  1.0286 -0.9872  3.0700
   28CHL1   C21 2050   5.998   2.840   9.305 -0.6307  0.2037 -0.2880
   28CHL1  H21A 2051   6.010   2.949   9.282 -0.0840  0.5504  1.4730
   28CHL1  H21B 2052   6.069   2.789   9.237 -1.0439  1.2649 -1.5595
   28CHL1  H21C 2053   6.027   2.824   9.411 -0.7666  0.1625 -0.2576
   28CHL1   C22 2054   5.816   2.852   9.126 -0.3623 -0.0827 -0.3019
   28CHL1  H22A 2055   5.720   2.801   9.104  0.0873 -0.8625 -0.5035
   28CHL1  H22B 2056   5.794   2.961   9.124 -0.2185 -0.0220  0.7205
   28CHL1   C23 2057   5.908   2.810   9.005  0.2264 -0.8648 -0.4300
   28CHL1  H23A 2058   6.019   2.819   9.014  0.3112  0.3398 -2.3124
   28CHL1  H23B 2059   5.897   2.700   8.995  0.9913 -0.8136 -2.2636
   28CHL1   C24 2060   5.867   2.870   8.872  0.0446 -0.3302  0.2286
   28CHL1  H24A 2061   5.765   2.830   8.856 -0.5995  1.1914  0.4000
   28CHL1  H24B 2062   5.861   2.980   8.861 -0.7758 -0.6286 -3.6613
   28CHL1   C25 2063   5.967   2.840   8.754  0.3711  0.5356  0.6038
   28CHL1   H25 2064   6.063   2.894   8.766  0.6466 -0.0577  1.1130
   28CHL1   C26 2065   5.996   2.691   8.731  1.2497 -0.2299 -0.1476
   28CHL1  H26A 2066   5.909   2.632   8.697  0.8739  0.2271  0.0169
   28CHL1  H26B 2067   6.066   2.680   8.646 -0.2084  1.5329 -1.6737
   28CHL1  H26C 2068   6.032   2.660   8.831 -2.2747  0.7078  1.5643
   28CHL1   C27 2069   5.895   2.880   8.622 -0.8667  0.5532 -0.1644
   28CHL1  H27A 2070   5.970   2.886   8.540  0.2857  0.5299  0.8561
   28CHL1  H27B 2071   5.825   2.797   8.598  0.8188 -0.6865 -1.0545
   28CHL1  H27C 2072   5.858   2.985   8.625  0.4426  1.1191 -1.8752
   29CHL1    C3 2073   3.543   5.637   6.697  0.3267 -0.3108  0.5601
   29CHL1    H3 2074   3.489   5.540   6.702  2.2324 -1.4503  0.0122
   29CHL1    O3 2075   3.586   5.648   6.563  0.2687 -0.1645 -0.0938
   29CHL1   H3' 2076   3.648   5.721   6.561  0.7179 -0.5168  0.4786
   29CHL1    C4 2077   3.457   5.758   6.740  0.4405  0.1262 -0.1215
   29CHL1   H4A 2078   3.510   5.852   6.711 -1.0273  1.1655  0.4098
   29CHL1   H4B 2079   3.375   5.749   6.665  1.2958  0.8722 -1.1706
   29CHL1    C5 2080   3.414   5.766   6.885  0.0507 -0.0101 -0.0421
   29CHL1    C6 2081   3.290   5.770   6.922  0.2013 -0.2609  0.6807
   29CHL1    H6 2082   3.207   5.784   6.851  1.8190  2.8775 -0.8313
   29CHL1    C7 2083   3.260   5.798   7.064  0.0776  0.8727 -0.2566
   29CHL1   H7A 2084   3.163   5.851   7.065  0.2819  1.2654  1.5976
   29CHL1   H7B 2085   3.232   5.698   7.104  0.9361 -0.0994 -1.9766
   29CHL1    C8 2086   3.372   5.841   7.156  0.1962 -0.5034  0.1272
   29CHL1    H8 2087   3.387   5.950   7.138 -0.9592 -0.2924  0.3462
   29CHL1   C14 2088   3.342   5.824   7.304 -0.3216  0.4167  0.1351
   29CHL1   H14 2089   3.319   5.716   7.319  3.4053 -0.5086  0.2324
   29CHL1   C15 2090   3.216   5.894   7.371  0.3562 -0.3294  0.9511
   29CHL1  H15A 2091   3.205   5.999   7.338 -2.9973 -0.1812  2.1993
   29CHL1  H15B 2092   3.128   5.839   7.330  0.2675  1.6113 -1.7420
   29CHL1   C16 2093   3.239   5.891   7.520 -1.2385  0.3911 -0.3790
   29CHL1  H16A 2094   3.220   5.991   7.566  0.2293 -0.1880  1.6321
   29CHL1  H16B 2095   3.173   5.817   7.569  0.6324 -0.5352  0.8201
   29CHL1   C17 2096   3.387   5.848   7.540  0.1089  0.9798  0.2896
   29CHL1   H17 2097   3.380   5.740   7.568  0.5637  1.3184  1.7960
   29CHL1   C13 2098   3.455   5.855   7.405 -0.5281 -0.3885 -0.5388
   29CHL1   C18 2099   3.503   5.998   7.383 -0.2657 -0.1084  0.2577
   29CHL1  H18A 2100   3.422   6.074   7.393  1.2957  1.7432 -0.3876
   29CHL1  H18B 2101   3.582   6.033   7.453  1.4610 -1.7343 -0.7778
   29CHL1  H18C 2102   3.547   6.010   7.281  0.3515 -0.5655  0.4694
   29CHL1   C12 2103   3.568   5.754   7.373  0.4230 -0.1258  0.0509
   29CHL1  H12A 2104   3.645   5.782   7.448 -0.2024  1.3876  0.1735
   29CHL1  H12B 2105   3.538   5.651   7.402  1.0568 -0.9912 -2.1834
   29CHL1   C11 2106   3.611   5.752   7.224  0.0053  0.1307 -0.2055
   29CHL1  H11A 2107   3.677   5.839   7.206  0.8332 -0.4347  0.0030
   29CHL1  H11B 2108   3.683   5.667   7.218 -0.5470 -0.8393  4.0462
   29CHL1    C9 2109   3.491   5.749   7.125 -0.6172 -1.0463 -0.5702
   29CHL1    H9 2110   3.452   5.646   7.142 -0.0971 -0.8190  2.7854
   29CHL1   C10 2111   3.538   5.749   6.980  0.5234 -0.0017 -0.9621
   29CHL1   C19 2112   3.622   5.882   6.964 -0.3382  0.2413  0.8011
   29CHL1  H19A 2113   3.571   5.969   7.011 -0.5669  0.5496 -0.0072
   29CHL1  H19B 2114   3.719   5.865   7.016 -0.2617 -0.2889  0.4937
   29CHL1  H19C 2115   3.641   5.906   6.857  1.3071  0.4124  1.0926
   29CHL1    C1 2116   3.625   5.627   6.942  0.2589  0.2723 -0.3369
   29CHL1   H1A 2117   3.722   5.635   6.996 -0.4647  1.5256  0.8263
   29CHL1   H1B 2118   3.576   5.532   6.972  1.2399  0.0613  0.6704
   29CHL1    C2 2119   3.660   5.618   6.792  0.0151 -0.4394 -0.1726
   29CHL1   H2A 2120   3.698   5.517   6.765 -1.8898 -0.5626 -2.8553
   29CHL1   H2B 2121   3.747   5.687   6.782 -1.6226  1.5945 -1.0695
   29CHL1   C20 2122   3.453   5.903   7.662  0.1019 -0.0624  0.0163
   29CHL1   H20 2123   3.461   6.013   7.656  0.1252 -0.1143 -1.0286
   29CHL1   C21 2124   3.587   5.832   7.684  0.1460 -0.3751 -0.3631
   29CHL1  H21A 2125   3.668   5.883   7.627  0.8954  0.0457  1.0312
   29CHL1  H21B 2126   3.582   5.726   7.651 -0.6325  0.3311 -2.6859
   29CHL1  H21C 2127   3.620   5.836   7.790 -0.5856  0.7649 -0.1535
   29CHL1   C22 2128   3.367   5.877   7.789  0.8119 -0.9285 -0.1976
   29CHL1  H22A 2129   3.270   5.922   7.761  0.3233 -2.4015 -1.0174
   29CHL1  H22B 2130   3.357   5.767   7.801  0.4513 -1.1848 -2.4524
   29CHL1   C23 2131   3.411   5.942   7.926  0.4105 -0.5957  0.6050
   29CHL1  H23A 2132   3.487   5.879   7.976 -1.4014 -2.1319  1.5321
   29CHL1  H23B 2133   3.451   6.044   7.908  3.2712 -1.3866  1.9429
   29CHL1   C24 2134   3.294   5.944   8.018  0.4947  0.6898 -0.8210
   29CHL1  H24A 2135   3.243   5.846   8.008  0.6932  0.6064 -1.0424
   29CHL1  H24B 2136   3.327   5.955   8.124  0.4215  2.5449 -0.9618
   29CHL1   C25 2137   3.181   6.047   8.005 -0.4874 -0.0354  0.4142
   29CHL1   H25 2138   3.178   6.074   7.897  0.4703 -0.9463  0.1397
   29CHL1   C26 2139   3.049   5.983   8.028 -0.2841  0.1488 -0.3696
   29CHL1  H26A 2140   2.962   6.052   8.024  1.8004  2.9698 -0.5061
   29CHL1  H26B 2141   3.038   5.897   7.958  2.7355  0.3027 -1.1591
   29CHL1  H26C 2142   3.055   5.936   8.128  2.6303 -0.2119 -0.6312
   29CHL1   C27 2143   3.218   6.165   8.085 -0.4060  0.3434 -0.1968
   29CHL1  H27A 2144   3.159   6.256   8.061 -0.2924  0.5606  0.3120
   29CHL1  H27B 2145   3.215   6.140   8.193  0.0222 -2.5060 -0.7654
   29CHL1  H27C 2146   3.324   6.191   8.061  0.2084 -0.6423  1.2884
   30CHL1    C3 2147   3.474   4.318   7.349  0.2036  0.5498  0.0499
   30CHL1    H3 2148   3.559   4.257   7.387  0.0477  0.1507 -0.2292
   30CHL1    O3 2149   3.474   4.276   7.216  0.3689  0.3313 -0.2958
   30CHL1   H3' 2150   3.395   4.309   7.174  0.2669 -0.4696 -0.7660
   30CHL1    C4 2151   3.342   4.278   7.412 -0.6061  0.5366 -0.1206
   30CHL1   H4A 2152   3.262   4.330   7.356 -0.0539 -0.1420 -1.5757
   30CHL1   H4B 2153   3.338   4.169   7.391  1.2659  0.3139  0.4914
   30CHL1    C5 2154   3.348   4.311   7.558 -0.1439  0.3082 -0.0178
   30CHL1    C6 2155   3.330   4.211   7.647 -0.3528  0.0232  0.2134
   30CHL1    H6 2156   3.318   4.106   7.618  0.2361 -0.2439  0.9143
   30CHL1    C7 2157   3.321   4.247   7.793 -0.2834 -0.3742  0.3348
   30CHL1   H7A 2158   3.239   4.197   7.848 -0.6977 -0.9383 -0.7557
   30CHL1   H7B 2159   3.422   4.219   7.831 -0.4477  0.0818  1.1246
   30CHL1    C8 2160   3.297   4.399   7.820 -0.0752 -0.5924 -0.1427
   30CHL1    H8 2161   3.189   4.413   7.796 -0.2715  1.1777  1.5461
   30CHL1   C14 2162   3.319   4.430   7.968 -0.4277  0.3432  0.5129
   30CHL1   H14 2163   3.422   4.390   7.976 -0.7405 -0.8741 -1.0702
   30CHL1   C15 2164   3.233   4.353   8.067 -0.5073 -0.8730 -0.4615
   30CHL1  H15A 2165   3.126   4.368   8.041 -0.1132  1.4471 -0.9572
   30CHL1  H15B 2166   3.263   4.246   8.072  0.8190 -0.4631  0.7481
   30CHL1   C16 2167   3.260   4.413   8.198  0.5245 -0.8464  0.0074
   30CHL1  H16A 2168   3.175   4.457   8.255  2.5067  0.7926  1.8699
   30CHL1  H16B 2169   3.300   4.341   8.272  2.1272  1.6324  1.7213
   30CHL1   C17 2170   3.358   4.528   8.169  0.0248 -0.0528 -0.0654
   30CHL1   H17 2171   3.455   4.476   8.154 -0.4048 -0.7180 -0.6174
   30CHL1   C13 2172   3.315   4.575   8.025 -0.5524  0.3505  0.0121
   30CHL1   C18 2173   3.177   4.641   8.015  0.0230  0.8457 -0.2031
   30CHL1  H18A 2174   3.196   4.750   8.011 -3.0357  1.4596 -0.6071
   30CHL1  H18B 2175   3.126   4.607   7.923  1.5349 -0.9981 -0.4179
   30CHL1  H18C 2176   3.117   4.620   8.107 -0.7734  2.6028 -0.2836
   30CHL1   C12 2177   3.419   4.651   7.938  0.0194 -0.8571  0.2587
   30CHL1  H12A 2178   3.405   4.755   7.973 -1.1522  0.0865 -2.6926
   30CHL1  H12B 2179   3.521   4.624   7.971  0.6368 -0.1419 -1.0147
   30CHL1   C11 2180   3.390   4.632   7.791  0.0975  0.1693  0.1894
   30CHL1  H11A 2181   3.292   4.679   7.770  0.4040  1.2549  1.1175
   30CHL1  H11B 2182   3.466   4.685   7.728  2.1802 -2.1248  0.6093
   30CHL1    C9 2183   3.384   4.484   7.739  0.6162 -0.5464 -0.1649
   30CHL1    H9 2184   3.485   4.443   7.762  1.6969  0.6307 -2.4672
   30CHL1   C10 2185   3.364   4.465   7.585  0.0266 -0.9910 -0.2310
   30CHL1   C19 2186   3.236   4.559   7.545  0.1497  0.0043 -0.3575
   30CHL1  H19A 2187   3.270   4.663   7.560  0.4563 -0.0487 -0.6551
   30CHL1  H19B 2188   3.209   4.534   7.440 -0.5632  0.3114 -0.2458
   30CHL1  H19C 2189   3.156   4.554   7.621  1.6487 -0.4036  1.2541
   30CHL1    C1 2190   3.498   4.509   7.512  0.4331  0.5380 -0.8379
   30CHL1   H1A 2191   3.505   4.619   7.505  0.6625  0.6018  0.2089
   30CHL1   H1B 2192   3.587   4.464   7.561 -0.3934 -0.0934  0.1244
   30CHL1    C2 2193   3.497   4.467   7.366 -0.0033 -0.1027  0.3071
   30CHL1   H2A 2194   3.593   4.508   7.326  0.5089 -0.5148  1.0823
   30CHL1   H2B 2195   3.412   4.516   7.315 -0.6666 -1.1668  0.3639
   30CHL1   C20 2196   3.373   4.638   8.275 -0.0923  0.5206  0.9454
   30CHL1   H20 2197   3.288   4.710   8.268 -2.2808 -2.0815 -2.1386
   30CHL1   C21 2198   3.509   4.709   8.252 -0.1355  0.3091  0.7358
   30CHL1  H21A 2199   3.543   4.768   8.340  1.5607 -1.8814  1.6507
   30CHL1  H21B 2200   3.506   4.770   8.159 -1.2029 -0.3536  0.3239
   30CHL1  H21C 2201   3.587   4.630   8.247 -0.1164  0.2066  2.2554
   30CHL1   C22 2202   3.370   4.588   8.424 -0.2788 -0.2072 -0.0644
   30CHL1  H22A 2203   3.296   4.507   8.440  0.6131 -0.8394  1.0362
   30CHL1  H22B 2204   3.470   4.542   8.440  0.0127  0.8163  1.1852
   30CHL1   C23 2205   3.342   4.693   8.529  0.4145 -0.1107 -0.1864
   30CHL1  H23A 2206   3.424   4.768   8.530 -0.3815  0.7846  0.8677
   30CHL1  H23B 2207   3.247   4.746   8.505 -0.1298 -0.9716  0.0180
   30CHL1   C24 2208   3.325   4.625   8.665  0.1956 -0.4138 -1.0117
   30CHL1  H24A 2209   3.262   4.534   8.654 -1.2969  0.4414  0.1073
   30CHL1  H24B 2210   3.428   4.590   8.688  0.1988  0.5456  0.6022
   30CHL1   C25 2211   3.280   4.714   8.784 -0.3688  0.0549  0.0069
   30CHL1   H25 2212   3.178   4.754   8.765 -0.8789 -0.4842  1.4149
   30CHL1   C26 2213   3.279   4.631   8.913 -0.8279 -0.1481  0.0017
   30CHL1  H26A 2214   3.192   4.562   8.918 -1.5538  0.7957  1.0537
   30CHL1  H26B 2215   3.369   4.566   8.912  0.3533  1.4311  0.1387
   30CHL1  H26C 2216   3.271   4.696   9.003  1.0061 -0.9726  0.8109
   30CHL1   C27 2217   3.369   4.837   8.806  0.0284 -0.8197  0.4164
   30CHL1  H27A 2218   3.477   4.811   8.806  0.6145  1.0086 -3.0500
   30CHL1  H27B 2219   3.356   4.907   8.721 -2.8377 -1.7551 -0.0480
   30CHL1  H27C 2220   3.336   4.895   8.895  0.9910  2.7907 -1.3838
   31CHL1    C3 2221   0.993   0.352   6.749 -0.7262 -0.2096  0.2768
   31CHL1    H3 2222   0.904   0.286   6.754 -0.2764 -1.1283 -2.3365
   31CHL1    O3 2223   1.001   0.386   6.611  0.1868  0.6914  0.4095
   31CHL1   H3' 2224   1.056   0.318   6.571  0.2417  0.9451  0.0498
   31CHL1    C4 2225   0.966   0.479   6.830  0.2406  0.1852  0.4269
   31CHL1   H4A 2226   1.039   0.549   6.784 -0.0230 -1.0566 -2.0624
   31CHL1   H4B 2227   0.862   0.516   6.817  0.4190  0.0280 -1.8977
   31CHL1    C5 2228   0.999   0.471   6.978 -0.0997 -0.5044  0.3742
   31CHL1    C6 2229   0.901   0.506   7.067 -0.3744 -1.2793  0.8841
   31CHL1    H6 2230   0.809   0.552   7.026 -0.5109 -1.7826  0.6184
   31CHL1    C7 2231   0.926   0.494   7.216 -0.4003 -0.1242 -0.2250
   31CHL1   H7A 2232   0.917   0.593   7.264  0.5276  0.5704 -1.4208
   31CHL1   H7B 2233   0.858   0.426   7.272 -0.1872  1.3005  1.8937
   31CHL1    C8 2234   1.066   0.451   7.259 -0.5989  0.0442  0.3289
   31CHL1    H8 2235   1.131   0.539   7.240  0.7147 -1.2995 -1.8910
   31CHL1   C14 2236   1.063   0.396   7.396  1.2722 -0.4142  0.6176
   31CHL1   H14 2237   1.000   0.305   7.395  2.0095 -0.9276 -0.0942
   31CHL1   C15 2238   0.994   0.481   7.505  0.4513  0.4055 -0.6433
   31CHL1  H15A 2239   1.052   0.574   7.488  0.6037 -0.0650 -3.1142
   31CHL1  H15B 2240   0.886   0.507   7.497  0.6297  0.7795 -2.1552
   31CHL1   C16 2241   1.033   0.403   7.640  0.3402  0.1074  0.4112
   31CHL1  H16A 2242   1.059   0.486   7.709 -1.0170  0.3922  0.6029
   31CHL1  H16B 2243   0.947   0.347   7.683 -0.1860  0.4178 -0.2169
   31CHL1   C17 2244   1.148   0.306   7.605 -0.1285  0.0993 -0.3322
   31CHL1   H17 2245   1.107   0.203   7.602  0.3877 -0.0998 -0.6304
   31CHL1   C13 2246   1.199   0.348   7.462 -0.2903 -0.3097 -0.2381
   31CHL1   C18 2247   1.290   0.470   7.460 -0.3410  0.5480 -0.2202
   31CHL1  H18A 2248   1.291   0.511   7.356 -2.5264 -0.5421 -0.7286
   31CHL1  H18B 2249   1.253   0.546   7.532 -0.2407 -1.1961  1.7331
   31CHL1  H18C 2250   1.394   0.445   7.489  0.4265  1.8925 -1.5969
   31CHL1   C12 2251   1.248   0.229   7.362  0.0624 -0.7802  0.2083
   31CHL1  H12A 2252   1.345   0.187   7.397 -1.1739 -1.9700  2.4604
   31CHL1  H12B 2253   1.170   0.149   7.372  0.6920 -2.4748 -5.1180
   31CHL1   C11 2254   1.253   0.279   7.222 -0.0342  0.1003  0.7556
   31CHL1  H11A 2255   1.336   0.352   7.215  1.5015 -1.5937  0.3353
   31CHL1  H11B 2256   1.294   0.195   7.162 -0.3356 -0.2409  1.0151
   31CHL1    C9 2257   1.118   0.339   7.170  0.0575  0.5379  0.4605
   31CHL1    H9 2258   1.042   0.259   7.177  0.5662 -0.0554 -0.4442
   31CHL1   C10 2259   1.121   0.381   7.024  0.2117 -0.3708 -0.4924
   31CHL1   C19 2260   1.246   0.461   6.999  0.5351  0.0887  0.0020
   31CHL1  H19A 2261   1.340   0.401   6.999  0.9972  0.7413  2.0504
   31CHL1  H19B 2262   1.233   0.512   6.901 -1.4410  0.5947  0.4857
   31CHL1  H19C 2263   1.263   0.536   7.079  1.2200  0.6872 -0.6827
   31CHL1    C1 2264   1.120   0.252   6.934 -0.1652 -0.5859 -0.0072
   31CHL1   H1A 2265   1.203   0.186   6.966 -0.1036 -0.5398 -0.0722
   31CHL1   H1B 2266   1.029   0.193   6.959 -1.2076  0.1763 -1.8090
   31CHL1    C2 2267   1.119   0.280   6.787  0.7240  0.9309 -0.0717
   31CHL1   H2A 2268   1.116   0.184   6.730  0.0414 -0.4201  2.0927
   31CHL1   H2B 2269   1.205   0.342   6.754 -0.9444  1.8770 -2.9368
   31CHL1   C20 2270   1.262   0.307   7.713  0.2274 -0.3426  0.3810
   31CHL1   H20 2271   1.307   0.409   7.713  1.1483 -0.7062 -1.5199
   31CHL1   C21 2272   1.375   0.213   7.673  0.8387  0.2936 -0.5203
   31CHL1  H21A 2273   1.332   0.117   7.637  1.5924  0.6677 -2.5493
   31CHL1  H21B 2274   1.452   0.190   7.749  2.1788  2.3364 -1.1742
   31CHL1  H21C 2275   1.432   0.244   7.583 -0.8531  1.4961 -1.2450
   31CHL1   C22 2276   1.204   0.280   7.857  0.0222 -0.0898  0.3798
   31CHL1  H22A 2277   1.125   0.349   7.893 -0.9199 -0.5906 -0.6726
   31CHL1  H22B 2278   1.162   0.177   7.861  0.2145 -0.2278 -0.7525
   31CHL1   C23 2279   1.310   0.277   7.968 -0.3114 -0.4034 -0.1727
   31CHL1  H23A 2280   1.295   0.185   8.028  2.1686 -0.7181  0.0657
   31CHL1  H23B 2281   1.415   0.273   7.931  0.0463  0.7654  0.6698
   31CHL1   C24 2282   1.286   0.391   8.072 -0.5824  0.0969  0.4369
   31CHL1  H24A 2283   1.313   0.487   8.022  2.7140 -1.2013 -0.5753
   31CHL1  H24B 2284   1.178   0.392   8.094 -0.8263 -1.8522 -0.4185
   31CHL1   C25 2285   1.370   0.373   8.207 -0.1046  0.0364  0.0915
   31CHL1   H25 2286   1.335   0.285   8.266 -3.0305  0.4257 -0.9041
   31CHL1   C26 2287   1.518   0.354   8.180  0.5170 -0.0161  0.3025
   31CHL1  H26A 2288   1.537   0.278   8.102  0.0960 -1.1506  1.2823
   31CHL1  H26B 2289   1.553   0.450   8.136 -0.7484  0.2505 -0.1590
   31CHL1  H26C 2290   1.570   0.327   8.274 -0.9168 -1.2308  0.7739
   31CHL1   C27 2291   1.347   0.490   8.304 -0.3448  0.2899 -0.0453
   31CHL1  H27A 2292   1.252   0.478   8.361  0.4801  2.1811  1.8338
   31CHL1  H27B 2293   1.361   0.588   8.254 -0.1321  0.2435 -0.0779
   31CHL1  H27C 2294   1.432   0.486   8.375  1.8245  2.4496 -2.3312
   32CHL1    C3 2295   4.155   4.117   7.165 -0.6407  0.7878 -0.9516
   32CHL1    H3 2296   4.103   4.020   7.183  0.7227  0.0567 -0.7987
   32CHL1    O3 2297   4.200   4.126   7.025  0.3042  0.2033  0.0978
   32CHL1   H3' 2298   4.267   4.057   7.020 -1.5563 -1.6397 -0.6972
   32CHL1    C4 2299   4.056   4.232   7.188 -0.2209 -0.4485 -1.1908
   32CHL1   H4A 2300   4.108   4.325   7.156 -0.1725  0.1939  0.6461
   32CHL1   H4B 2301   3.968   4.231   7.120 -0.8908 -0.5037 -0.3408
   32CHL1    C5 2302   4.012   4.249   7.334  0.6872  0.3109  0.9127
   32CHL1    C6 2303   3.885   4.249   7.364  0.2147 -0.1929 -0.2792
   32CHL1    H6 2304   3.802   4.239   7.293 -0.8985 -0.7806  1.0777
   32CHL1    C7 2305   3.833   4.254   7.503 -0.7163 -0.1726 -0.5799
   32CHL1   H7A 2306   3.756   4.334   7.506 -0.3672  0.1788 -0.7965
   32CHL1   H7B 2307   3.794   4.158   7.542 -1.6225  0.8619  1.1754
   32CHL1    C8 2308   3.937   4.318   7.596 -0.1450  0.4652 -0.0304
   32CHL1    H8 2309   3.941   4.428   7.579 -1.8284  0.9187  2.0916
   32CHL1   C14 2310   3.893   4.314   7.744  0.4196  0.7003  0.0087
   32CHL1   H14 2311   3.879   4.205   7.758  0.1790  0.7477  0.1454
   32CHL1   C15 2312   3.756   4.372   7.794 -0.1790  0.0208  0.2903
   32CHL1  H15A 2313   3.746   4.478   7.763  0.2862  0.6014  2.0332
   32CHL1  H15B 2314   3.670   4.319   7.748 -0.5618 -0.7964  1.8672
   32CHL1   C16 2315   3.761   4.369   7.950  0.0209 -0.4965  0.4555
   32CHL1  H16A 2316   3.712   4.463   7.982  0.7771  0.0276  0.0825
   32CHL1  H16B 2317   3.704   4.284   7.993 -2.8664 -0.5791 -2.9984
   32CHL1   C17 2318   3.915   4.344   7.977  0.5099  0.3041  0.4461
   32CHL1   H17 2319   3.912   4.234   7.992  0.2007  0.3105  0.4414
   32CHL1   C13 2320   3.997   4.365   7.846  0.5464  0.7508  0.4293
   32CHL1   C18 2321   4.016   4.519   7.821  0.3761 -0.0977  0.2651
   32CHL1  H18A 2322   4.063   4.546   7.725 -0.8274  0.0144 -0.3101
   32CHL1  H18B 2323   3.924   4.581   7.838  1.5938  2.1634 -0.8825
   32CHL1  H18C 2324   4.085   4.556   7.900 -0.0140 -0.1229  0.6253
   32CHL1   C12 2325   4.128   4.285   7.833 -1.0385  0.2169  0.5915
   32CHL1  H12A 2326   4.211   4.314   7.901 -0.2820  0.1070 -0.2672
   32CHL1  H12B 2327   4.102   4.178   7.848 -0.8650  0.1160  0.2029
   32CHL1   C11 2328   4.175   4.291   7.689 -0.3340 -0.0391  0.0616
   32CHL1  H11A 2329   4.206   4.396   7.674 -0.1819 -0.1498 -0.4286
   32CHL1  H11B 2330   4.266   4.227   7.679 -0.0833 -0.1411  2.3335
   32CHL1    C9 2331   4.071   4.246   7.589  0.8946  0.4789 -0.2263
   32CHL1    H9 2332   4.046   4.138   7.600 -1.4571  1.0222  0.2084
   32CHL1   C10 2333   4.128   4.250   7.437 -0.5771 -0.6025 -0.2693
   32CHL1   C19 2334   4.228   4.375   7.428  0.4249 -0.1778 -0.3150
   32CHL1  H19A 2335   4.180   4.471   7.455 -0.8884 -0.2817 -2.1002
   32CHL1  H19B 2336   4.323   4.354   7.482  0.2222  0.7807  0.4330
   32CHL1  H19C 2337   4.262   4.381   7.323 -1.2592  3.6618 -0.7770
   32CHL1    C1 2338   4.218   4.125   7.408 -0.2663 -0.7134 -0.5257
   32CHL1   H1A 2339   4.297   4.124   7.487 -2.5388  0.7898  1.9606
   32CHL1   H1B 2340   4.160   4.033   7.430 -1.7607 -0.0079 -1.4116
   32CHL1    C2 2341   4.274   4.125   7.271  0.2711  0.2433 -0.3455
   32CHL1   H2A 2342   4.347   4.041   7.265  0.1879  0.2121 -1.0821
   32CHL1   H2B 2343   4.320   4.219   7.236 -1.6407  0.9753 -1.0231
   32CHL1   C20 2344   3.969   4.407   8.104  0.1213 -0.8168  0.1076
   32CHL1   H20 2345   4.018   4.504   8.080 -0.1530 -0.4209  1.0819
   32CHL1   C21 2346   4.074   4.314   8.158 -0.8061 -0.1013 -0.3199
   32CHL1  H21A 2347   4.134   4.375   8.228  2.9432 -0.1116 -3.1958
   32CHL1  H21B 2348   4.149   4.278   8.084  1.4787  1.8901  0.9165
   32CHL1  H21C 2349   4.023   4.230   8.210 -3.6174  1.6661 -0.0015
   32CHL1   C22 2350   3.854   4.451   8.198 -0.1266  0.2337 -0.2899
   32CHL1  H22A 2351   3.820   4.549   8.158  0.0235 -0.4123 -2.0919
   32CHL1  H22B 2352   3.765   4.385   8.209 -0.9750  1.1066 -1.6034
   32CHL1   C23 2353   3.906   4.495   8.334  0.2414 -0.0894 -0.6887
   32CHL1  H23A 2354   3.941   4.410   8.396 -2.1161  0.8496  2.2002
   32CHL1  H23B 2355   3.987   4.569   8.321  0.7044 -0.6169 -0.8464
   32CHL1   C24 2356   3.793   4.568   8.423 -0.0439  0.5739 -0.6161
   32CHL1  H24A 2357   3.776   4.665   8.373 -0.5395  0.8469  0.0664
   32CHL1  H24B 2358   3.695   4.516   8.427 -0.0062  0.5710  0.8133
   32CHL1   C25 2359   3.836   4.592   8.571 -0.5230 -0.5365 -0.0999
   32CHL1   H25 2360   3.937   4.638   8.574 -0.8953  0.3660 -1.0207
   32CHL1   C26 2361   3.744   4.689   8.647  0.5681  0.1309  0.6714
   32CHL1  H26A 2362   3.796   4.722   8.739 -0.1779 -1.3133  1.6423
   32CHL1  H26B 2363   3.707   4.775   8.587 -0.7660 -0.2560  0.9148
   32CHL1  H26C 2364   3.654   4.635   8.682  0.2548 -0.5065 -1.0003
   32CHL1   C27 2365   3.852   4.460   8.646 -0.4734  0.0817  0.3951
   32CHL1  H27A 2366   3.763   4.394   8.649 -1.1402  0.8600 -1.2607
   32CHL1  H27B 2367   3.933   4.398   8.604 -0.9886 -0.7212  0.5781
   32CHL1  H27C 2368   3.873   4.490   8.752 -0.3575  0.9278  0.1441
   33CHL1    C3 2369   3.222   5.416   6.853 -0.3746  0.6711  0.1028
   33CHL1    H3 2370   3.291   5.502   6.861  0.0794  0.1898  1.9198
   33CHL1    O3 2371   3.238   5.374   6.721  0.0932 -0.5511 -0.5410
   33CHL1   H3' 2372   3.183   5.297   6.706 -0.2383 -0.0304 -2.1492
   33CHL1    C4 2373   3.282   5.303   6.939  0.2522 -0.1061 -0.8036
   33CHL1   H4A 2374   3.216   5.215   6.926 -1.4718  1.1619 -0.8678
   33CHL1   H4B 2375   3.388   5.278   6.916 -0.4991 -2.6572 -1.8266
   33CHL1    C5 2376   3.283   5.340   7.089 -0.1972 -1.2416  0.2584
   33CHL1    C6 2377   3.397   5.373   7.162  0.3391  0.3964  0.0288
   33CHL1    H6 2378   3.498   5.370   7.119  0.1153  2.4023 -0.7808
   33CHL1    C7 2379   3.391   5.397   7.312  0.4135 -0.1035  0.2330
   33CHL1   H7A 2380   3.467   5.338   7.368  0.2198 -2.0845 -1.4708
   33CHL1   H7B 2381   3.426   5.500   7.332  4.2467 -1.2928  0.3967
   33CHL1    C8 2382   3.249   5.378   7.365  0.1741 -0.0826 -0.4920
   33CHL1    H8 2383   3.240   5.269   7.386 -0.2568 -0.2757 -1.5683
   33CHL1   C14 2384   3.245   5.455   7.496 -0.8113 -0.1849  0.6693
   33CHL1   H14 2385   3.238   5.558   7.455 -2.3004 -0.5082  0.0493
   33CHL1   C15 2386   3.364   5.449   7.591 -0.0760 -0.2473 -0.4061
   33CHL1  H15A 2387   3.406   5.346   7.595 -0.5868 -0.4912 -1.0550
   33CHL1  H15B 2388   3.441   5.516   7.549 -1.3193  0.5398 -1.5109
   33CHL1   C16 2389   3.299   5.487   7.726 -0.1942  0.1876  0.3848
   33CHL1  H16A 2390   3.288   5.391   7.781  1.8087 -0.3346 -0.0183
   33CHL1  H16B 2391   3.352   5.566   7.784 -0.2012  0.7273 -0.3414
   33CHL1   C17 2392   3.148   5.515   7.702 -0.8501  1.2143 -0.6336
   33CHL1   H17 2393   3.138   5.623   7.677  0.7835  0.7411 -3.9210
   33CHL1   C13 2394   3.118   5.439   7.576 -0.1670  0.2072 -0.0249
   33CHL1   C18 2395   3.084   5.288   7.617  0.2357  0.3180 -0.0359
   33CHL1  H18A 2396   3.148   5.240   7.694  0.4535  1.2879  0.4150
   33CHL1  H18B 2397   2.981   5.284   7.658  0.6172 -2.5000  0.8566
   33CHL1  H18C 2398   3.095   5.225   7.527 -0.9653  0.7452 -0.5045
   33CHL1   C12 2399   3.010   5.491   7.484  0.4310 -0.0856  0.3381
   33CHL1  H12A 2400   2.908   5.477   7.526  0.7264 -2.2794  0.4303
   33CHL1  H12B 2401   3.025   5.601   7.472 -0.7128 -0.1122 -1.5509
   33CHL1   C11 2402   2.998   5.424   7.350 -0.7216 -0.3208  0.9329
   33CHL1  H11A 2403   2.959   5.323   7.375  0.5035 -0.8421  0.8103
   33CHL1  H11B 2404   2.922   5.476   7.288 -2.0619 -1.4226  1.5917
   33CHL1    C9 2405   3.142   5.431   7.280 -0.0071  0.3029 -0.1436
   33CHL1    H9 2406   3.164   5.538   7.261  0.9104  0.0138 -0.7914
   33CHL1   C10 2407   3.138   5.367   7.135 -0.4000  0.5581 -0.1030
   33CHL1   C19 2408   3.055   5.235   7.143 -0.1130  0.1177 -0.4849
   33CHL1  H19A 2409   2.947   5.256   7.159  0.3227  0.9996  1.5478
   33CHL1  H19B 2410   3.050   5.183   7.045 -0.1499  0.2731 -0.5675
   33CHL1  H19C 2411   3.097   5.170   7.222 -0.2236  0.9963  0.3107
   33CHL1    C1 2412   3.064   5.456   7.041  0.0769  0.9111  0.0015
   33CHL1   H1A 2413   2.960   5.461   7.080  0.5372  2.0341  1.1788
   33CHL1   H1B 2414   3.097   5.561   7.056 -2.7030  1.6315  1.8573
   33CHL1    C2 2415   3.070   5.435   6.888 -0.5232 -0.1343 -0.0585
   33CHL1   H2A 2416   3.024   5.520   6.834 -0.4860 -0.7783 -1.1351
   33CHL1   H2B 2417   3.022   5.338   6.864  0.7788 -0.4106 -1.7468
   33CHL1   C20 2418   3.068   5.480   7.830  0.4096  0.0403  0.2174
   33CHL1   H20 2419   3.060   5.373   7.856 -2.1476  0.4861  1.6416
   33CHL1   C21 2420   2.924   5.530   7.796 -0.0758  0.7681  0.1189
   33CHL1  H21A 2421   2.854   5.454   7.753 -0.4274  2.0032 -1.5992
   33CHL1  H21B 2422   2.934   5.620   7.732  1.9374 -0.8886 -2.0504
   33CHL1  H21C 2423   2.871   5.565   7.887  0.4814 -0.8350  1.1118
   33CHL1   C22 2424   3.118   5.556   7.955 -0.3576  0.0699 -0.1486
   33CHL1  H22A 2425   3.218   5.523   7.989 -0.9733  0.2005  1.9369
   33CHL1  H22B 2426   3.117   5.666   7.940 -3.1541  0.1857  0.3179
   33CHL1   C23 2427   3.045   5.524   8.088 -0.3871  0.3167 -0.5031
   33CHL1  H23A 2428   2.935   5.540   8.086 -0.1365  3.3300  2.0260
   33CHL1  H23B 2429   3.054   5.416   8.113  2.6335  0.9200  1.6702
   33CHL1   C24 2430   3.113   5.601   8.203  0.2171 -0.1622  0.1668
   33CHL1  H24A 2431   3.223   5.585   8.207  0.2106 -0.2093  0.1513
   33CHL1  H24B 2432   3.088   5.709   8.195  0.7299  0.1319  2.0759
   33CHL1   C25 2433   3.050   5.559   8.339 -0.5878  0.3065 -0.0562
   33CHL1   H25 2434   3.034   5.449   8.332  0.3345  0.2772 -2.1697
   33CHL1   C26 2435   3.145   5.591   8.456  0.0622  0.9201 -0.2346
   33CHL1  H26A 2436   3.155   5.701   8.463  1.2280  0.8220 -0.2561
   33CHL1  H26B 2437   3.103   5.540   8.546  1.7879  1.2486  0.8114
   33CHL1  H26C 2438   3.240   5.536   8.445  0.3098  1.2526  0.2138
   33CHL1   C27 2439   2.904   5.618   8.352 -1.0881 -0.0634  0.0713
   33CHL1  H27A 2440   2.844   5.581   8.438 -1.0739  1.0854  0.5909
   33CHL1  H27B 2441   2.907   5.729   8.359  0.4132 -0.1508  1.4590
   33CHL1  H27C 2442   2.858   5.585   8.257 -0.9617  0.2685 -0.1096
   34CHL1    C3 2443   3.498   1.286   7.247 -0.6202 -0.1806  0.8037
   34CHL1    H3 2444   3.391   1.314   7.254 -0.8636 -0.9459  0.2065
   34CHL1    O3 2445   3.522   1.297   7.106  0.1735  0.0543 -0.3834
   34CHL1   H3' 2446   3.613   1.270   7.092  0.5471  0.8992  0.3134
   34CHL1    C4 2447   3.584   1.383   7.328 -0.5101  0.3776 -0.9607
   34CHL1   H4A 2448   3.689   1.374   7.295 -0.5328  1.2130 -1.2940
   34CHL1   H4B 2449   3.548   1.484   7.298 -1.9183 -0.3840 -1.9561
   34CHL1    C5 2450   3.571   1.343   7.474  0.2253 -0.0540 -1.1832
   34CHL1    C6 2451   3.543   1.438   7.565 -0.2242  0.4645 -0.0707
   34CHL1    H6 2452   3.517   1.541   7.536 -2.7456 -0.4758 -1.4550
   34CHL1    C7 2453   3.540   1.416   7.715  0.1165  0.5465  0.5928
   34CHL1   H7A 2454   3.579   1.506   7.768  0.2445  0.7589  0.1485
   34CHL1   H7B 2455   3.435   1.399   7.746  0.1285  0.9931  0.9000
   34CHL1    C8 2456   3.614   1.284   7.747  0.3360  0.3791 -1.0824
   34CHL1    H8 2457   3.724   1.287   7.736  0.6080 -2.7719 -0.1974
   34CHL1   C14 2458   3.582   1.245   7.894  0.0062 -0.2442  0.4502
   34CHL1   H14 2459   3.473   1.223   7.891 -0.0653  0.2200 -1.8267
   34CHL1   C15 2460   3.598   1.364   7.998  0.1881 -0.0168 -0.1045
   34CHL1  H15A 2461   3.696   1.411   7.977  1.1095 -1.3451  1.0262
   34CHL1  H15B 2462   3.515   1.438   7.993 -0.4837 -0.8427 -2.6695
   34CHL1   C16 2463   3.604   1.288   8.129 -0.4439  0.7194 -0.0733
   34CHL1  H16A 2464   3.695   1.305   8.191  0.2892 -2.1003 -0.2595
   34CHL1  H16B 2465   3.515   1.308   8.193 -1.7627 -1.3724 -1.1567
   34CHL1   C17 2466   3.591   1.136   8.094 -0.5272 -0.8096 -0.1616
   34CHL1   H17 2467   3.481   1.125   8.081 -0.6239 -0.1790  0.1184
   34CHL1   C13 2468   3.655   1.124   7.949  0.2170 -0.0474  0.6074
   34CHL1   C18 2469   3.802   1.147   7.951  0.1496 -0.5736 -0.1050
   34CHL1  H18A 2470   3.858   1.071   8.009  1.8932  1.2230  0.6661
   34CHL1  H18B 2471   3.837   1.143   7.846  0.1322 -0.7936 -0.1017
   34CHL1  H18C 2472   3.831   1.245   7.995 -0.1462 -0.5061 -0.0591
   34CHL1   C12 2473   3.615   1.003   7.860  0.6308 -0.0626  0.2652
   34CHL1  H12A 2474   3.667   0.912   7.897 -1.5952 -1.1261  0.9289
   34CHL1  H12B 2475   3.508   0.982   7.882  0.9379  0.1344  2.1407
   34CHL1   C11 2476   3.636   1.037   7.710 -0.2592  0.6455 -0.2975
   34CHL1  H11A 2477   3.747   1.032   7.706 -0.2023 -3.0319  1.4499
   34CHL1  H11B 2478   3.591   0.948   7.661 -0.7418  0.5336  0.3385
   34CHL1    C9 2479   3.572   1.170   7.662 -0.4583 -0.4560  0.6256
   34CHL1    H9 2480   3.462   1.154   7.666 -0.7580  1.5328  1.7674
   34CHL1   C10 2481   3.600   1.200   7.514  0.2122  0.2259 -0.3241
   34CHL1   C19 2482   3.755   1.173   7.481 -0.0331  0.4353  0.7163
   34CHL1  H19A 2483   3.778   1.209   7.378 -1.1151 -2.7163 -0.7561
   34CHL1  H19B 2484   3.811   1.231   7.558 -1.0474  1.2835  0.8419
   34CHL1  H19C 2485   3.782   1.066   7.490  2.2037  1.1178  3.3874
   34CHL1    C1 2486   3.507   1.114   7.432  0.4532  0.6454  0.1552
   34CHL1   H1A 2487   3.523   1.009   7.466  0.8289  0.9802  1.0437
   34CHL1   H1B 2488   3.407   1.137   7.472  0.1450 -0.7477  0.2502
   34CHL1    C2 2489   3.511   1.133   7.279 -0.1158 -0.7980 -0.2203
   34CHL1   H2A 2490   3.424   1.086   7.229  0.0762  0.2865 -1.6443
   34CHL1   H2B 2491   3.605   1.083   7.248 -1.6560 -3.6317 -0.5618
   34CHL1   C20 2492   3.624   1.024   8.196  0.1070 -0.5032  0.5858
   34CHL1   H20 2493   3.618   0.928   8.140  0.1459 -0.4162  0.4333
   34CHL1   C21 2494   3.507   1.033   8.304 -0.6177 -0.0886  0.9084
   34CHL1  H21A 2495   3.515   1.131   8.356  2.3548 -0.0933  0.6430
   34CHL1  H21B 2496   3.534   0.967   8.389  2.9579 -1.8985 -1.3919
   34CHL1  H21C 2497   3.403   1.017   8.269 -0.0948 -0.0801 -0.7373
   34CHL1   C22 2498   3.758   1.034   8.273  0.4140 -0.3486  0.5654
   34CHL1  H22A 2499   3.847   1.047   8.208  1.6636 -1.1845  2.0327
   34CHL1  H22B 2500   3.752   1.127   8.334  0.3357 -0.0740  0.1453
   34CHL1   C23 2501   3.781   0.905   8.357 -0.6298  0.2160 -0.5813
   34CHL1  H23A 2502   3.877   0.916   8.413 -0.1016  0.6153 -1.5456
   34CHL1  H23B 2503   3.711   0.894   8.442  0.0986 -0.7792 -0.0952
   34CHL1   C24 2504   3.802   0.772   8.287  0.2528 -0.6978  0.3392
   34CHL1  H24A 2505   3.717   0.743   8.221  1.1183 -0.6384 -0.8324
   34CHL1  H24B 2506   3.884   0.789   8.214 -1.8990 -0.8754 -2.2765
   34CHL1   C25 2507   3.846   0.654   8.371  0.0076 -0.5533 -0.1674
   34CHL1   H25 2508   3.940   0.668   8.428  0.4888 -1.5599 -0.6837
   34CHL1   C26 2509   3.731   0.625   8.477  0.1333  0.4044 -0.4710
   34CHL1  H26A 2510   3.716   0.700   8.557 -1.0608  0.4933 -0.7522
   34CHL1  H26B 2511   3.632   0.611   8.428 -0.6093 -0.4432  1.1719
   34CHL1  H26C 2512   3.759   0.537   8.539 -0.4150  1.5937  1.5488
   34CHL1   C27 2513   3.871   0.537   8.282  0.5437  0.1600  1.0413
   34CHL1  H27A 2514   3.777   0.479   8.270 -1.0564  2.5185  1.5307
   34CHL1  H27B 2515   3.915   0.548   8.181 -1.7999 -0.4123 -0.1119
   34CHL1  H27C 2516   3.930   0.456   8.330  4.2562  1.4645 -0.8981
   35CHL1    C3 2517   1.854   4.243   7.120  0.4256 -0.2242 -0.4359
   35CHL1    H3 2518   1.752   4.200   7.122  0.3095  0.0623 -0.1538
   35CHL1    O3 2519   1.905   4.241   6.990 -0.5403 -0.1774 -0.2801
   35CHL1   H3' 2520   1.902   4.335   6.971 -2.7956 -0.4520 -1.7793
   35CHL1    C4 2521   1.837   4.383   7.179  0.5507 -0.1826  0.9174
   35CHL1   H4A 2522   1.929   4.432   7.142  0.0877 -2.1851 -3.5565
   35CHL1   H4B 2523   1.763   4.444   7.123  0.1076 -1.1542  0.4327
   35CHL1    C5 2524   1.803   4.392   7.323  0.5606 -0.9696 -0.0292
   35CHL1    C6 2525   1.696   4.469   7.366  0.2536  0.2816 -0.1343
   35CHL1    H6 2526   1.643   4.533   7.295 -1.1888 -1.0630 -0.3255
   35CHL1    C7 2527   1.660   4.469   7.512  0.2374  0.0624 -0.2643
   35CHL1   H7A 2528   1.633   4.572   7.543 -1.1903 -0.6726  1.0663
   35CHL1   H7B 2529   1.569   4.408   7.531  1.5186 -2.3203 -1.3306
   35CHL1    C8 2530   1.764   4.411   7.609  0.4986 -0.0031 -0.0123
   35CHL1    H8 2531   1.844   4.488   7.613 -1.2330  1.9810 -1.2532
   35CHL1   C14 2532   1.701   4.388   7.746  0.2399 -0.4583  0.0684
   35CHL1   H14 2533   1.620   4.313   7.735 -1.6198  1.6883 -1.9805
   35CHL1   C15 2534   1.617   4.513   7.801 -0.2533  0.2426  0.0085
   35CHL1  H15A 2535   1.667   4.611   7.786 -0.7813  0.2986 -1.6909
   35CHL1  H15B 2536   1.524   4.507   7.741 -1.3716 -1.2210  1.7878
   35CHL1   C16 2537   1.601   4.476   7.947 -0.0819  1.3404 -0.0955
   35CHL1  H16A 2538   1.655   4.561   7.994  0.0310  2.3790 -2.0016
   35CHL1  H16B 2539   1.493   4.475   7.973  0.0957  1.5367  0.6931
   35CHL1   C17 2540   1.685   4.343   7.975  0.3062  0.2900 -0.2594
   35CHL1   H17 2541   1.623   4.252   7.965 -0.5439  0.8927 -0.5187
   35CHL1   C13 2542   1.791   4.341   7.856  0.4120  0.5624  0.1222
   35CHL1   C18 2543   1.904   4.448   7.870  0.0317  0.5316  0.3874
   35CHL1  H18A 2544   1.973   4.442   7.783 -1.9860  1.0966 -1.3219
   35CHL1  H18B 2545   1.862   4.550   7.882  2.6465  1.5967  1.1667
   35CHL1  H18C 2546   1.969   4.430   7.959  0.6068 -0.3667 -0.1996
   35CHL1   C12 2547   1.852   4.201   7.808  0.2385  0.9039 -0.1625
   35CHL1  H12A 2548   1.921   4.155   7.882  1.4554  2.3927 -0.3305
   35CHL1  H12B 2549   1.764   4.133   7.816  2.0770 -1.6435 -0.2363
   35CHL1   C11 2550   1.908   4.202   7.666  1.0339 -0.4122 -0.2527
   35CHL1  H11A 2551   2.009   4.248   7.674  1.2208 -0.9434  0.5160
   35CHL1  H11B 2552   1.910   4.096   7.632 -0.1115 -1.2906  2.2141
   35CHL1    C9 2553   1.815   4.283   7.561 -0.4485  0.0711 -0.4555
   35CHL1    H9 2554   1.721   4.227   7.547  0.4592 -2.4842  2.4848
   35CHL1   C10 2555   1.877   4.297   7.419  0.8196 -0.4327 -0.2870
   35CHL1   C19 2556   2.016   4.362   7.435 -0.0877 -0.1497 -0.3599
   35CHL1  H19A 2557   2.092   4.289   7.473 -1.6311 -2.3730 -1.2963
   35CHL1  H19B 2558   2.061   4.396   7.340  3.3290 -2.1317  0.3532
   35CHL1  H19C 2559   2.018   4.451   7.501 -0.4279 -0.7865  0.5439
   35CHL1    C1 2560   1.886   4.161   7.351 -0.3052 -0.3348 -0.3491
   35CHL1   H1A 2561   1.953   4.100   7.414 -1.8076 -0.1633  1.4944
   35CHL1   H1B 2562   1.787   4.112   7.366 -0.7193  0.5314 -0.1330
   35CHL1    C2 2563   1.942   4.156   7.209 -0.1023  0.0984  1.0399
   35CHL1   H2A 2564   1.949   4.053   7.170 -0.5232  0.6337 -0.5269
   35CHL1   H2B 2565   2.043   4.202   7.205 -0.5452  1.0275 -0.0801
   35CHL1   C20 2566   1.745   4.345   8.121  0.5966  0.1797 -0.5123
   35CHL1   H20 2567   1.820   4.425   8.139  1.8760 -1.6279  3.2233
   35CHL1   C21 2568   1.836   4.220   8.156 -0.4086 -0.1161 -0.3539
   35CHL1  H21A 2569   1.778   4.133   8.119 -1.4758  0.8211 -0.9563
   35CHL1  H21B 2570   1.855   4.205   8.264 -0.5192 -2.3181 -0.6015
   35CHL1  H21C 2571   1.929   4.220   8.096  1.3884 -1.1161  2.2471
   35CHL1   C22 2572   1.643   4.376   8.232  0.5154  0.6737  0.5923
   35CHL1  H22A 2573   1.683   4.410   8.330  0.4642 -0.8455  1.1695
   35CHL1  H22B 2574   1.567   4.448   8.195 -0.1173 -0.6586 -0.8153
   35CHL1   C23 2575   1.556   4.254   8.266  0.2141  0.3646 -0.2295
   35CHL1  H23A 2576   1.527   4.194   8.178 -0.1479 -0.7495  0.6311
   35CHL1  H23B 2577   1.623   4.186   8.322 -0.7459 -0.7055 -0.3501
   35CHL1   C24 2578   1.427   4.293   8.340 -0.2592  0.1644  0.2575
   35CHL1  H24A 2579   1.466   4.308   8.443 -1.4286 -0.5590  0.8190
   35CHL1  H24B 2580   1.380   4.392   8.321 -1.7349 -0.5533  0.0079
   35CHL1   C25 2581   1.324   4.178   8.347 -0.2473 -0.4044  0.2402
   35CHL1   H25 2582   1.376   4.082   8.364  1.7617  0.8882  1.9294
   35CHL1   C26 2583   1.234   4.202   8.469 -0.7150  0.2746  0.1805
   35CHL1  H26A 2584   1.156   4.123   8.466 -0.3419 -0.1037  0.3695
   35CHL1  H26B 2585   1.298   4.195   8.560 -1.2647  1.2477  0.6642
   35CHL1  H26C 2586   1.197   4.307   8.463 -1.9554  0.0409  2.4342
   35CHL1   C27 2587   1.233   4.176   8.220  0.1753  0.2715  0.3898
   35CHL1  H27A 2588   1.143   4.241   8.225  0.3959  0.8617 -1.9352
   35CHL1  H27B 2589   1.192   4.073   8.228  1.0003 -0.2052 -1.1057
   35CHL1  H27C 2590   1.292   4.197   8.128  1.1573 -0.9744  0.7055
   36CHL1    C3 2591   3.593   3.808   7.203 -0.3030 -0.4639  0.1683
   36CHL1    H3 2592   3.508   3.763   7.259  1.9683 -2.1932  2.4559
   36CHL1    O3 2593   3.560   3.848   7.070 -0.3099  0.3402  0.6556
   36CHL1   H3' 2594   3.584   3.769   7.021  0.7055 -0.8656  2.9389
   36CHL1    C4 2595   3.627   3.935   7.281  0.7478 -0.2585 -0.5806
   36CHL1   H4A 2596   3.701   3.986   7.215 -0.0611  1.0049 -0.5440
   36CHL1   H4B 2597   3.532   3.993   7.272  0.4872 -0.1327  2.2697
   36CHL1    C5 2598   3.680   3.909   7.420 -0.1167 -0.0588  0.2575
   36CHL1    C6 2599   3.610   3.969   7.522 -0.5937  0.0982  0.0034
   36CHL1    H6 2600   3.532   4.044   7.505  0.5883  1.1474 -0.9499
   36CHL1    C7 2601   3.653   3.957   7.671 -0.5448  0.0407 -0.4081
   36CHL1   H7A 2602   3.662   4.054   7.724 -0.3018  0.3181 -0.9465
   36CHL1   H7B 2603   3.563   3.914   7.720 -0.7779  1.0520  0.0745
   36CHL1    C8 2604   3.788   3.880   7.692  0.2247 -0.6886  1.1841
   36CHL1    H8 2605   3.857   3.966   7.674 -0.1748 -0.2249  1.7885
   36CHL1   C14 2606   3.796   3.825   7.830 -0.3247  0.4024 -1.2875
   36CHL1   H14 2607   3.722   3.742   7.829  0.8938 -0.7120 -1.2088
   36CHL1   C15 2608   3.782   3.923   7.947  0.2357 -0.1448  0.0919
   36CHL1  H15A 2609   3.825   4.025   7.936  0.4026 -0.3403 -1.3032
   36CHL1  H15B 2610   3.675   3.946   7.961  0.3487  0.4060  0.0729
   36CHL1   C16 2611   3.834   3.841   8.072 -0.1084 -0.3197  0.1033
   36CHL1  H16A 2612   3.917   3.895   8.122  1.8318 -1.8214 -1.3443
   36CHL1  H16B 2613   3.759   3.821   8.152 -0.2088 -0.9932 -0.1535
   36CHL1   C17 2614   3.897   3.716   8.013  0.3556  0.1825 -0.9835
   36CHL1   H17 2615   3.814   3.642   8.008 -0.8599  1.2524  1.4411
   36CHL1   C13 2616   3.927   3.750   7.866  0.1473  0.3026 -0.3232
   36CHL1   C18 2617   4.035   3.850   7.846 -0.0662 -0.2051 -0.4196
   36CHL1  H18A 2618   4.031   3.882   7.739  1.3319 -1.9915 -1.0563
   36CHL1  H18B 2619   4.037   3.926   7.927 -1.9780 -1.8422  1.2984
   36CHL1  H18C 2620   4.132   3.797   7.852 -0.4323 -0.7743  0.7937
   36CHL1   C12 2621   3.924   3.634   7.761  0.9909  0.2625  0.2683
   36CHL1  H12A 2622   4.004   3.561   7.785  0.2780 -0.4598  0.4915
   36CHL1  H12B 2623   3.828   3.579   7.774 -0.1182  1.7554 -1.1807
   36CHL1   C11 2624   3.925   3.686   7.621  0.1538  0.1875 -0.5590
   36CHL1  H11A 2625   4.021   3.735   7.592 -0.5977  1.8689 -0.2985
   36CHL1  H11B 2626   3.937   3.602   7.549  1.0119 -0.0673 -0.1424
   36CHL1    C9 2627   3.801   3.767   7.588  0.3357 -0.0643  0.1781
   36CHL1    H9 2628   3.715   3.700   7.608 -1.0669  1.4663 -0.5283
   36CHL1   C10 2629   3.791   3.805   7.430  0.8826  0.2777 -0.4313
   36CHL1   C19 2630   3.925   3.871   7.385  0.3639  0.2176  0.1934
   36CHL1  H19A 2631   3.915   3.904   7.279  1.6588 -1.4556 -0.4956
   36CHL1  H19B 2632   3.965   3.954   7.447  1.4723 -0.3290  0.2259
   36CHL1  H19C 2633   4.010   3.801   7.399  0.9166  0.8264 -0.0823
   36CHL1    C1 2634   3.759   3.678   7.346 -0.7054  0.0453 -0.8559
   36CHL1   H1A 2635   3.849   3.612   7.351 -0.4990  0.4151  2.2687
   36CHL1   H1B 2636   3.679   3.616   7.392  1.1497 -2.1992 -0.4717
   36CHL1    C2 2637   3.714   3.712   7.209 -0.1049  0.7416 -0.1236
   36CHL1   H2A 2638   3.687   3.620   7.152  2.9456  0.7992 -1.8728
   36CHL1   H2B 2639   3.802   3.750   7.154  0.9248  1.8751  2.1596
   36CHL1   C20 2640   4.004   3.661   8.104 -0.1863  0.1184 -0.6845
   36CHL1   H20 2641   4.076   3.744   8.120 -2.5312  2.2922 -0.7924
   36CHL1   C21 2642   4.087   3.551   8.028  0.3664 -0.4447  0.3985
   36CHL1  H21A 2643   4.024   3.465   7.996  0.3785  0.1707 -1.3893
   36CHL1  H21B 2644   4.178   3.516   8.079  0.4116 -0.4720  0.3014
   36CHL1  H21C 2645   4.121   3.594   7.931 -1.5639  0.0867 -0.0977
   36CHL1   C22 2646   3.949   3.623   8.243 -0.9319 -0.5255  0.7155
   36CHL1  H22A 2647   3.897   3.704   8.298 -1.2217  1.2895 -2.0532
   36CHL1  H22B 2648   3.876   3.541   8.229 -3.9277  1.6393  2.5939
   36CHL1   C23 2649   4.061   3.604   8.342  0.4616  1.0843 -0.0134
   36CHL1  H23A 2650   4.096   3.500   8.322 -0.8522  0.7831 -0.8096
   36CHL1  H23B 2651   4.144   3.677   8.331 -0.2463  1.6194 -2.2621
   36CHL1   C24 2652   4.005   3.599   8.489 -0.4127 -1.1815  0.4465
   36CHL1  H24A 2653   3.997   3.701   8.533 -1.1183 -0.6723 -0.7917
   36CHL1  H24B 2654   3.897   3.580   8.476 -0.8405  0.7627  0.8649
   36CHL1   C25 2655   4.062   3.497   8.591 -0.8602 -0.0265 -0.3783
   36CHL1   H25 2656   4.035   3.392   8.567 -0.4644  0.0220 -1.0470
   36CHL1   C26 2657   4.213   3.506   8.597 -0.0945  0.7366 -0.1251
   36CHL1  H26A 2658   4.246   3.463   8.500 -0.4336 -3.2367  1.3347
   36CHL1  H26B 2659   4.235   3.614   8.607 -4.9355  1.7332  2.5884
   36CHL1  H26C 2660   4.256   3.436   8.673 -0.2582 -0.1409 -0.8298
   36CHL1   C27 2661   3.983   3.522   8.723 -0.3136  0.1089 -0.8760
   36CHL1  H27A 2662   4.017   3.444   8.794  1.3552 -1.7207 -3.4965
   36CHL1  H27B 2663   4.008   3.618   8.773  0.3109 -0.5571  0.1342
   36CHL1  H27C 2664   3.873   3.522   8.706 -0.2984 -3.7887 -1.8527
   37CHL1    C3 2665   4.393   0.207   6.938 -0.9407  0.0250  0.1741
   37CHL1    H3 2666   4.385   0.105   6.981  2.4322 -1.9438 -3.3114
   37CHL1    O3 2667   4.381   0.194   6.797 -0.3063  0.1805 -0.1752
   37CHL1   H3' 2668   4.408   0.282   6.767 -0.7773  0.8680  1.3173
   37CHL1    C4 2669   4.286   0.302   6.981 -0.3103  0.3628 -0.0321
   37CHL1   H4A 2670   4.299   0.402   6.935 -1.4383  1.6040  2.1539
   37CHL1   H4B 2671   4.185   0.271   6.947 -0.6176  0.6922  0.5581
   37CHL1    C5 2672   4.287   0.314   7.130 -0.5086  0.7537  0.0864
   37CHL1    C6 2673   4.174   0.283   7.192 -0.9040  0.0710 -0.6181
   37CHL1    H6 2674   4.083   0.243   7.144  0.1692 -3.3024 -0.1130
   37CHL1    C7 2675   4.156   0.303   7.341 -0.4385 -0.8249 -0.0487
   37CHL1   H7A 2676   4.056   0.350   7.357 -0.8190 -1.6749  0.1464
   37CHL1   H7B 2677   4.143   0.208   7.397  1.5985 -1.0681  0.0764
   37CHL1    C8 2678   4.274   0.389   7.405 -0.4850 -0.2550  0.3914
   37CHL1    H8 2679   4.250   0.493   7.374  0.2879 -1.1671 -3.9595
   37CHL1   C14 2680   4.274   0.385   7.557  0.0702 -0.2197 -0.1775
   37CHL1   H14 2681   4.286   0.277   7.583 -0.6473 -0.2430  0.1123
   37CHL1   C15 2682   4.147   0.417   7.638  0.1959  0.1673  0.1560
   37CHL1  H15A 2683   4.099   0.514   7.614  1.9655  0.8441 -0.8025
   37CHL1  H15B 2684   4.070   0.337   7.632 -0.9022  1.1690  0.6208
   37CHL1   C16 2685   4.197   0.417   7.784  0.7089  0.3585 -0.3590
   37CHL1  H16A 2686   4.164   0.514   7.828 -0.7288 -0.1082 -0.3565
   37CHL1  H16B 2687   4.157   0.338   7.851 -4.2501  2.5825 -0.2124
   37CHL1   C17 2688   4.355   0.422   7.773 -0.1477 -0.4778  0.4345
   37CHL1   H17 2689   4.387   0.316   7.781 -1.6608 -0.9695  0.3476
   37CHL1   C13 2690   4.388   0.457   7.623  0.2578  0.5703 -0.3977
   37CHL1   C18 2691   4.372   0.608   7.609 -0.8386  0.4347  0.3326
   37CHL1  H18A 2692   4.463   0.660   7.643 -0.0668 -0.1835 -0.7250
   37CHL1  H18B 2693   4.353   0.634   7.503 -0.3750  0.8915  0.3634
   37CHL1  H18C 2694   4.286   0.646   7.668 -0.3053 -0.8534  2.0443
   37CHL1   C12 2695   4.519   0.404   7.572 -1.0615 -0.3385 -0.3190
   37CHL1  H12A 2696   4.603   0.456   7.623 -1.3776 -0.0995 -0.0373
   37CHL1  H12B 2697   4.537   0.296   7.593  0.9640  0.0068 -0.0934
   37CHL1   C11 2698   4.535   0.422   7.420  0.5067  1.6581 -0.1166
   37CHL1  H11A 2699   4.547   0.528   7.388  0.1121  1.4945 -0.8295
   37CHL1  H11B 2700   4.630   0.366   7.404  1.3388  1.7607  3.5613
   37CHL1    C9 2701   4.414   0.353   7.345  0.1161 -0.6637  0.2952
   37CHL1    H9 2702   4.425   0.244   7.363 -1.9351 -0.8269  0.7142
   37CHL1   C10 2703   4.419   0.367   7.188  1.0240 -0.0176 -0.3502
   37CHL1   C19 2704   4.418   0.518   7.150 -0.3194 -0.0110  0.4453
   37CHL1  H19A 2705   4.510   0.563   7.195 -0.3604  0.4786  0.0435
   37CHL1  H19B 2706   4.417   0.538   7.041 -0.4958 -1.7217  0.0990
   37CHL1  H19C 2707   4.330   0.570   7.193 -0.1327  0.7874 -0.1269
   37CHL1    C1 2708   4.546   0.297   7.131 -0.0528 -0.0890 -0.1645
   37CHL1   H1A 2709   4.648   0.339   7.147  0.6602 -0.9495 -2.0676
   37CHL1   H1B 2710   4.542   0.199   7.185  0.4083 -0.2323 -0.3793
   37CHL1    C2 2711   4.530   0.265   6.976 -0.1589  0.1295 -0.3248
   37CHL1   H2A 2712   4.610   0.195   6.942 -0.8268 -0.3272 -0.9630
   37CHL1   H2B 2713   4.546   0.357   6.916  1.1029  0.3420  0.2876
   37CHL1   C20 2714   4.414   0.506   7.890  0.2968 -0.9554 -0.2294
   37CHL1   H20 2715   4.400   0.613   7.864 -1.5751 -1.4241 -1.3142
   37CHL1   C21 2716   4.566   0.472   7.892  0.6987  0.8245 -0.4102
   37CHL1  H21A 2717   4.582   0.364   7.915 -3.1827  0.5826  2.0302
   37CHL1  H21B 2718   4.615   0.522   7.978  0.8227 -1.5052  0.9513
   37CHL1  H21C 2719   4.621   0.505   7.801 -0.3894 -1.1906 -1.9021
   37CHL1   C22 2720   4.355   0.484   8.031  0.2127  0.1772 -0.8859
   37CHL1  H22A 2721   4.244   0.471   8.032  0.0168  1.4960 -1.5682
   37CHL1  H22B 2722   4.378   0.385   8.075 -0.9124  0.9671  1.6746
   37CHL1   C23 2723   4.391   0.597   8.127  0.2612  0.3765  0.8648
   37CHL1  H23A 2724   4.499   0.594   8.153  0.1984 -0.3699  1.0633
   37CHL1  H23B 2725   4.382   0.700   8.086 -1.4290 -0.6950 -1.6598
   37CHL1   C24 2726   4.304   0.603   8.254  0.5869 -0.1515 -0.2311
   37CHL1  H24A 2727   4.200   0.622   8.218  0.6963  0.1019 -0.4108
   37CHL1  H24B 2728   4.300   0.509   8.314  0.4319  1.0370  1.6804
   37CHL1   C25 2729   4.340   0.716   8.348  0.4582 -0.2014  0.3476
   37CHL1   H25 2730   4.357   0.810   8.292 -1.7383  0.2377  0.3350
   37CHL1   C26 2731   4.241   0.729   8.466 -0.3176  0.6476 -0.2927
   37CHL1  H26A 2732   4.272   0.803   8.542 -0.3334  0.4137 -0.0593
   37CHL1  H26B 2733   4.140   0.755   8.428 -1.0334 -0.2645  0.9116
   37CHL1  H26C 2734   4.230   0.638   8.528 -0.2790  2.8274  3.1865
   37CHL1   C27 2735   4.475   0.689   8.410  0.1173  0.6232 -0.0425
   37CHL1  H27A 2736   4.551   0.677   8.330 -1.8948  2.9776 -2.4902
   37CHL1  H27B 2737   4.502   0.775   8.474 -0.0996  0.9469 -0.3871
   37CHL1  H27C 2738   4.473   0.601   8.479  2.2687  1.5912  1.3861
   38CHL1    C3 2739   2.657   5.718   6.611 -0.4073 -0.3472  0.2771
   38CHL1    H3 2740   2.626   5.824   6.621 -0.2744 -0.3584  0.8641
   38CHL1    O3 2741   2.687   5.710   6.471  0.3927 -0.1567 -0.6212
   38CHL1   H3' 2742   2.605   5.739   6.430  0.6626  1.0321 -0.3402
   38CHL1    C4 2743   2.781   5.696   6.693  0.1248 -0.2609 -0.3575
   38CHL1   H4A 2744   2.820   5.598   6.656  0.8278 -0.0933 -0.0775
   38CHL1   H4B 2745   2.846   5.781   6.666 -0.5448  0.2108 -0.4974
   38CHL1    C5 2746   2.749   5.690   6.848  0.8759 -0.5370 -0.3546
   38CHL1    C6 2747   2.820   5.765   6.941 -0.6247  0.0717 -0.4340
   38CHL1    H6 2748   2.901   5.832   6.908 -1.0274  1.6806  1.6727
   38CHL1    C7 2749   2.812   5.753   7.089  0.2006  0.4388 -0.2098
   38CHL1   H7A 2750   2.904   5.719   7.142 -0.7081  0.4477  1.4509
   38CHL1   H7B 2751   2.791   5.857   7.124  1.9823  0.9111 -0.4403
   38CHL1    C8 2752   2.708   5.649   7.130 -0.1790 -0.6558  0.5197
   38CHL1    H8 2753   2.763   5.553   7.135 -0.8876 -1.1219 -0.4077
   38CHL1   C14 2754   2.655   5.685   7.268  0.4605  0.4304 -0.1938
   38CHL1   H14 2755   2.583   5.769   7.258 -0.4486 -0.3642 -0.4427
   38CHL1   C15 2756   2.754   5.730   7.375 -0.6107 -0.3671  0.0814
   38CHL1  H15A 2757   2.839   5.662   7.351  2.1987  2.7952  0.3342
   38CHL1  H15B 2758   2.793   5.834   7.374 -3.0619  0.6249 -1.3722
   38CHL1   C16 2759   2.677   5.702   7.504 -0.0236  0.0093  0.2810
   38CHL1  H16A 2760   2.733   5.616   7.546  0.4173  1.0123  1.8326
   38CHL1  H16B 2761   2.670   5.788   7.573 -4.2709 -1.5710  2.2277
   38CHL1   C17 2762   2.533   5.649   7.468 -0.3593 -0.1225 -0.7535
   38CHL1   H17 2763   2.477   5.743   7.451  1.3246  1.2472  0.8633
   38CHL1   C13 2764   2.554   5.586   7.326 -0.5545 -0.2572  0.0075
   38CHL1   C18 2765   2.617   5.452   7.360  0.4013  0.2079  0.4848
   38CHL1  H18A 2766   2.711   5.458   7.419 -0.5804  1.7223  1.9752
   38CHL1  H18B 2767   2.549   5.393   7.425 -0.0030 -0.5479 -0.5829
   38CHL1  H18C 2768   2.631   5.388   7.270 -1.3682 -0.5500  0.6890
   38CHL1   C12 2769   2.430   5.574   7.239  0.4329  0.4478 -0.1054
   38CHL1  H12A 2770   2.367   5.486   7.263  1.0619 -0.3275 -1.2237
   38CHL1  H12B 2771   2.365   5.664   7.253 -0.1708 -0.0979  0.6774
   38CHL1   C11 2772   2.468   5.546   7.088 -0.2659  0.0018 -0.2572
   38CHL1  H11A 2773   2.497   5.439   7.095  0.8999  0.1584 -2.1456
   38CHL1  H11B 2774   2.371   5.545   7.033 -2.0809 -2.3993  2.6643
   38CHL1    C9 2775   2.591   5.634   7.033  0.2850 -0.4974  0.0686
   38CHL1    H9 2776   2.544   5.735   7.029  0.6580 -0.3238  0.0585
   38CHL1   C10 2777   2.635   5.604   6.886 -0.4505 -0.7392  0.2640
   38CHL1   C19 2778   2.690   5.455   6.880  0.4830 -0.2095 -0.3257
   38CHL1  H19A 2779   2.606   5.386   6.901 -0.7538  0.7174 -2.0026
   38CHL1  H19B 2780   2.729   5.424   6.781  0.4477 -1.1683 -0.0559
   38CHL1  H19C 2781   2.776   5.440   6.950 -0.9808 -2.0434  1.1867
   38CHL1    C1 2782   2.514   5.622   6.790 -0.7426 -0.3229 -0.3622
   38CHL1   H1A 2783   2.448   5.535   6.813 -1.3734 -0.0267 -0.9967
   38CHL1   H1B 2784   2.468   5.718   6.822  0.6847 -0.0649  1.0492
   38CHL1    C2 2785   2.541   5.622   6.635  0.2463 -0.0801 -0.6297
   38CHL1   H2A 2786   2.449   5.661   6.587  1.3687  3.0743 -0.4588
   38CHL1   H2B 2787   2.570   5.522   6.599 -0.6045 -1.0964  1.3354
   38CHL1   C20 2788   2.460   5.574   7.582 -0.2334  0.2209 -0.6269
   38CHL1   H20 2789   2.493   5.470   7.600 -2.8488 -0.8781 -1.7584
   38CHL1   C21 2790   2.314   5.554   7.536  0.3838 -0.4641  0.1270
   38CHL1  H21A 2791   2.254   5.642   7.503  1.1264 -0.1448 -0.3704
   38CHL1  H21B 2792   2.254   5.501   7.614  0.7799  0.7806  1.3141
   38CHL1  H21C 2793   2.307   5.470   7.463  0.2562 -1.0086  0.7546
   38CHL1   C22 2794   2.457   5.647   7.714  0.2336 -0.1176  0.6377
   38CHL1  H22A 2795   2.540   5.720   7.710  0.2520 -0.1944 -1.2130
   38CHL1  H22B 2796   2.361   5.703   7.709  0.2335 -0.1947 -1.4495
   38CHL1   C23 2797   2.468   5.557   7.837 -0.7940  0.1884 -0.7965
   38CHL1  H23A 2798   2.379   5.493   7.854  1.4389 -2.5504  1.9757
   38CHL1  H23B 2799   2.553   5.486   7.824 -1.1474  0.0361 -2.4746
   38CHL1   C24 2800   2.497   5.635   7.964 -0.0455 -0.3544 -0.1146
   38CHL1  H24A 2801   2.596   5.683   7.950 -0.0224 -0.7367 -1.4559
   38CHL1  H24B 2802   2.424   5.718   7.973 -0.7559 -1.0745  1.0296
   38CHL1   C25 2803   2.496   5.544   8.093  0.1759 -0.3403 -0.0201
   38CHL1   H25 2804   2.394   5.503   8.107 -0.1789  1.0972  1.9752
   38CHL1   C26 2805   2.592   5.430   8.083  0.5772  0.9198 -0.6882
   38CHL1  H26A 2806   2.696   5.468   8.085  1.3244 -1.0238  0.8454
   38CHL1  H26B 2807   2.591   5.368   8.175 -0.7754 -0.2723 -1.4550
   38CHL1  H26C 2808   2.578   5.359   7.998 -1.3019 -1.4638  1.4547
   38CHL1   C27 2809   2.529   5.631   8.217 -1.0727  0.1824 -1.0187
   38CHL1  H27A 2810   2.449   5.707   8.232 -1.8762 -0.7099 -0.7161
   38CHL1  H27B 2811   2.549   5.572   8.309  2.8473  0.5000 -1.4912
   38CHL1  H27C 2812   2.624   5.684   8.195 -0.3544 -0.2954  0.8079
   39CHL1    C3 2813   1.004   5.089   6.954 -1.3067  0.5437 -0.2514
   39CHL1    H3 2814   0.985   4.987   6.995 -0.1201 -0.5846 -2.3157
   39CHL1    O3 2815   0.983   5.088   6.816  0.2638  0.4795 -0.6119
   39CHL1   H3' 2816   0.955   5.178   6.796  0.2153  0.9123  1.2442
   39CHL1    C4 2817   0.905   5.193   7.007  0.1341  0.6927  0.6215
   39CHL1   H4A 2818   0.924   5.290   6.956 -1.5888  0.4370 -0.5878
   39CHL1   H4B 2819   0.804   5.153   6.983  0.7463 -1.6477  1.7132
   39CHL1    C5 2820   0.915   5.205   7.157 -0.1101 -0.0460 -0.1463
   39CHL1    C6 2821   0.809   5.169   7.237 -0.0563 -0.3542 -0.3766
   39CHL1    H6 2822   0.716   5.125   7.198  0.6945 -3.5615  1.1997
   39CHL1    C7 2823   0.808   5.199   7.390 -0.2233  0.4952 -0.1544
   39CHL1   H7A 2824   0.709   5.246   7.408  0.5076  2.0872 -0.0847
   39CHL1   H7B 2825   0.821   5.100   7.440  3.1115 -0.5383 -2.7459
   39CHL1    C8 2826   0.923   5.294   7.431  0.2642 -0.5851  0.5676
   39CHL1    H8 2827   0.918   5.402   7.405  1.5179 -0.5906  0.2874
   39CHL1   C14 2828   0.933   5.277   7.579 -0.0192  0.0542 -0.3799
   39CHL1   H14 2829   0.936   5.166   7.587 -0.0186 -0.1906 -2.9703
   39CHL1   C15 2830   0.810   5.319   7.667 -0.1634  0.1320  0.1994
   39CHL1  H15A 2831   0.772   5.415   7.627 -1.8970 -1.2222 -1.6337
   39CHL1  H15B 2832   0.727   5.246   7.652  0.9018 -0.8457 -1.1721
   39CHL1   C16 2833   0.860   5.339   7.811  0.7363 -0.5265 -0.5901
   39CHL1  H16A 2834   0.822   5.429   7.863 -0.2137 -0.8188 -0.7538
   39CHL1  H16B 2835   0.833   5.250   7.872  2.5045 -0.9562 -0.3746
   39CHL1   C17 2836   1.017   5.305   7.804  0.3750 -0.1890  0.5368
   39CHL1   H17 2837   1.017   5.196   7.826 -0.0440  0.2978  3.2555
   39CHL1   C13 2838   1.053   5.333   7.655  0.6833 -0.4027 -0.8200
   39CHL1   C18 2839   1.050   5.489   7.651  0.2994  0.2442 -0.6757
   39CHL1  H18A 2840   0.974   5.534   7.719  2.2624  3.2021 -0.2623
   39CHL1  H18B 2841   1.149   5.524   7.687  0.3923  3.2377 -3.3867
   39CHL1  H18C 2842   1.024   5.526   7.550  0.6011  1.3990 -0.3418
   39CHL1   C12 2843   1.184   5.277   7.594  0.3312  0.3251 -0.0613
   39CHL1  H12A 2844   1.273   5.318   7.647  1.0326  0.0309 -0.9680
   39CHL1  H12B 2845   1.177   5.169   7.616  3.6619 -0.2309 -1.1340
   39CHL1   C11 2846   1.173   5.293   7.441  0.2352  0.2197  0.0205
   39CHL1  H11A 2847   1.185   5.400   7.413  2.2211  0.4808  1.6164
   39CHL1  H11B 2848   1.259   5.245   7.389  2.2371  2.3682  1.1203
   39CHL1    C9 2849   1.054   5.231   7.369  0.7310 -0.3067 -0.1076
   39CHL1    H9 2850   1.054   5.122   7.391  0.5809 -0.5605 -1.2565
   39CHL1   C10 2851   1.055   5.242   7.215 -0.4763 -0.3333  0.3262
   39CHL1   C19 2852   1.087   5.395   7.179  0.4950  0.2645  0.5122
   39CHL1  H19A 2853   1.024   5.467   7.236 -0.2865  0.4309 -0.5316
   39CHL1  H19B 2854   1.196   5.417   7.183  0.4086  2.7518 -4.1976
   39CHL1  H19C 2855   1.071   5.412   7.071  0.5287 -0.6796  0.3477
   39CHL1    C1 2856   1.159   5.148   7.144 -0.4833  0.3733  1.0668
   39CHL1   H1A 2857   1.263   5.173   7.173 -0.1752  0.7052 -0.2519
   39CHL1   H1B 2858   1.147   5.047   7.189 -2.3930 -0.1935 -0.5840
   39CHL1    C2 2859   1.145   5.136   6.986 -0.7879 -0.6075  0.4962
   39CHL1   H2A 2860   1.214   5.056   6.950  4.0001  2.6253  1.5654
   39CHL1   H2B 2861   1.175   5.231   6.936  0.0016 -0.4158  1.2976
   39CHL1   C20 2862   1.088   5.369   7.926  1.0238  0.3425  0.0699
   39CHL1   H20 2863   1.067   5.478   7.934 -0.9392  0.1019 -1.1762
   39CHL1   C21 2864   1.239   5.333   7.926 -0.0998  0.9539 -0.5104
   39CHL1  H21A 2865   1.262   5.225   7.915  1.6949  1.2475  0.0226
   39CHL1  H21B 2866   1.291   5.378   8.013  1.1245 -0.3827 -0.5132
   39CHL1  H21C 2867   1.290   5.392   7.847 -0.1985  3.5357  1.2200
   39CHL1   C22 2868   1.037   5.326   8.070  0.8330  0.2598  0.3117
   39CHL1  H22A 2869   0.931   5.360   8.062  0.7431 -0.0823  0.0312
   39CHL1  H22B 2870   1.054   5.218   8.088  0.2174  0.0888 -0.0917
   39CHL1   C23 2871   1.096   5.404   8.184  0.3221  0.2106 -0.3043
   39CHL1  H23A 2872   1.201   5.375   8.203  0.8288  1.4011 -1.2095
   39CHL1  H23B 2873   1.103   5.514   8.168  1.6721  0.7425  3.1057
   39CHL1   C24 2874   1.013   5.376   8.313  0.4703  0.2462 -0.2162
   39CHL1  H24A 2875   0.912   5.418   8.297 -0.1997 -1.5630 -0.9156
   39CHL1  H24B 2876   1.018   5.270   8.346 -0.9767  0.6603  1.4413
   39CHL1   C25 2877   1.061   5.468   8.428  0.5657 -0.5854  0.0839
   39CHL1   H25 2878   1.075   5.570   8.387 -2.7907 -0.5375 -1.2597
   39CHL1   C26 2879   0.951   5.488   8.536  0.5318  0.3213  0.3805
   39CHL1  H26A 2880   0.936   5.386   8.577 -2.7940  0.3903 -0.4072
   39CHL1  H26B 2881   0.987   5.571   8.602  1.6486 -0.3258  0.6113
   39CHL1  H26C 2882   0.856   5.516   8.486  0.1036 -2.2072 -0.3265
   39CHL1   C27 2883   1.186   5.425   8.503 -0.3374 -0.1813  0.1983
   39CHL1  H27A 2884   1.175   5.336   8.568 -0.9538 -0.0182  0.3263
   39CHL1  H27B 2885   1.256   5.399   8.421 -1.0027  1.6733 -1.0396
   39CHL1  H27C 2886   1.220   5.515   8.560  2.4052 -1.5724  0.9275
   40CHL1    C3 2887   4.879   3.902   6.975 -0.6205  0.2159 -0.0265
   40CHL1    H3 2888   4.959   3.979   6.973 -1.1359  0.7436 -0.9156
   40CHL1    O3 2889   4.835   3.883   6.839  0.5867 -0.7677 -0.4243
   40CHL1   H3' 2890   4.762   3.822   6.851 -1.7122  1.9517  0.6259
   40CHL1    C4 2891   4.947   3.777   7.033  0.2523  0.6902 -0.5040
   40CHL1   H4A 2892   4.873   3.698   7.009  0.5214  1.1538 -3.0851
   40CHL1   H4B 2893   5.037   3.748   6.974  0.0477 -0.0701 -0.4448
   40CHL1    C5 2894   4.979   3.792   7.180 -0.3963 -1.1011  0.0923
   40CHL1    C6 2895   5.102   3.767   7.232 -0.2279 -0.8058  1.4000
   40CHL1    H6 2896   5.186   3.747   7.163 -1.8137 -0.9574 -0.5995
   40CHL1    C7 2897   5.136   3.786   7.375  0.0546  0.1848 -0.0593
   40CHL1   H7A 2898   5.188   3.696   7.414 -4.3140 -1.3992  2.8793
   40CHL1   H7B 2899   5.194   3.878   7.399 -0.5990  0.4046  0.7315
   40CHL1    C8 2900   5.015   3.795   7.465  0.8983  0.2643  0.1225
   40CHL1    H8 2901   4.976   3.692   7.477  1.2233  0.1269  0.0253
   40CHL1   C14 2902   5.067   3.853   7.602 -0.0172 -0.4208 -0.0212
   40CHL1   H14 2903   5.098   3.959   7.589 -0.6625  0.0568  2.0401
   40CHL1   C15 2904   5.191   3.791   7.669  0.3856 -0.6223 -0.1770
   40CHL1  H15A 2905   5.183   3.681   7.657  1.7667 -0.6100 -1.4925
   40CHL1  H15B 2906   5.280   3.831   7.615 -0.6580  1.1251 -0.7046
   40CHL1   C16 2907   5.173   3.848   7.811 -0.0083  0.6498 -0.1120
   40CHL1  H16A 2908   5.184   3.763   7.882  0.1963  1.3371  0.6942
   40CHL1  H16B 2909   5.263   3.909   7.834  1.5146 -2.6724  4.0481
   40CHL1   C17 2910   5.037   3.919   7.824 -0.2932  0.0712 -0.0667
   40CHL1   H17 2911   5.055   4.028   7.810  0.1604 -0.1049 -1.0112
   40CHL1   C13 2912   4.957   3.865   7.707  0.8276 -0.8734 -0.3794
   40CHL1   C18 2913   4.898   3.733   7.744 -0.1461  0.2535  0.6279
   40CHL1  H18A 2914   4.876   3.659   7.664  0.1510 -1.6703  2.2626
   40CHL1  H18B 2915   4.969   3.681   7.811  1.3040 -1.5963 -2.1190
   40CHL1  H18C 2916   4.801   3.764   7.790 -0.2827  2.5581 -1.0205
   40CHL1   C12 2917   4.851   3.965   7.649 -0.2983 -0.0527 -0.0603
   40CHL1  H12A 2918   4.759   3.979   7.710 -1.3258  0.4306 -1.6424
   40CHL1  H12B 2919   4.897   4.066   7.646  0.4044 -0.3624  0.1642
   40CHL1   C11 2920   4.801   3.924   7.508 -0.1229 -1.0246  0.1318
   40CHL1  H11A 2921   4.736   3.834   7.522 -1.8066  0.1753  0.3352
   40CHL1  H11B 2922   4.740   4.014   7.485  1.1510 -0.5772 -1.6919
   40CHL1    C9 2923   4.913   3.894   7.412  0.2105  0.7840  0.5586
   40CHL1    H9 2924   4.974   3.986   7.396 -0.0449  0.7772 -0.5160
   40CHL1   C10 2925   4.863   3.845   7.271 -0.0418 -0.1846  0.1230
   40CHL1   C19 2926   4.758   3.731   7.279 -0.1214 -0.1110 -0.3345
   40CHL1  H19A 2927   4.814   3.650   7.331  0.4539  0.3575 -0.2140
   40CHL1  H19B 2928   4.666   3.760   7.335 -1.0883 -2.9635 -0.2600
   40CHL1  H19C 2929   4.727   3.701   7.177  0.7070 -1.5972 -0.1836
   40CHL1    C1 2930   4.796   3.972   7.204 -0.4384  0.3464 -0.2248
   40CHL1   H1A 2931   4.700   3.999   7.254  0.9942  1.4259  2.1212
   40CHL1   H1B 2932   4.858   4.064   7.209 -1.2276  0.8887 -0.0917
   40CHL1    C2 2933   4.759   3.951   7.057 -0.0142  0.1237  0.2667
   40CHL1   H2A 2934   4.715   4.040   7.007 -0.1672 -0.8023 -1.3155
   40CHL1   H2B 2935   4.674   3.880   7.059  0.5028 -0.4895  1.6595
   40CHL1   C20 2936   4.975   3.889   7.968 -0.0380 -0.0120  0.3206
   40CHL1   H20 2937   4.973   3.781   7.994 -0.5979 -0.1947 -0.4455
   40CHL1   C21 2938   4.845   3.963   7.978  0.4001  0.1395  0.1118
   40CHL1  H21A 2939   4.764   3.907   7.927  1.7577 -1.0878 -0.7689
   40CHL1  H21B 2940   4.852   4.069   7.947  1.7074  0.3085  0.8981
   40CHL1  H21C 2941   4.811   3.958   8.084  0.3547 -0.3421  0.0786
   40CHL1   C22 2942   5.059   3.949   8.081 -0.0966  0.1604 -0.2232
   40CHL1  H22A 2943   5.167   3.937   8.056 -0.4792  0.6750 -2.2972
   40CHL1  H22B 2944   5.033   4.057   8.084  1.5882  0.5593  1.1606
   40CHL1   C23 2945   5.046   3.894   8.223  0.0521 -0.4674  0.5055
   40CHL1  H23A 2946   4.942   3.911   8.259 -0.6969 -0.8482 -1.3546
   40CHL1  H23B 2947   5.052   3.783   8.224  2.0820 -0.5219 -2.8682
   40CHL1   C24 2948   5.140   3.959   8.318  0.1988  0.0894 -0.0570
   40CHL1  H24A 2949   5.244   3.952   8.278  0.0727 -0.9686 -0.2310
   40CHL1  H24B 2950   5.115   4.067   8.317 -0.9752 -0.1608 -1.2064
   40CHL1   C25 2951   5.142   3.908   8.467  0.4739  0.1630  0.4547
   40CHL1   H25 2952   5.178   3.803   8.463 -4.3821 -1.6905 -1.3005
   40CHL1   C26 2953   5.234   3.988   8.564  0.1188  0.1660 -0.0394
   40CHL1  H26A 2954   5.236   3.947   8.667 -0.2437 -1.4797 -0.6676
   40CHL1  H26B 2955   5.340   3.988   8.530  0.3118 -1.4485  0.4978
   40CHL1  H26C 2956   5.207   4.096   8.567  1.5832  0.5550  0.1442
   40CHL1   C27 2957   5.003   3.901   8.536 -0.1745 -0.6447 -0.3066
   40CHL1  H27A 2958   5.005   3.860   8.640 -2.7893 -0.3036 -0.0394
   40CHL1  H27B 2959   4.962   4.004   8.536 -3.0793 -1.6332 -3.2127
   40CHL1  H27C 2960   4.935   3.827   8.487 -0.7835  0.8643 -1.8424
   41CHL1    C3 2961   5.237   4.746   6.944  0.6664  0.2018  0.2117
   41CHL1    H3 2962   5.147   4.684   6.921  2.3662 -1.6213 -2.0438
   41CHL1    O3 2963   5.311   4.737   6.825 -0.6122  0.0664 -0.0254
   41CHL1   H3' 2964   5.288   4.814   6.772 -0.9730 -0.0322 -0.0159
   41CHL1    C4 2965   5.204   4.894   6.982 -0.4590  0.8570  0.0513
   41CHL1   H4A 2966   5.303   4.944   6.997  1.7066 -2.4162 -2.1485
   41CHL1   H4B 2967   5.147   4.942   6.900 -0.8571 -1.4682 -1.1068
   41CHL1    C5 2968   5.123   4.902   7.109 -0.2257  0.6708 -0.7071
   41CHL1    C6 2969   5.008   4.965   7.110 -0.5137 -0.0666 -0.1880
   41CHL1    H6 2970   4.975   5.013   7.017 -0.8132 -2.4785 -1.4147
   41CHL1    C7 2971   4.921   4.990   7.225  0.3538 -0.0977  0.0770
   41CHL1   H7A 2972   4.889   5.096   7.235  0.7089  0.0977 -0.7934
   41CHL1   H7B 2973   4.826   4.933   7.221  0.8352 -1.0347  1.2574
   41CHL1    C8 2974   4.994   4.964   7.359 -0.7965  0.7832 -0.5470
   41CHL1    H8 2975   5.080   5.033   7.371  1.3787 -2.0743  2.0552
   41CHL1   C14 2976   4.902   4.955   7.478  0.7126  0.0055 -0.1117
   41CHL1   H14 2977   4.829   4.875   7.452 -1.9001  2.1476  0.1617
   41CHL1   C15 2978   4.811   5.072   7.507  1.0516 -0.2394  0.0407
   41CHL1  H15A 2979   4.880   5.158   7.523  0.9811  0.2027 -1.8379
   41CHL1  H15B 2980   4.732   5.093   7.432  1.1139  1.1482  0.3341
   41CHL1   C16 2981   4.747   5.039   7.645 -0.2920 -0.3491  0.1270
   41CHL1  H16A 2982   4.735   5.134   7.702  2.6956  0.6585 -0.7530
   41CHL1  H16B 2983   4.648   5.001   7.612  0.2551 -1.0101 -0.7978
   41CHL1   C17 2984   4.837   4.929   7.701  0.5191 -0.4089 -0.4959
   41CHL1   H17 2985   4.779   4.837   7.680 -0.0062 -0.4379  0.9502
   41CHL1   C13 2986   4.965   4.912   7.610  0.5508 -0.6470 -0.5703
   41CHL1   C18 2987   5.072   5.013   7.663  0.6990 -0.7730 -0.0034
   41CHL1  H18A 2988   5.011   5.105   7.674  0.1645 -1.1603  0.3585
   41CHL1  H18B 2989   5.115   4.991   7.763 -0.6150 -0.5135  0.6388
   41CHL1  H18C 2990   5.155   5.041   7.594  1.1775  1.3184  1.3160
   41CHL1   C12 2991   5.016   4.767   7.602  0.5571  0.1176 -0.6800
   41CHL1  H12A 2992   5.069   4.737   7.695 -1.5983 -0.7001  0.3255
   41CHL1  H12B 2993   4.938   4.691   7.582 -1.0052  1.3035  0.5999
   41CHL1   C11 2994   5.119   4.771   7.484 -0.9276  0.1006  0.3522
   41CHL1  H11A 2995   5.198   4.841   7.520 -1.3760  0.3363  0.8929
   41CHL1  H11B 2996   5.172   4.673   7.478  1.8677  1.4894  0.6381
   41CHL1    C9 2997   5.067   4.826   7.349 -0.2042  0.0495  0.5260
   41CHL1    H9 2998   4.990   4.756   7.311  0.5495 -0.6062  0.1729
   41CHL1   C10 2999   5.180   4.836   7.237 -0.5279  0.0762  0.6656
   41CHL1   C19 3000   5.306   4.915   7.277 -0.5577 -0.3275  0.0631
   41CHL1  H19A 3001   5.383   4.920   7.197 -0.3017  2.0018  0.3613
   41CHL1  H19B 3002   5.275   5.021   7.290  0.9799  0.1998 -0.4053
   41CHL1  H19C 3003   5.367   4.881   7.363  0.2975  1.9690  0.4450
   41CHL1    C1 3004   5.216   4.687   7.201  0.9177  0.1246  0.4683
   41CHL1   H1A 3005   5.258   4.619   7.278  2.9765  0.9029  0.1059
   41CHL1   H1B 3006   5.118   4.640   7.178  1.2855 -1.7253  2.3850
   41CHL1    C2 3007   5.292   4.666   7.064 -0.4046 -0.4400 -0.4956
   41CHL1   H2A 3008   5.300   4.557   7.042 -1.8979 -0.9450  1.1484
   41CHL1   H2B 3009   5.395   4.700   7.088 -0.4414  0.8931 -2.0572
   41CHL1   C20 3010   4.856   4.915   7.858  0.2080  0.1334  0.5764
   41CHL1   H20 3011   4.925   4.829   7.875 -1.4187 -1.1112  1.1414
   41CHL1   C21 3012   4.721   4.856   7.909 -0.5505 -0.0145 -0.0453
   41CHL1  H21A 3013   4.689   4.766   7.851 -0.5636  0.5126 -0.8641
   41CHL1  H21B 3014   4.648   4.939   7.898 -1.8317 -1.0513  0.2652
   41CHL1  H21C 3015   4.730   4.822   8.015  1.3652 -0.2204 -0.2530
   41CHL1   C22 3016   4.900   5.033   7.943  0.2105 -0.0731  0.1197
   41CHL1  H22A 3017   4.983   5.087   7.892 -0.1544  0.8705  0.4934
   41CHL1  H22B 3018   4.817   5.107   7.940 -1.3200 -1.5596  2.5570
   41CHL1   C23 3019   4.943   4.991   8.078 -0.8089  0.2350  0.5268
   41CHL1  H23A 3020   4.878   4.914   8.124 -0.7668 -0.9136 -1.2698
   41CHL1  H23B 3021   5.047   4.951   8.075  0.5987  3.6030 -0.1934
   41CHL1   C24 3022   4.947   5.113   8.166 -1.3241 -0.3076  0.1458
   41CHL1  H24A 3023   5.024   5.188   8.139 -2.2614  1.1829  1.4436
   41CHL1  H24B 3024   4.850   5.168   8.167 -1.1208  0.0573  1.2052
   41CHL1   C25 3025   4.973   5.078   8.319  0.8752  0.7995  0.2073
   41CHL1   H25 3026   5.080   5.050   8.329  1.0399  1.7630  1.2220
   41CHL1   C26 3027   4.959   5.208   8.401 -0.6912 -0.2391 -0.2674
   41CHL1  H26A 3028   5.005   5.184   8.499 -2.1840  0.0708  0.5397
   41CHL1  H26B 3029   5.021   5.288   8.357  0.3742 -1.7064 -1.5468
   41CHL1  H26C 3030   4.855   5.243   8.418  0.8983  4.0685  1.9448
   41CHL1   C27 3031   4.874   4.975   8.381 -0.2361 -0.5167  0.2741
   41CHL1  H27A 3032   4.770   5.013   8.390  0.2547  0.4310  3.1353
   41CHL1  H27B 3033   4.878   4.883   8.319  0.7103 -0.4757  0.2694
   41CHL1  H27C 3034   4.907   4.961   8.486 -0.9648  0.2540  0.6244
   42CHL1    C3 3035   1.220   2.900   7.220 -0.0161 -1.1955  0.7539
   42CHL1    H3 3036   1.169   2.990   7.261  0.8854 -0.4027  0.1555
   42CHL1    O3 3037   1.232   2.899   7.081 -0.0151  0.0283  0.5717
   42CHL1   H3' 3038   1.319   2.935   7.065 -0.4406  1.4579  1.3366
   42CHL1    C4 3039   1.359   2.911   7.291  0.8582  0.3267  0.0650
   42CHL1   H4A 3040   1.434   2.846   7.240  0.4703 -0.7380  0.8173
   42CHL1   H4B 3041   1.380   3.014   7.257 -1.8229  1.1087  0.5689
   42CHL1    C5 3042   1.353   2.885   7.440 -0.4456  0.3900 -0.2304
   42CHL1    C6 3043   1.401   2.963   7.536  0.0051 -0.7049  0.5553
   42CHL1    H6 3044   1.458   3.052   7.503  1.5343 -0.5365  3.3454
   42CHL1    C7 3045   1.401   2.944   7.681  0.2378  0.2897 -0.3761
   42CHL1   H7A 3046   1.507   2.959   7.709  0.6599 -1.8597 -0.6430
   42CHL1   H7B 3047   1.336   3.024   7.724 -0.7143 -2.2110  3.3392
   42CHL1    C8 3048   1.338   2.805   7.717 -0.0829  1.0470  0.0500
   42CHL1    H8 3049   1.415   2.729   7.695 -1.5589 -0.7996  0.9120
   42CHL1   C14 3050   1.292   2.810   7.864 -0.3765 -0.6896  0.1827
   42CHL1   H14 3051   1.207   2.882   7.870 -1.1003 -1.5987  1.3123
   42CHL1   C15 3052   1.398   2.869   7.969  0.7609 -0.1759 -0.3300
   42CHL1  H15A 3053   1.503   2.852   7.937  0.8990 -0.7762  0.4124
   42CHL1  H15B 3054   1.390   2.979   7.981 -0.6001  0.2523 -3.7908
   42CHL1   C16 3055   1.370   2.792   8.098  0.5614 -0.2771  0.3052
   42CHL1  H16A 3056   1.451   2.718   8.107  0.7793 -0.1883 -0.7612
   42CHL1  H16B 3057   1.363   2.856   8.188 -2.7976  0.2123 -0.1552
   42CHL1   C17 3058   1.236   2.717   8.067 -0.4382 -0.3716  0.6431
   42CHL1   H17 3059   1.148   2.786   8.071 -1.5288 -1.5989 -0.7630
   42CHL1   C13 3060   1.242   2.679   7.916  0.1881 -0.8616 -0.2472
   42CHL1   C18 3061   1.327   2.556   7.886  0.4549 -0.4165 -0.1778
   42CHL1  H18A 3062   1.289   2.465   7.937  0.4862 -1.2283 -1.5618
   42CHL1  H18B 3063   1.355   2.534   7.781 -1.2504 -0.8984 -0.5475
   42CHL1  H18C 3064   1.421   2.572   7.944  0.8679 -1.3972 -0.5599
   42CHL1   C12 3065   1.105   2.668   7.840 -0.3981  0.4297 -0.2096
   42CHL1  H12A 3066   1.047   2.583   7.882 -0.6649 -0.9776 -3.2263
   42CHL1  H12B 3067   1.041   2.753   7.871  2.0081  2.0326  0.6996
   42CHL1   C11 3068   1.120   2.666   7.686 -0.4169 -0.2042 -0.3593
   42CHL1  H11A 3069   1.154   2.570   7.642 -1.3598  0.1688 -2.0086
   42CHL1  H11B 3070   1.021   2.682   7.638 -0.9539 -1.8412  0.1694
   42CHL1    C9 3071   1.216   2.776   7.634  0.0826 -0.1849 -0.0099
   42CHL1    H9 3072   1.163   2.873   7.647  3.0239  1.7511 -1.3112
   42CHL1   C10 3073   1.259   2.767   7.483  0.0626 -0.5550  0.6015
   42CHL1   C19 3074   1.341   2.633   7.459 -0.0354  0.4071  0.6075
   42CHL1  H19A 3075   1.439   2.626   7.511  0.4693 -3.2264 -0.5228
   42CHL1  H19B 3076   1.287   2.538   7.479 -0.3627  0.2637 -0.8208
   42CHL1  H19C 3077   1.363   2.623   7.350 -0.1878 -1.1727  0.6979
   42CHL1    C1 3078   1.121   2.766   7.400  0.6092 -0.9187 -0.5785
   42CHL1   H1A 3079   1.077   2.665   7.412 -1.8343  0.0428 -0.8292
   42CHL1   H1B 3080   1.047   2.838   7.443 -1.3913 -1.2056 -3.2581
   42CHL1    C2 3081   1.137   2.780   7.253 -0.0136 -0.0155  0.1320
   42CHL1   H2A 3082   1.034   2.798   7.214  0.6352  1.0859 -1.1698
   42CHL1   H2B 3083   1.176   2.686   7.209 -1.5756 -0.6782  0.0890
   42CHL1   C20 3084   1.210   2.598   8.164 -0.7877 -0.1942 -0.0054
   42CHL1   H20 3085   1.285   2.519   8.140 -1.6417 -0.5236 -1.7359
   42CHL1   C21 3086   1.071   2.549   8.141  0.0679 -0.0071 -0.0343
   42CHL1  H21A 3087   1.082   2.491   8.047  1.5724  1.2705 -0.7101
   42CHL1  H21B 3088   0.992   2.625   8.127 -0.2513 -0.6433 -2.0358
   42CHL1  H21C 3089   1.041   2.474   8.217 -0.0996 -2.7543 -2.6183
   42CHL1   C22 3090   1.235   2.644   8.310  0.1407 -0.2963 -1.0117
   42CHL1  H22A 3091   1.337   2.687   8.323  0.1783 -0.2410 -1.4531
   42CHL1  H22B 3092   1.165   2.725   8.339 -1.1977 -1.8587  0.2254
   42CHL1   C23 3093   1.225   2.531   8.420 -0.4038 -0.0185 -0.4021
   42CHL1  H23A 3094   1.229   2.586   8.517  0.5793  0.5622 -0.7535
   42CHL1  H23B 3095   1.119   2.499   8.407  0.2626 -3.2293  1.0479
   42CHL1   C24 3096   1.322   2.413   8.409  0.1340 -0.1876  0.1185
   42CHL1  H24A 3097   1.308   2.352   8.317  0.4155  1.7045 -1.2684
   42CHL1  H24B 3098   1.427   2.451   8.405  0.5947 -1.4751 -0.6248
   42CHL1   C25 3099   1.317   2.326   8.535  0.0795 -0.4477  0.5701
   42CHL1   H25 3100   1.343   2.391   8.621 -0.2234  1.5956 -0.8071
   42CHL1   C26 3101   1.180   2.263   8.562  0.8673  1.0535 -0.1149
   42CHL1  H26A 3102   1.095   2.326   8.527  0.1964 -0.5942 -1.6154
   42CHL1  H26B 3103   1.163   2.164   8.515  0.8278  0.8273  0.3815
   42CHL1  H26C 3104   1.169   2.241   8.670  1.7579 -0.1684 -0.2510
   42CHL1   C27 3105   1.409   2.202   8.526 -0.7577  0.4330 -0.6466
   42CHL1  H27A 3106   1.508   2.231   8.484 -0.4681 -0.2955 -0.4875
   42CHL1  H27B 3107   1.376   2.126   8.452 -2.6172  1.6489 -1.1323
   42CHL1  H27C 3108   1.411   2.149   8.624 -3.7792 -1.7958 -1.6354
   43CHL1    C3 3109   5.121   5.824   6.771  0.2733  0.7232  0.3399
   43CHL1    H3 3110   5.141   5.716   6.789  0.6497  0.7899  0.3173
   43CHL1    O3 3111   5.094   5.839   6.630  0.1764  0.5037 -0.0738
   43CHL1   H3' 3112   5.091   5.934   6.614  1.5999  0.6075  0.2177
   43CHL1    C4 3113   5.000   5.874   6.845  0.5595  0.0207 -0.3591
   43CHL1   H4A 3114   4.990   5.983   6.824  0.2021  0.0748  0.0837
   43CHL1   H4B 3115   4.914   5.822   6.799  0.6424  0.9284 -1.5943
   43CHL1    C5 3116   5.023   5.860   6.992  0.2536 -0.4128 -0.3230
   43CHL1    C6 3117   4.936   5.803   7.075  0.1328  0.4229 -0.2358
   43CHL1    H6 3118   4.844   5.759   7.034  0.0363 -0.7752  1.1978
   43CHL1    C7 3119   4.958   5.798   7.226 -0.1353  0.4047  0.6698
   43CHL1   H7A 3120   4.858   5.815   7.271 -0.8531 -2.1782  0.2302
   43CHL1   H7B 3121   4.989   5.695   7.253 -1.3621  0.2421  1.5838
   43CHL1    C8 3122   5.048   5.903   7.278  0.5388 -0.0339  0.4724
   43CHL1    H8 3123   5.002   6.004   7.272 -0.0469 -0.2616  0.9996
   43CHL1   C14 3124   5.082   5.873   7.424 -0.6207 -0.1680 -0.1289
   43CHL1   H14 3125   5.128   5.773   7.437  0.6046  0.3218 -0.6359
   43CHL1   C15 3126   4.960   5.864   7.514 -0.2493  0.1349  0.2076
   43CHL1  H15A 3127   4.893   5.950   7.492  0.9336  1.0163 -0.0815
   43CHL1  H15B 3128   4.905   5.769   7.501 -2.1270  1.2859 -0.7726
   43CHL1   C16 3129   5.014   5.869   7.660 -0.2685  0.1879  0.3090
   43CHL1  H16A 3130   4.963   5.953   7.712  0.7849 -0.0635  1.8371
   43CHL1  H16B 3131   5.002   5.773   7.714 -1.5895  0.8077  1.1801
   43CHL1   C17 3132   5.167   5.916   7.641 -0.0372  0.6839 -0.4073
   43CHL1   H17 3133   5.225   5.822   7.655 -1.2386  0.1572  1.2665
   43CHL1   C13 3134   5.180   5.967   7.492  0.5409  0.1271 -0.1146
   43CHL1   C18 3135   5.127   6.113   7.484  0.1000  0.1725  0.1309
   43CHL1  H18A 3136   5.213   6.182   7.499 -0.9924  1.7276 -0.5015
   43CHL1  H18B 3137   5.081   6.140   7.387  0.0077  1.0525  0.4050
   43CHL1  H18C 3138   5.046   6.128   7.560  0.0066  1.8614 -0.2557
   43CHL1   C12 3139   5.308   5.954   7.413 -0.1590  0.2175 -0.0681
   43CHL1  H12A 3140   5.370   6.041   7.442 -2.7825  1.3490  2.7997
   43CHL1  H12B 3141   5.355   5.855   7.430 -2.5712 -1.1085 -0.5745
   43CHL1   C11 3142   5.293   5.977   7.257 -1.1026 -0.1116 -1.0917
   43CHL1  H11A 3143   5.292   6.088   7.253  0.6985  0.1441  2.1931
   43CHL1  H11B 3144   5.397   5.951   7.227 -0.0421  2.3551  0.1477
   43CHL1    C9 3145   5.184   5.899   7.197  0.5266 -0.0157 -0.3856
   43CHL1    H9 3146   5.215   5.792   7.193  0.9414 -0.0345  2.1457
   43CHL1   C10 3147   5.156   5.928   7.037  0.4819  1.1351 -0.5356
   43CHL1   C19 3148   5.137   6.080   7.026  0.2752  0.1480 -0.0683
   43CHL1  H19A 3149   5.038   6.107   7.069 -0.8074 -1.7947 -1.1874
   43CHL1  H19B 3150   5.218   6.148   7.060  0.1707  1.8851 -2.9422
   43CHL1  H19C 3151   5.125   6.104   6.918  2.5496 -0.3180 -0.4548
   43CHL1    C1 3152   5.275   5.882   6.952 -0.2619  0.1117  0.8188
   43CHL1   H1A 3153   5.372   5.931   6.978  0.8316 -1.0346 -0.8975
   43CHL1   H1B 3154   5.274   5.774   6.980 -0.1152 -0.1010  0.0181
   43CHL1    C2 3155   5.244   5.904   6.805 -0.4954  0.1418  0.6923
   43CHL1   H2A 3156   5.336   5.886   6.746 -0.0051  1.0786  1.1543
   43CHL1   H2B 3157   5.216   6.009   6.783 -2.5668 -0.8756 -2.3443
   43CHL1   C20 3158   5.218   6.008   7.756 -0.6394  0.3154  0.2646
   43CHL1   H20 3159   5.169   6.108   7.751  1.3489  1.4330  1.6098
   43CHL1   C21 3160   5.370   6.020   7.746  0.3308  0.3845  0.0139
   43CHL1  H21A 3161   5.421   5.925   7.771  0.4004  0.8375  1.7347
   43CHL1  H21B 3162   5.397   6.082   7.834 -2.3183  2.7818 -0.6900
   43CHL1  H21C 3163   5.404   6.069   7.653 -1.2601 -0.6131 -1.1515
   43CHL1   C22 3164   5.188   5.951   7.894 -1.0400 -0.3761 -0.5892
   43CHL1  H22A 3165   5.082   5.924   7.910 -0.8246 -0.2557  1.3282
   43CHL1  H22B 3166   5.246   5.857   7.903  0.6504  0.3370 -3.1143
   43CHL1   C23 3167   5.229   6.039   8.021  0.1605  0.4670 -0.9089
   43CHL1  H23A 3168   5.338   6.055   8.011  0.9061 -1.7427  2.3402
   43CHL1  H23B 3169   5.166   6.131   8.022 -2.0152 -0.9627  0.1362
   43CHL1   C24 3170   5.212   5.980   8.164 -0.3029  0.3660  0.2706
   43CHL1  H24A 3171   5.102   5.973   8.175 -0.7904 -1.2603 -3.8382
   43CHL1  H24B 3172   5.246   5.876   8.182  1.4911  0.8030 -0.3025
   43CHL1   C25 3173   5.252   6.073   8.281 -1.3287 -1.0638  0.0986
   43CHL1   H25 3174   5.193   6.167   8.268  1.3262  0.6310 -0.3632
   43CHL1   C26 3175   5.200   6.006   8.417  0.5457  0.2130 -0.3302
   43CHL1  H26A 3176   5.227   6.072   8.502  1.8143  0.0724 -0.6014
   43CHL1  H26B 3177   5.092   5.984   8.405  0.3836  0.7693  0.0884
   43CHL1  H26C 3178   5.256   5.911   8.435  1.6343  0.8057 -0.5270
   43CHL1   C27 3179   5.401   6.111   8.286  0.0884 -0.4477  0.1415
   43CHL1  H27A 3180   5.416   6.165   8.382 -1.0921  1.9171 -0.9362
   43CHL1  H27B 3181   5.480   6.034   8.282 -1.4357 -2.0762 -0.0898
   43CHL1  H27C 3182   5.420   6.179   8.200  1.8700 -1.5061 -0.3492
   44CHL1    C3 3183   5.923   5.452   6.880  0.0377  0.1099 -0.5154
   44CHL1    H3 3184   5.901   5.561   6.882  0.5540  0.2082  0.6129
   44CHL1    O3 3185   5.905   5.406   6.746  0.1640 -0.0451 -0.4102
   44CHL1   H3' 3186   5.853   5.326   6.758  0.3342 -0.1153 -0.1157
   44CHL1    C4 3187   6.071   5.437   6.920 -0.1727 -0.5231  1.0770
   44CHL1   H4A 3188   6.107   5.335   6.893  1.3722  0.1318  0.5487
   44CHL1   H4B 3189   6.135   5.503   6.857 -0.2347 -1.1695  0.3207
   44CHL1    C5 3190   6.093   5.473   7.067 -0.0412  0.7018 -0.2009
   44CHL1    C6 3191   6.185   5.566   7.102  0.1774 -0.3543  0.1165
   44CHL1    H6 3192   6.241   5.612   7.019  0.2536 -0.7746 -0.0677
   44CHL1    C7 3193   6.215   5.599   7.249 -0.6331 -0.6517 -0.1855
   44CHL1   H7A 3194   6.324   5.600   7.269 -0.9220 -0.3748  1.5517
   44CHL1   H7B 3195   6.183   5.700   7.281  2.2336 -0.1298  1.4149
   44CHL1    C8 3196   6.153   5.501   7.357 -0.4790  0.2519  0.5245
   44CHL1    H8 3197   6.214   5.409   7.362 -0.6906  0.1513  1.4221
   44CHL1   C14 3198   6.163   5.556   7.502 -0.6979 -0.5828  0.7684
   44CHL1   H14 3199   6.098   5.646   7.505 -0.9872 -0.8013  1.1568
   44CHL1   C15 3200   6.296   5.618   7.552  0.3724 -0.1701 -0.0605
   44CHL1  H15A 3201   6.386   5.557   7.532 -0.2055 -0.8437 -0.6331
   44CHL1  H15B 3202   6.306   5.723   7.516 -2.3480  0.0789 -0.3496
   44CHL1   C16 3203   6.272   5.630   7.702  0.0776 -0.1722 -0.3945
   44CHL1  H16A 3204   6.357   5.584   7.757 -0.5232  0.1864  0.8884
   44CHL1  H16B 3205   6.261   5.737   7.732  0.0407 -0.7957  2.0477
   44CHL1   C17 3206   6.141   5.548   7.734  0.1632 -0.1255  0.6591
   44CHL1   H17 3207   6.052   5.614   7.729 -1.3336 -2.0166  1.1988
   44CHL1   C13 3208   6.115   5.456   7.610 -0.1656  0.2484 -0.0678
   44CHL1   C18 3209   6.213   5.335   7.613 -0.1758  0.9306  0.3289
   44CHL1  H18A 3210   6.319   5.365   7.627  0.4297 -1.9913  3.5466
   44CHL1  H18B 3211   6.178   5.274   7.700  0.9485  2.2755  1.7787
   44CHL1  H18C 3212   6.202   5.274   7.521  0.0801  0.7160  0.4397
   44CHL1   C12 3213   5.968   5.424   7.577 -0.2735 -0.3192 -0.2784
   44CHL1  H12A 3214   5.932   5.345   7.646 -0.9025 -0.8307 -1.1812
   44CHL1  H12B 3215   5.906   5.516   7.582 -1.1841 -0.9841  2.1277
   44CHL1   C11 3216   5.957   5.367   7.439 -0.2436  0.4351 -0.0924
   44CHL1  H11A 3217   6.011   5.270   7.449 -0.0474  0.7172  1.8590
   44CHL1  H11B 3218   5.851   5.343   7.419 -0.0063 -0.2844 -0.5501
   44CHL1    C9 3219   6.015   5.457   7.320  0.2271 -0.0838  0.9131
   44CHL1    H9 3220   5.947   5.546   7.318 -1.1104 -1.0713  0.8583
   44CHL1   C10 3221   6.008   5.402   7.170 -0.4548 -0.1168  0.0979
   44CHL1   C19 3222   6.051   5.255   7.177 -1.0166  0.8575 -0.5257
   44CHL1  H19A 3223   5.973   5.199   7.233 -0.5046 -0.5961 -1.2014
   44CHL1  H19B 3224   6.067   5.212   7.075 -0.1170 -1.2503  0.4405
   44CHL1  H19C 3225   6.154   5.242   7.217 -1.2756 -2.0350 -0.6192
   44CHL1    C1 3226   5.858   5.408   7.121  0.5334  0.1593 -0.3417
   44CHL1   H1A 3227   5.802   5.340   7.189  0.2410  0.8333  0.0970
   44CHL1   H1B 3228   5.830   5.514   7.135 -0.5220  0.0079 -1.1819
   44CHL1    C2 3229   5.828   5.378   6.975 -0.2959 -0.2892  0.1708
   44CHL1   H2A 3230   5.721   5.400   6.954 -0.0995  0.8983  0.3555
   44CHL1   H2B 3231   5.843   5.269   6.962 -2.3444 -1.2592  4.2746
   44CHL1   C20 3232   6.152   5.479   7.871  0.3777  0.2486  0.6669
   44CHL1   H20 3233   6.243   5.415   7.872  0.4733  0.3865  0.9053
   44CHL1   C21 3234   6.024   5.384   7.903 -0.0587 -0.6158  0.5782
   44CHL1  H21A 3235   6.022   5.293   7.841 -1.8676 -1.8046  2.2554
   44CHL1  H21B 3236   5.935   5.443   7.872  0.7667  0.2824 -0.1448
   44CHL1  H21C 3237   6.020   5.354   8.010 -0.4953  0.9733  1.0390
   44CHL1   C22 3238   6.180   5.573   7.981 -0.5461 -0.1486 -0.3939
   44CHL1  H22A 3239   6.273   5.629   7.957 -0.8113 -0.2895 -1.8181
   44CHL1  H22B 3240   6.099   5.648   7.992  1.1761  1.4301  3.1662
   44CHL1   C23 3241   6.206   5.515   8.122  0.9130 -0.2455 -0.2538
   44CHL1  H23A 3242   6.205   5.602   8.191  3.0580 -0.8016  0.5538
   44CHL1  H23B 3243   6.127   5.443   8.154  0.4148  0.2422 -0.3698
   44CHL1   C24 3244   6.339   5.436   8.152 -0.1664 -0.1312 -0.3788
   44CHL1  H24A 3245   6.330   5.336   8.105 -1.4582  0.4184 -1.3746
   44CHL1  H24B 3246   6.433   5.482   8.114  0.0390  1.2123  1.5770
   44CHL1   C25 3247   6.370   5.412   8.305 -0.4235 -0.3503 -1.0762
   44CHL1   H25 3248   6.453   5.339   8.320 -0.9953 -0.7130  0.5660
   44CHL1   C26 3249   6.407   5.540   8.375  0.6041  0.5773 -0.0762
   44CHL1  H26A 3250   6.323   5.611   8.358  0.1098  0.0919  0.3040
   44CHL1  H26B 3251   6.439   5.530   8.481 -2.2031  2.9671  1.1394
   44CHL1  H26C 3252   6.502   5.569   8.325  1.2537 -2.9056 -1.1688
   44CHL1   C27 3253   6.253   5.338   8.368  0.0386 -0.2542 -0.6675
   44CHL1  H27A 3254   6.293   5.308   8.467 -0.4675  2.4584  0.4440
   44CHL1  H27B 3255   6.156   5.393   8.370 -1.4344 -2.6324 -2.1656
   44CHL1  H27C 3256   6.225   5.242   8.320 -4.1281  0.2726  0.3170
   45CHL1    C3 3257   2.385   2.589   6.848 -0.9304  0.2922 -0.2363
   45CHL1    H3 3258   2.466   2.521   6.881 -0.5639  1.6606  1.9176
   45CHL1    O3 3259   2.363   2.581   6.710  0.1840  0.0365 -0.3912
   45CHL1   H3' 3260   2.300   2.652   6.696  0.4283  0.0125 -1.7518
   45CHL1    C4 3261   2.259   2.559   6.932 -0.0186  0.3608  0.4170
   45CHL1   H4A 3262   2.174   2.626   6.909  2.1689  2.8328 -1.1709
   45CHL1   H4B 3263   2.213   2.460   6.913  0.2314  0.2575  0.3354
   45CHL1    C5 3264   2.280   2.572   7.081 -0.5833 -0.7617  0.5411
   45CHL1    C6 3265   2.256   2.478   7.169 -1.0610 -0.1295 -0.2001
   45CHL1    H6 3266   2.210   2.390   7.121  0.5710  0.0194 -2.1604
   45CHL1    C7 3267   2.249   2.495   7.312  0.6068 -0.5392  0.0433
   45CHL1   H7A 3268   2.164   2.433   7.348  0.9550 -0.9851  0.1173
   45CHL1   H7B 3269   2.327   2.434   7.363 -0.3913 -1.0776  0.9638
   45CHL1    C8 3270   2.261   2.649   7.346 -0.0826 -0.2467  0.8076
   45CHL1    H8 3271   2.159   2.694   7.344 -0.2566 -0.6545  0.0794
   45CHL1   C14 3272   2.291   2.654   7.493  0.0091 -0.1675 -0.4151
   45CHL1   H14 3273   2.388   2.600   7.499  0.5726  0.8603  0.1247
   45CHL1   C15 3274   2.193   2.581   7.584 -0.4225 -0.9126 -0.1223
   45CHL1  H15A 3275   2.088   2.610   7.563 -0.3139 -1.2322 -1.1513
   45CHL1  H15B 3276   2.211   2.471   7.581  0.2648 -0.7961 -1.9784
   45CHL1   C16 3277   2.233   2.635   7.725 -0.6429 -0.2855 -0.7322
   45CHL1  H16A 3278   2.137   2.658   7.776 -0.1611 -1.9925  1.0258
   45CHL1  H16B 3279   2.281   2.550   7.777  0.6601  1.0396  0.3118
   45CHL1   C17 3280   2.338   2.750   7.694 -0.3092 -0.0015 -0.4802
   45CHL1   H17 3281   2.436   2.698   7.697  0.1877  0.9606  0.7441
   45CHL1   C13 3282   2.319   2.793   7.553  0.3704 -0.4531  0.1964
   45CHL1   C18 3283   2.190   2.881   7.548  0.6076 -0.3423  0.4946
   45CHL1  H18A 3284   2.095   2.835   7.583  1.1163 -1.5259  0.3712
   45CHL1  H18B 3285   2.209   2.977   7.599 -0.4923 -0.2816  0.8076
   45CHL1  H18C 3286   2.174   2.895   7.439  1.0632 -3.5293 -0.0864
   45CHL1   C12 3287   2.426   2.868   7.472  0.1359 -0.3983  0.7579
   45CHL1  H12A 3288   2.408   2.975   7.499  0.2538 -0.4810  1.1767
   45CHL1  H12B 3289   2.526   2.826   7.497  0.7366 -0.0648 -0.9834
   45CHL1   C11 3290   2.398   2.860   7.315 -0.2094  0.4098  0.1403
   45CHL1  H11A 3291   2.316   2.934   7.307  1.2503  2.0592 -0.2939
   45CHL1  H11B 3292   2.489   2.901   7.265  1.4002  1.1077  3.3963
   45CHL1    C9 3293   2.362   2.721   7.264  0.8498 -0.9578 -0.0589
   45CHL1    H9 3294   2.454   2.660   7.276 -0.5290 -2.8033  2.0237
   45CHL1   C10 3295   2.328   2.719   7.116  1.0818 -0.3065  0.2180
   45CHL1   C19 3296   2.212   2.828   7.092 -0.5448  0.7189  0.3869
   45CHL1  H19A 3297   2.260   2.925   7.115  1.3622 -0.0413 -0.1093
   45CHL1  H19B 3298   2.175   2.829   6.987 -1.6597  1.5673  0.7826
   45CHL1  H19C 3299   2.132   2.807   7.166 -1.4512  0.5895 -0.6124
   45CHL1    C1 3300   2.455   2.748   7.027  0.5467  0.1073  0.2400
   45CHL1   H1A 3301   2.485   2.854   7.044 -0.8544  0.6917 -0.6975
   45CHL1   H1B 3302   2.537   2.682   7.061  0.5791  0.2509  0.4440
   45CHL1    C2 3303   2.431   2.730   6.875  0.0428 -0.2657  0.4228
   45CHL1   H2A 3304   2.526   2.739   6.818  0.0758 -0.4691  0.4430
   45CHL1   H2B 3305   2.343   2.791   6.848 -2.0409 -1.5108  3.7874
   45CHL1   C20 3306   2.344   2.857   7.805  0.3374 -0.0277  0.0668
   45CHL1   H20 3307   2.251   2.919   7.799 -0.1740 -0.9041 -2.6670
   45CHL1   C21 3308   2.474   2.939   7.786  0.0664  0.7262 -0.0973
   45CHL1  H21A 3309   2.484   3.011   7.871 -1.3117  0.6298  0.1620
   45CHL1  H21B 3310   2.475   2.999   7.693  1.0981  1.6266  0.4565
   45CHL1  H21C 3311   2.563   2.873   7.787 -1.7546 -1.8619  1.0052
   45CHL1   C22 3312   2.352   2.802   7.949 -0.7891  0.4948 -0.2586
   45CHL1  H22A 3313   2.298   2.708   7.972  0.0001  0.2665  0.7208
   45CHL1  H22B 3314   2.458   2.771   7.964 -0.8744  0.7174  0.8660
   45CHL1   C23 3315   2.306   2.897   8.062  0.0466 -0.1507  0.5865
   45CHL1  H23A 3316   2.364   2.989   8.041 -1.1572  0.9590  1.8818
   45CHL1  H23B 3317   2.197   2.917   8.056 -0.3919 -2.5414 -0.5088
   45CHL1   C24 3318   2.340   2.842   8.200 -0.7719 -0.4519 -0.7811
   45CHL1  H24A 3319   2.276   2.754   8.224 -1.5033  0.3975  0.4923
   45CHL1  H24B 3320   2.442   2.798   8.195 -0.6494 -0.0196 -2.5316
   45CHL1   C25 3321   2.355   2.940   8.317  0.0580  0.7840  0.5054
   45CHL1   H25 3322   2.440   3.010   8.306  1.8359 -1.4051 -0.6554
   45CHL1   C26 3323   2.222   3.009   8.339 -0.2263  0.9438  0.1967
   45CHL1  H26A 3324   2.138   2.937   8.350 -0.6610  1.1766 -1.3249
   45CHL1  H26B 3325   2.220   3.053   8.441 -2.9024  0.7374  0.3016
   45CHL1  H26C 3326   2.196   3.084   8.261  0.4398  1.3747  0.3849
   45CHL1   C27 3327   2.391   2.851   8.437  0.4473  0.0550 -0.1829
   45CHL1  H27A 3328   2.391   2.911   8.530  0.4141  0.5747 -0.5156
   45CHL1  H27B 3329   2.317   2.769   8.453  0.2947  0.0059 -1.0873
   45CHL1  H27C 3330   2.489   2.799   8.427  0.7101  0.5359 -0.1362
   46CHL1    C3 3331   6.326   6.108   7.119  0.0212 -0.3190  0.3081
   46CHL1    H3 3332   6.240   6.108   7.189 -1.1098  0.4634 -1.0585
   46CHL1    O3 3333   6.283   6.149   6.991  0.3489 -0.5783 -0.9335
   46CHL1   H3' 3334   6.360   6.178   6.942  0.9654 -0.2519  0.1827
   46CHL1    C4 3335   6.439   6.208   7.161 -0.6120 -0.0374  0.6405
   46CHL1   H4A 3336   6.520   6.190   7.088 -1.5524 -0.9169 -0.2183
   46CHL1   H4B 3337   6.400   6.311   7.150 -0.8578 -0.2435 -0.4994
   46CHL1    C5 3338   6.480   6.167   7.306  0.4349 -1.1399  0.1974
   46CHL1    C6 3339   6.458   6.240   7.415  0.0472 -0.1771 -0.2101
   46CHL1    H6 3340   6.407   6.338   7.407  0.1190 -0.1885 -0.8669
   46CHL1    C7 3341   6.494   6.196   7.555  0.1762 -0.1125 -0.5917
   46CHL1   H7A 3342   6.541   6.275   7.617  0.9211 -0.5157 -0.6251
   46CHL1   H7B 3343   6.402   6.163   7.608 -0.3859 -1.3551 -2.2741
   46CHL1    C8 3344   6.596   6.073   7.558 -0.2924 -0.0677 -0.0913
   46CHL1    H8 3345   6.693   6.114   7.525  1.2392 -1.8537  1.9010
   46CHL1   C14 3346   6.603   6.021   7.700 -0.4371  0.7247  0.4296
   46CHL1   H14 3347   6.494   6.017   7.724 -0.2341  1.2465  1.4636
   46CHL1   C15 3348   6.648   6.114   7.809 -0.2782  0.4654 -0.1636
   46CHL1  H15A 3349   6.746   6.161   7.788  1.0708 -1.4091  1.5029
   46CHL1  H15B 3350   6.578   6.197   7.833  1.0461  1.4345  0.4621
   46CHL1   C16 3351   6.665   6.024   7.930  0.0277 -0.1105  0.1523
   46CHL1  H16A 3352   6.769   6.043   7.964 -0.8262  1.3521  2.1513
   46CHL1  H16B 3353   6.595   6.053   8.011 -1.0740 -1.6972 -0.1775
   46CHL1   C17 3354   6.636   5.877   7.882 -0.2077  0.2502 -0.0319
   46CHL1   H17 3355   6.529   5.854   7.901  0.0644 -1.9255 -0.7693
   46CHL1   C13 3356   6.660   5.885   7.729  0.3764  0.1915 -0.6314
   46CHL1   C18 3357   6.807   5.893   7.701 -0.2023  0.2149 -0.0350
   46CHL1  H18A 3358   6.869   5.943   7.779 -0.2696  0.6740 -0.2754
   46CHL1  H18B 3359   6.846   5.789   7.688  1.6312  0.8248  0.2598
   46CHL1  H18C 3360   6.824   5.941   7.603  2.2752 -2.0478 -0.8473
   46CHL1   C12 3361   6.594   5.784   7.632 -0.5109 -0.8936  0.0373
   46CHL1  H12A 3362   6.618   5.677   7.646 -2.6272 -1.2455  1.5581
   46CHL1  H12B 3363   6.486   5.784   7.660 -0.0265  0.6716  2.1590
   46CHL1   C11 3364   6.604   5.828   7.481  0.5913  0.6024 -0.5424
   46CHL1  H11A 3365   6.708   5.822   7.442  0.7481 -1.8820  0.0775
   46CHL1  H11B 3366   6.546   5.750   7.426  0.2660 -0.4139  1.1687
   46CHL1    C9 3367   6.548   5.972   7.461 -0.8572  0.7167 -0.3288
   46CHL1    H9 3368   6.445   5.953   7.497  0.2055 -1.8977  1.6930
   46CHL1   C10 3369   6.537   6.026   7.318 -0.1800  0.4450  0.0273
   46CHL1   C19 3370   6.678   6.031   7.256  0.5132  0.4773 -0.1693
   46CHL1  H19A 3371   6.753   6.088   7.314 -1.3672  1.2365  1.6267
   46CHL1  H19B 3372   6.723   5.929   7.263  1.3788  0.8549 -0.1216
   46CHL1  H19C 3373   6.679   6.071   7.153  2.0686  2.6619  0.6358
   46CHL1    C1 3374   6.449   5.916   7.236 -0.0390  0.8975 -0.3630
   46CHL1   H1A 3375   6.503   5.821   7.217 -1.6699  0.0416 -0.9064
   46CHL1   H1B 3376   6.368   5.873   7.299  1.0804 -1.4834 -0.4096
   46CHL1    C2 3377   6.385   5.967   7.103  0.4475 -0.1565  0.9827
   46CHL1   H2A 3378   6.315   5.890   7.065  0.0333  0.8916 -0.4977
   46CHL1   H2B 3379   6.462   5.973   7.024 -2.2604 -0.9792 -1.9136
   46CHL1   C20 3380   6.724   5.771   7.956  0.3206 -0.4736  0.0396
   46CHL1   H20 3381   6.830   5.802   7.941 -0.1584  1.6688  0.6342
   46CHL1   C21 3382   6.703   5.629   7.903  0.1746  0.2179  0.3176
   46CHL1  H21A 3383   6.745   5.547   7.966  1.7877 -1.6119 -2.8572
   46CHL1  H21B 3384   6.751   5.617   7.804 -2.1102 -0.6478 -0.7606
   46CHL1  H21C 3385   6.596   5.601   7.891 -0.4175  1.8505  1.3690
   46CHL1   C22 3386   6.703   5.784   8.111 -0.2153  0.4933 -1.0983
   46CHL1  H22A 3387   6.711   5.891   8.140  1.1863 -0.0059  0.5617
   46CHL1  H22B 3388   6.598   5.754   8.132 -0.7636  1.8519 -1.7776
   46CHL1   C23 3389   6.801   5.723   8.195  0.2058  0.3704  0.4888
   46CHL1  H23A 3390   6.800   5.613   8.176 -2.5514  0.3352  0.4213
   46CHL1  H23B 3391   6.901   5.764   8.169  0.0605  0.2477 -0.2839
   46CHL1   C24 3392   6.775   5.748   8.338 -0.4657  0.1486 -0.0836
   46CHL1  H24A 3393   6.794   5.856   8.355  2.0358  0.0635 -1.8042
   46CHL1  H24B 3394   6.670   5.722   8.363 -1.2292 -1.1603 -3.9460
   46CHL1   C25 3395   6.868   5.662   8.424 -0.5045  0.1099  0.8166
   46CHL1   H25 3396   6.893   5.570   8.367  0.5660  0.3755  0.8377
   46CHL1   C26 3397   6.991   5.748   8.444 -0.4079 -0.2329 -0.0037
   46CHL1  H26A 3398   6.965   5.840   8.501  1.9167  1.2398 -1.1817
   46CHL1  H26B 3399   7.045   5.681   8.514 -2.8830 -1.2345  1.0734
   46CHL1  H26C 3400   7.042   5.784   8.353 -1.0643  1.6671  0.3358
   46CHL1   C27 3401   6.802   5.612   8.554 -0.5721 -0.6497  0.5553
   46CHL1  H27A 3402   6.875   5.557   8.618  0.0021 -0.6703 -0.1067
   46CHL1  H27B 3403   6.763   5.694   8.618 -2.0307  0.3212 -1.4671
   46CHL1  H27C 3404   6.717   5.545   8.531 -1.4261 -0.3822  2.6503
   47CHL1    C3 3405   6.443   5.374   6.816  0.4164  0.1922  0.2220
   47CHL1    H3 3406   6.368   5.441   6.863  0.1540 -1.3258  2.1251
   47CHL1    O3 3407   6.435   5.400   6.681 -0.6309 -0.1138  0.0959
   47CHL1   H3' 3408   6.481   5.483   6.666 -0.9254  0.0820  0.2642
   47CHL1    C4 3409   6.581   5.424   6.868  0.0566 -0.3598 -0.5154
   47CHL1   H4A 3410   6.664   5.385   6.806 -0.1625 -1.8072  0.0791
   47CHL1   H4B 3411   6.587   5.533   6.845  2.6339 -0.1617  0.7682
   47CHL1    C5 3412   6.584   5.394   7.019  0.1789 -0.9977 -0.6443
   47CHL1    C6 3413   6.611   5.493   7.105 -0.0511  0.5779  0.4026
   47CHL1    H6 3414   6.640   5.589   7.059 -0.0188 -0.3543 -1.6409
   47CHL1    C7 3415   6.613   5.481   7.253  0.4350 -0.4465  0.0118
   47CHL1   H7A 3416   6.697   5.544   7.289 -0.5070 -0.0432  1.6057
   47CHL1   H7B 3417   6.521   5.533   7.287  0.0970  0.0840 -1.6274
   47CHL1    C8 3418   6.638   5.336   7.297 -0.4940  0.2033 -0.8383
   47CHL1    H8 3419   6.742   5.309   7.269  0.3136  0.5015  1.6459
   47CHL1   C14 3420   6.623   5.331   7.444 -0.0096 -0.0783  0.4880
   47CHL1   H14 3421   6.522   5.370   7.468  0.3262  0.3349  1.2551
   47CHL1   C15 3422   6.717   5.408   7.538  0.1154 -0.3200  0.3038
   47CHL1  H15A 3423   6.826   5.395   7.520  0.6080  1.6855  1.4830
   47CHL1  H15B 3424   6.707   5.518   7.525  0.7093 -0.3964 -0.9888
   47CHL1   C16 3425   6.683   5.363   7.680 -0.1102 -0.1338  0.3832
   47CHL1  H16A 3426   6.782   5.354   7.729 -0.5969 -0.7213  1.2857
   47CHL1  H16B 3427   6.612   5.430   7.733  0.8373  0.7847  0.5279
   47CHL1   C17 3428   6.602   5.232   7.660  0.1849  0.6236  0.2740
   47CHL1   H17 3429   6.494   5.257   7.673 -0.3746 -0.0130 -2.5629
   47CHL1   C13 3430   6.627   5.192   7.511 -0.0397 -0.3327  0.2316
   47CHL1   C18 3431   6.764   5.125   7.485 -0.4747 -0.3332 -0.1567
   47CHL1  H18A 3432   6.789   5.146   7.378 -2.2055 -1.2536 -0.7791
   47CHL1  H18B 3433   6.844   5.166   7.549 -0.6218  0.6447 -0.5750
   47CHL1  H18C 3434   6.769   5.016   7.507  0.6981 -0.5601 -1.4023
   47CHL1   C12 3435   6.520   5.105   7.442  0.7003 -0.8273  0.1280
   47CHL1  H12A 3436   6.545   5.003   7.479  3.7839  0.4617  1.9305
   47CHL1  H12B 3437   6.420   5.137   7.479  0.9741 -0.6409  0.7183
   47CHL1   C11 3438   6.538   5.100   7.289  0.6717  0.4491 -0.2738
   47CHL1  H11A 3439   6.630   5.042   7.268  2.0541  2.1767  0.7153
   47CHL1  H11B 3440   6.451   5.045   7.248  2.3412 -1.8132 -0.9512
   47CHL1    C9 3441   6.533   5.245   7.228 -0.3761  0.2084 -0.6380
   47CHL1    H9 3442   6.434   5.290   7.252 -0.0992  1.7208 -2.1441
   47CHL1   C10 3443   6.546   5.255   7.076  0.3673 -0.2021  0.0521
   47CHL1   C19 3444   6.655   5.146   7.031  0.8119 -0.2270 -0.2830
   47CHL1  H19A 3445   6.702   5.164   6.932 -1.9639  0.8917 -1.4993
   47CHL1  H19B 3446   6.738   5.147   7.106  1.2926 -0.7890 -0.7943
   47CHL1  H19C 3447   6.607   5.048   7.011 -1.4519  1.0380 -1.3845
   47CHL1    C1 3448   6.411   5.217   7.008 -0.5252  0.4981 -0.1355
   47CHL1   H1A 3449   6.395   5.111   7.037 -2.9820 -0.1725 -3.3853
   47CHL1   H1B 3450   6.329   5.282   7.044 -2.3348 -0.6220 -2.0363
   47CHL1    C2 3451   6.420   5.225   6.851  0.2281  0.4549  0.5321
   47CHL1   H2A 3452   6.317   5.191   6.827 -0.0133 -0.7930  3.0629
   47CHL1   H2B 3453   6.493   5.156   6.805 -0.2395 -0.2938  0.8952
   47CHL1   C20 3454   6.638   5.130   7.770 -0.3045  0.2429  0.2452
   47CHL1   H20 3455   6.745   5.104   7.754  0.0245  1.0059  1.1258
   47CHL1   C21 3456   6.555   4.998   7.756  0.6488 -1.5385 -0.4131
   47CHL1  H21A 3457   6.455   5.024   7.717  1.0932 -0.6854 -1.0212
   47CHL1  H21B 3458   6.553   4.945   7.854  1.9136 -2.3292 -0.7888
   47CHL1  H21C 3459   6.616   4.924   7.699  1.0482 -1.3562 -0.2261
   47CHL1   C22 3460   6.611   5.180   7.912  0.2462  0.7040  0.4025
   47CHL1  H22A 3461   6.640   5.287   7.921  0.0416  0.7377  0.6503
   47CHL1  H22B 3462   6.504   5.178   7.942  0.3243 -2.3633  0.7418
   47CHL1   C23 3463   6.693   5.107   8.018 -0.3680 -0.1725 -0.1711
   47CHL1  H23A 3464   6.689   4.997   8.002  1.1596 -0.2299 -0.3753
   47CHL1  H23B 3465   6.803   5.118   8.004  0.5111 -0.8692  4.6031
   47CHL1   C24 3466   6.671   5.149   8.165  0.4328  0.8072 -0.4977
   47CHL1  H24A 3467   6.675   5.259   8.173 -1.4145  0.8784 -0.1540
   47CHL1  H24B 3468   6.565   5.123   8.184  0.2582 -0.4050 -2.7349
   47CHL1   C25 3469   6.779   5.093   8.264 -0.2963  0.4936 -0.3586
   47CHL1   H25 3470   6.783   4.984   8.242  1.6499  1.2772 -4.9054
   47CHL1   C26 3471   6.918   5.149   8.237  0.2358  0.0722 -0.2079
   47CHL1  H26A 3472   6.973   5.076   8.174 -0.1327 -2.3612  2.0908
   47CHL1  H26B 3473   6.908   5.233   8.166 -0.2243 -0.5958 -0.9581
   47CHL1  H26C 3474   6.973   5.182   8.328 -0.6870 -0.6416  0.6459
   47CHL1   C27 3475   6.747   5.133   8.407 -0.9787  0.3104 -0.1258
   47CHL1  H27A 3476   6.830   5.109   8.476 -0.5380  2.9969  0.3890
   47CHL1  H27B 3477   6.733   5.243   8.412  2.4414  0.8618 -0.5934
   47CHL1  H27C 3478   6.654   5.090   8.449 -1.4695  1.3356 -0.1243
   48CHL1    C3 3479   1.615   6.685   6.483 -0.0868  0.1390  0.0992
   48CHL1    H3 3480   1.679   6.603   6.522 -0.1373 -0.5603 -1.2083
   48CHL1    O3 3481   1.648   6.726   6.348 -0.3927 -0.2894 -0.2096
   48CHL1   H3' 3482   1.586   6.791   6.315 -1.0128 -1.8793 -2.3905
   48CHL1    C4 3483   1.472   6.625   6.501  0.0203 -0.2151 -0.0231
   48CHL1   H4A 3484   1.396   6.696   6.463 -1.1364 -1.3320  0.1464
   48CHL1   H4B 3485   1.459   6.548   6.422  1.7473 -0.6685  0.1017
   48CHL1    C5 3486   1.423   6.583   6.638  0.5106  0.0207  0.4354
   48CHL1    C6 3487   1.383   6.455   6.666 -0.0656  0.6078 -0.3060
   48CHL1    H6 3488   1.381   6.380   6.586 -0.0990 -0.7750  0.9570
   48CHL1    C7 3489   1.340   6.410   6.798  0.4364  0.6803  0.0864
   48CHL1   H7A 3490   1.252   6.342   6.794  1.8561 -1.4254  2.3102
   48CHL1   H7B 3491   1.421   6.341   6.827 -0.7218 -0.7185  0.1184
   48CHL1    C8 3492   1.331   6.520   6.906  0.0886 -0.4215  0.1262
   48CHL1    H8 3493   1.230   6.566   6.898 -0.6697 -1.6843  1.8366
   48CHL1   C14 3494   1.334   6.449   7.045  0.3686 -0.7138 -0.4566
   48CHL1   H14 3495   1.432   6.396   7.050  0.1842 -0.9377  1.5350
   48CHL1   C15 3496   1.228   6.338   7.081 -0.3532 -0.0302  0.0861
   48CHL1  H15A 3497   1.129   6.372   7.045 -0.6867 -2.5719 -1.6599
   48CHL1  H15B 3498   1.248   6.243   7.026 -1.1706  0.4966 -1.1850
   48CHL1   C16 3499   1.228   6.331   7.233 -0.0446  0.2788 -0.0053
   48CHL1  H16A 3500   1.126   6.356   7.268  0.4304  0.0793  1.6208
   48CHL1  H16B 3501   1.261   6.233   7.273 -0.1716 -0.5524 -1.8451
   48CHL1   C17 3502   1.334   6.444   7.279  0.1361  0.0446 -0.9495
   48CHL1   H17 3503   1.436   6.401   7.280 -0.2837 -1.0992  1.7392
   48CHL1   C13 3504   1.340   6.547   7.164 -0.2008  0.1069  0.3285
   48CHL1   C18 3505   1.222   6.644   7.164  0.5553  0.0031 -0.5486
   48CHL1  H18A 3506   1.203   6.674   7.059  2.0387 -0.6174 -1.0344
   48CHL1  H18B 3507   1.134   6.586   7.198 -0.1229  1.8719  1.1518
   48CHL1  H18C 3508   1.220   6.734   7.231  0.7976 -0.1769 -0.2941
   48CHL1   C12 3509   1.468   6.629   7.142 -0.0891  0.3320  0.0616
   48CHL1  H12A 3510   1.465   6.706   7.223 -0.1643 -0.2426  0.6118
   48CHL1  H12B 3511   1.557   6.565   7.159  0.3701  0.9932  0.1902
   48CHL1   C11 3512   1.465   6.710   7.012 -0.2574 -0.3391 -0.0768
   48CHL1  H11A 3513   1.387   6.790   7.008  0.6118  0.4885 -1.0998
   48CHL1  H11B 3514   1.557   6.772   7.005 -0.8922  0.4247 -2.5065
   48CHL1    C9 3515   1.440   6.622   6.890 -0.8205  0.5082  0.4390
   48CHL1    H9 3516   1.529   6.556   6.879  1.0815  2.9471  0.3938
   48CHL1   C10 3517   1.451   6.689   6.745  0.4132 -1.3341  0.2454
   48CHL1   C19 3518   1.342   6.803   6.739  0.5436 -0.2117  0.1321
   48CHL1  H19A 3519   1.255   6.769   6.800  0.3806  0.5427  0.3209
   48CHL1  H19B 3520   1.381   6.897   6.783  1.8285 -0.6218 -0.0663
   48CHL1  H19C 3521   1.304   6.823   6.637 -0.5505  1.8145  0.8942
   48CHL1    C1 3522   1.590   6.762   6.722 -0.8178 -0.5974 -0.4349
   48CHL1   H1A 3523   1.597   6.852   6.787  2.5247 -0.6618 -0.5496
   48CHL1   H1B 3524   1.677   6.698   6.743 -0.1141  0.2534 -0.6816
   48CHL1    C2 3525   1.624   6.801   6.572 -0.1947  0.2090  0.6365
   48CHL1   H2A 3526   1.722   6.852   6.560  0.2541 -0.3017  1.9163
   48CHL1   H2B 3527   1.544   6.872   6.542 -0.8211 -0.4320  0.7510
   48CHL1   C20 3528   1.312   6.490   7.426  0.5645 -0.2597  0.1130
   48CHL1   H20 3529   1.209   6.531   7.432  0.7504  0.0392  1.9614
   48CHL1   C21 3530   1.396   6.608   7.471  0.2097  0.2287  0.7882
   48CHL1  H21A 3531   1.412   6.603   7.581 -1.9832  0.4278  1.1669
   48CHL1  H21B 3532   1.357   6.707   7.438 -0.5753 -0.0706  0.7933
   48CHL1  H21C 3533   1.500   6.597   7.433  0.5654 -1.1679  2.0564
   48CHL1   C22 3534   1.318   6.379   7.532  0.5883 -0.0555 -0.7108
   48CHL1  H22A 3535   1.279   6.411   7.631 -1.5904 -0.2873 -1.4313
   48CHL1  H22B 3536   1.253   6.298   7.490 -0.9217  1.7206 -2.0031
   48CHL1   C23 3537   1.460   6.307   7.553 -0.3793 -0.3366 -0.2079
   48CHL1  H23A 3538   1.499   6.264   7.458  0.8128 -0.5784  0.3640
   48CHL1  H23B 3539   1.536   6.382   7.585  0.6661 -2.0086  1.4654
   48CHL1   C24 3540   1.455   6.200   7.666 -0.4220  0.2117 -0.4115
   48CHL1  H24A 3541   1.425   6.250   7.760 -2.0794  1.3370 -1.4664
   48CHL1  H24B 3542   1.365   6.137   7.652 -0.2306 -0.6699  1.9758
   48CHL1   C25 3543   1.590   6.126   7.691 -0.1580 -0.2459 -0.2437
   48CHL1   H25 3544   1.671   6.199   7.670 -0.3936  0.2090  0.4022
   48CHL1   C26 3545   1.612   6.050   7.826  0.7901 -0.3019 -0.2244
   48CHL1  H26A 3546   1.612   6.122   7.910  1.0017  0.1925 -0.6484
   48CHL1  H26B 3547   1.528   5.980   7.851  0.9745 -0.6302 -0.5118
   48CHL1  H26C 3548   1.708   5.995   7.836 -0.3315 -2.0624  1.9470
   48CHL1   C27 3549   1.610   6.018   7.585  0.4523 -0.4623  0.4043
   48CHL1  H27A 3550   1.715   5.981   7.582  1.3088  1.6394  1.8342
   48CHL1  H27B 3551   1.537   5.936   7.596 -0.5699 -0.0671 -2.5941
   48CHL1  H27C 3552   1.597   6.072   7.489 -2.8523  0.7520  1.4133
   49CHL1    C3 3553   0.197   2.225   6.929 -0.4674  0.0347  0.1979
   49CHL1    H3 3554   0.129   2.137   6.944 -0.7113  0.1954  0.0464
   49CHL1    O3 3555   0.197   2.269   6.798  0.2050  0.3332  0.1636
   49CHL1   H3' 3556   0.234   2.194   6.752  2.2156  0.9602  0.6319
   49CHL1    C4 3557   0.138   2.346   7.011  0.0977 -0.2264 -0.0524
   49CHL1   H4A 3558   0.180   2.442   6.974 -0.4939  0.9183  2.0922
   49CHL1   H4B 3559   0.030   2.343   6.987 -0.1279  1.0022  0.7541
   49CHL1    C5 3560   0.158   2.325   7.161  0.0373  0.3992  0.5148
   49CHL1    C6 3561   0.055   2.338   7.247 -0.6277 -0.4964 -0.6541
   49CHL1    H6 3562  -0.043   2.372   7.210 -0.5311  0.2053 -0.2766
   49CHL1    C7 3563   0.055   2.337   7.400 -0.0543  0.3180  0.2572
   49CHL1   H7A 3564  -0.008   2.412   7.451 -1.6707 -0.0729 -1.0826
   49CHL1   H7B 3565   0.014   2.239   7.431 -1.1719  1.0191  1.0479
   49CHL1    C8 3566   0.204   2.335   7.453  0.2895  0.2920 -0.7943
   49CHL1    H8 3567   0.232   2.442   7.456  0.5105  0.2134  1.0511
   49CHL1   C14 3568   0.215   2.276   7.595  0.8739 -0.6942  0.5010
   49CHL1   H14 3569   0.190   2.168   7.583 -1.0899 -0.3218  0.9821
   49CHL1   C15 3570   0.122   2.323   7.714 -0.3518 -0.4177  0.2815
   49CHL1  H15A 3571   0.124   2.433   7.706 -0.9427 -0.3774  0.6460
   49CHL1  H15B 3572   0.016   2.294   7.696 -1.7348  2.8525  2.2642
   49CHL1   C16 3573   0.178   2.263   7.841  0.0240 -0.3929 -0.1531
   49CHL1  H16A 3574   0.178   2.341   7.920 -0.5519 -2.0283  1.5210
   49CHL1  H16B 3575   0.107   2.183   7.871  1.4395 -1.3269  0.8635
   49CHL1   C17 3576   0.314   2.204   7.797 -0.1758 -0.0389 -0.2798
   49CHL1   H17 3577   0.301   2.096   7.775  0.0678 -0.1911  0.3289
   49CHL1   C13 3578   0.354   2.265   7.656  0.4052  0.0907  0.4328
   49CHL1   C18 3579   0.414   2.399   7.685  0.0771 -0.1196  0.3797
   49CHL1  H18A 3580   0.361   2.459   7.762  1.6627  1.6677  0.1521
   49CHL1  H18B 3581   0.517   2.389   7.727  0.5084  0.3947 -0.5187
   49CHL1  H18C 3582   0.425   2.466   7.597  2.8254  1.4353  1.7424
   49CHL1   C12 3583   0.448   2.192   7.567  0.0298 -0.0954 -0.2181
   49CHL1  H12A 3584   0.553   2.195   7.604 -0.6199 -0.2701  1.7613
   49CHL1  H12B 3585   0.427   2.083   7.559 -0.1947 -0.0148 -0.8056
   49CHL1   C11 3586   0.443   2.253   7.423  0.1992 -0.6478 -0.7363
   49CHL1  H11A 3587   0.487   2.355   7.420  0.0187 -0.5161  0.3885
   49CHL1  H11B 3588   0.502   2.188   7.355  1.4186 -0.6014  0.2379
   49CHL1    C9 3589   0.297   2.255   7.358 -0.3657  0.6133  0.2742
   49CHL1    H9 3590   0.264   2.149   7.361  0.3095  0.3084 -1.6389
   49CHL1   C10 3591   0.292   2.289   7.204 -0.1577  0.2988  0.2174
   49CHL1   C19 3592   0.370   2.419   7.182  0.0824 -0.3412  0.4598
   49CHL1  H19A 3593   0.344   2.510   7.240 -1.5653  1.0281 -2.2516
   49CHL1  H19B 3594   0.478   2.396   7.199  0.2092  1.5389  2.5948
   49CHL1  H19C 3595   0.380   2.436   7.073  2.0736 -2.5217  0.2141
   49CHL1    C1 3596   0.345   2.169   7.119 -0.6640 -0.0848 -0.1269
   49CHL1   H1A 3597   0.449   2.146   7.151 -0.6530 -1.2622 -0.9268
   49CHL1   H1B 3598   0.285   2.077   7.139  0.9092 -1.7335 -2.5059
   49CHL1    C2 3599   0.337   2.193   6.970 -1.0579  0.2622 -0.3426
   49CHL1   H2A 3600   0.381   2.110   6.911 -0.4495  0.2711  0.0836
   49CHL1   H2B 3601   0.401   2.284   6.960 -3.7132  2.3997  0.8799
   49CHL1   C20 3602   0.410   2.209   7.908 -0.6494 -0.2201  0.1035
   49CHL1   H20 3603   0.416   2.318   7.930 -0.5819  0.1418 -1.6053
   49CHL1   C21 3604   0.551   2.159   7.882  0.1372 -0.5128  0.2873
   49CHL1  H21A 3605   0.614   2.165   7.973  1.1839  1.3946 -0.5100
   49CHL1  H21B 3606   0.597   2.232   7.813 -3.0323  0.7169 -0.7257
   49CHL1  H21C 3607   0.559   2.054   7.846  0.2655  0.9288 -4.5525
   49CHL1   C22 3608   0.360   2.137   8.031  0.6676 -0.4169 -0.2166
   49CHL1  H22A 3609   0.250   2.122   8.023  1.0864 -2.9577 -2.7256
   49CHL1  H22B 3610   0.400   2.034   8.023 -0.6558 -0.8161 -2.9920
   49CHL1   C23 3611   0.381   2.214   8.166  0.5889 -0.4270 -0.4660
   49CHL1  H23A 3612   0.491   2.223   8.178  0.2762  1.3614  1.6855
   49CHL1  H23B 3613   0.345   2.318   8.151 -0.1793 -0.4849  0.8496
   49CHL1   C24 3614   0.319   2.152   8.283 -0.1664  0.2191 -0.0783
   49CHL1  H24A 3615   0.211   2.127   8.273 -0.7222  1.7781  1.4891
   49CHL1  H24B 3616   0.378   2.059   8.292  1.1050  1.0621  0.5448
   49CHL1   C25 3617   0.323   2.237   8.410  0.2792  0.1576  0.1287
   49CHL1   H25 3618   0.431   2.259   8.425  0.1452  1.8678 -1.1463
   49CHL1   C26 3619   0.232   2.361   8.401 -0.6029 -0.1123 -0.6455
   49CHL1  H26A 3620   0.275   2.432   8.327 -1.4244  0.7693 -0.2952
   49CHL1  H26B 3621   0.126   2.341   8.375 -0.8313  0.3566 -0.0929
   49CHL1  H26C 3622   0.229   2.420   8.495 -0.3707 -1.7990  0.4651
   49CHL1   C27 3623   0.280   2.155   8.534 -0.4009  0.0159  0.6826
   49CHL1  H27A 3624   0.172   2.128   8.528 -0.3982  0.1306  0.0554
   49CHL1  H27B 3625   0.345   2.065   8.529  0.2331  0.5370 -1.4538
   49CHL1  H27C 3626   0.315   2.207   8.625 -1.7316  0.2647  1.0773
   50CHL1    C3 3627   2.999   2.613   6.793  0.3584  0.2819 -1.8695
   50CHL1    H3 3628   2.992   2.723   6.811  0.8547 -0.1317  1.5543
   50CHL1    O3 3629   3.051   2.590   6.665 -0.2133  0.4330 -0.5506
   50CHL1   H3' 3630   3.010   2.507   6.640  1.9594 -0.6261 -0.7773
   50CHL1    C4 3631   3.098   2.549   6.893  0.6768 -0.1499 -0.0391
   50CHL1   H4A 3632   3.117   2.444   6.865  1.2488 -0.2635  0.7435
   50CHL1   H4B 3633   3.194   2.601   6.872 -0.6679  1.3179 -3.3133
   50CHL1    C5 3634   3.048   2.561   7.036 -0.4458  0.0984 -0.5200
   50CHL1    C6 3635   3.113   2.628   7.133  0.5739  0.2802 -0.3815
   50CHL1    H6 3636   3.205   2.677   7.099 -0.0043  0.1294 -2.2700
   50CHL1    C7 3637   3.067   2.626   7.275  0.3756 -0.1563 -0.2765
   50CHL1   H7A 3638   3.153   2.617   7.345  1.4364 -2.9518 -1.7815
   50CHL1   H7B 3639   3.009   2.718   7.298 -1.6303 -1.7834  1.5140
   50CHL1    C8 3640   2.962   2.521   7.313  0.2372 -0.4585 -0.8109
   50CHL1    H8 3641   2.993   2.415   7.316 -0.3535 -0.6427  1.7243
   50CHL1   C14 3642   2.903   2.563   7.448 -0.1404  0.0026  0.7333
   50CHL1   H14 3643   2.847   2.657   7.430  0.5188  0.2057 -0.3726
   50CHL1   C15 3644   2.996   2.592   7.565  0.2265 -0.0166  0.0963
   50CHL1  H15A 3645   3.071   2.510   7.572 -0.6203 -0.9326 -1.1951
   50CHL1  H15B 3646   3.054   2.687   7.570  1.0848 -0.5624  0.9428
   50CHL1   C16 3647   2.906   2.571   7.690  0.0769  0.2804 -0.1187
   50CHL1  H16A 3648   2.945   2.480   7.741  0.3639 -0.4944 -1.6486
   50CHL1  H16B 3649   2.905   2.660   7.757 -0.4391  0.9172 -0.9547
   50CHL1   C17 3650   2.763   2.540   7.643  0.0378  0.1320  0.0294
   50CHL1   H17 3651   2.713   2.638   7.626 -0.4146  0.0822  0.9671
   50CHL1   C13 3652   2.788   2.475   7.497 -0.1487 -0.2600  0.4037
   50CHL1   C18 3653   2.827   2.325   7.520 -0.2196  0.3917  0.0606
   50CHL1  H18A 3654   2.879   2.306   7.616 -1.5010  0.9926  0.8832
   50CHL1  H18B 3655   2.744   2.252   7.509 -0.6237  0.7775  0.5156
   50CHL1  H18C 3656   2.904   2.311   7.440  0.9069  0.3280  1.1262
   50CHL1   C12 3657   2.674   2.473   7.384  0.3186 -0.5381  0.0459
   50CHL1  H12A 3658   2.598   2.398   7.412  0.8162 -0.0919  2.9178
   50CHL1  H12B 3659   2.627   2.573   7.397  0.3115 -0.7202  1.4780
   50CHL1   C11 3660   2.727   2.434   7.245  0.0731  0.0566 -0.5645
   50CHL1  H11A 3661   2.763   2.329   7.252  3.3117  1.1210  0.9818
   50CHL1  H11B 3662   2.646   2.442   7.169 -2.8186 -0.5493  2.2307
   50CHL1    C9 3663   2.852   2.525   7.207 -0.4676 -0.8211  0.2929
   50CHL1    H9 3664   2.815   2.630   7.208  2.1567  0.1811  0.5784
   50CHL1   C10 3665   2.906   2.502   7.061  0.7576  1.0441 -0.2938
   50CHL1   C19 3666   2.922   2.351   7.039 -0.3082  1.2295  0.2056
   50CHL1  H19A 3667   3.004   2.310   7.101  0.7270  0.0206 -1.8469
   50CHL1  H19B 3668   2.822   2.303   7.048  0.1766  0.5351  2.4191
   50CHL1  H19C 3669   2.952   2.317   6.937  0.4335 -1.5599  1.2590
   50CHL1    C1 3670   2.808   2.561   6.956  0.2515 -0.0930 -0.1988
   50CHL1   H1A 3671   2.709   2.510   6.964 -0.3836  1.0828 -0.3801
   50CHL1   H1B 3672   2.781   2.667   6.975  0.3344 -0.4262  2.0434
   50CHL1    C2 3673   2.863   2.550   6.807 -0.2200  0.3627 -0.3640
   50CHL1   H2A 3674   2.795   2.615   6.747 -0.0601  0.6648 -0.2248
   50CHL1   H2B 3675   2.862   2.443   6.778  1.4554  0.2124  0.0610
   50CHL1   C20 3676   2.686   2.453   7.741 -0.3680  0.0356  0.4166
   50CHL1   H20 3677   2.752   2.367   7.766 -0.4063 -0.7251 -1.8479
   50CHL1   C21 3678   2.559   2.394   7.683  0.5450  0.6537 -0.2362
   50CHL1  H21A 3679   2.575   2.315   7.606 -0.1912  0.2182  0.0454
   50CHL1  H21B 3680   2.496   2.476   7.643 -0.3801 -0.7518 -1.7767
   50CHL1  H21C 3681   2.500   2.344   7.763  0.1400  2.1039  0.3947
   50CHL1   C22 3682   2.663   2.523   7.878  0.6573 -0.5360 -0.0187
   50CHL1  H22A 3683   2.746   2.596   7.895 -0.3721  1.0917 -1.6250
   50CHL1  H22B 3684   2.571   2.584   7.882  2.0118  1.6640 -0.2589
   50CHL1   C23 3685   2.665   2.429   7.998 -0.8470  0.3575  0.1765
   50CHL1  H23A 3686   2.592   2.347   7.980  1.4030 -1.0885 -3.2918
   50CHL1  H23B 3687   2.757   2.367   7.994 -2.3619 -2.0030 -0.5872
   50CHL1   C24 3688   2.635   2.492   8.133 -0.1580  0.4041  0.3592
   50CHL1  H24A 3689   2.715   2.560   8.167  0.6538 -0.4717  0.2562
   50CHL1  H24B 3690   2.547   2.557   8.117  1.8818  3.1249 -0.4084
   50CHL1   C25 3691   2.610   2.372   8.237  0.0868  0.7140 -0.0733
   50CHL1   H25 3692   2.518   2.317   8.208 -0.4787  0.0717  2.6163
   50CHL1   C26 3693   2.728   2.272   8.241  0.0244 -0.4421  0.2452
   50CHL1  H26A 3694   2.821   2.328   8.261 -0.1743  0.7673 -1.9275
   50CHL1  H26B 3695   2.713   2.198   8.323 -1.1818 -0.6984 -0.1781
   50CHL1  H26C 3696   2.750   2.223   8.143  0.8847  1.4226 -0.5474
   50CHL1   C27 3697   2.586   2.449   8.368  0.6948  0.4873 -0.7214
   50CHL1  H27A 3698   2.547   2.377   8.443  0.4739  0.9210 -0.4212
   50CHL1  H27B 3699   2.679   2.504   8.396 -0.0104  0.6457  1.5022
   50CHL1  H27C 3700   2.505   2.525   8.360 -0.2402 -0.1639  1.7554
   51CHL1    C3 3701   6.561   1.987   7.004 -0.2483  0.0990  0.3576
   51CHL1    H3 3702   6.666   1.952   7.008 -0.5326 -0.7307  0.6949
   51CHL1    O3 3703   6.527   2.011   6.867  0.3724  0.1900 -0.6997
   51CHL1   H3' 3704   6.564   1.934   6.824  2.6127 -1.0787  3.0212
   51CHL1    C4 3705   6.471   1.879   7.066  0.0951  0.0399 -0.2688
   51CHL1   H4A 3706   6.365   1.908   7.052  0.2890  0.0221 -1.9763
   51CHL1   H4B 3707   6.485   1.789   7.002 -1.3914  0.4673 -1.2396
   51CHL1    C5 3708   6.494   1.868   7.221 -0.4498  0.7329  0.4383
   51CHL1    C6 3709   6.525   1.749   7.277  0.2696 -0.1370 -0.3570
   51CHL1    H6 3710   6.520   1.661   7.212 -2.9363 -0.4271  0.1350
   51CHL1    C7 3711   6.538   1.731   7.432  0.5736  0.3511  0.2126
   51CHL1   H7A 3712   6.466   1.648   7.452  0.6740  0.2551  0.1760
   51CHL1   H7B 3713   6.641   1.698   7.456 -0.1566 -3.1892 -0.8604
   51CHL1    C8 3714   6.483   1.859   7.509  0.3799  0.6323 -0.4533
   51CHL1    H8 3715   6.373   1.857   7.495  0.1359 -1.4570  1.2385
   51CHL1   C14 3716   6.519   1.857   7.659  1.2612  0.4409  0.3802
   51CHL1   H14 3717   6.629   1.860   7.642  1.4294 -1.1163  1.0654
   51CHL1   C15 3718   6.497   1.726   7.744  0.0007 -0.1280 -0.0375
   51CHL1  H15A 3719   6.399   1.678   7.719  0.0235  0.1769 -0.7264
   51CHL1  H15B 3720   6.568   1.643   7.724 -3.1809 -3.0430 -0.2961
   51CHL1   C16 3721   6.507   1.773   7.894 -0.6670  0.0463  0.3646
   51CHL1  H16A 3722   6.406   1.750   7.936 -0.9776  1.5447  0.5059
   51CHL1  H16B 3723   6.579   1.712   7.952 -1.1678  2.3571  3.7202
   51CHL1   C17 3724   6.533   1.923   7.884 -0.6164 -0.6454  0.3986
   51CHL1   H17 3725   6.643   1.938   7.873 -0.8661  0.7942 -0.4461
   51CHL1   C13 3726   6.477   1.975   7.741  0.3559  0.4662 -0.4178
   51CHL1   C18 3727   6.324   1.967   7.761  0.5153 -0.4754 -0.1940
   51CHL1  H18A 3728   6.279   2.063   7.795 -1.3548 -0.9229 -1.2589
   51CHL1  H18B 3729   6.289   1.948   7.658  0.1332  0.4224 -0.2378
   51CHL1  H18C 3730   6.296   1.887   7.834 -1.0125 -0.5090 -0.7762
   51CHL1   C12 3731   6.526   2.108   7.681  0.2862 -0.3027 -0.6892
   51CHL1  H12A 3732   6.472   2.189   7.734 -1.1163 -1.2072 -0.6928
   51CHL1  H12B 3733   6.636   2.121   7.692  0.1512 -0.7106  1.5693
   51CHL1   C11 3734   6.484   2.116   7.533  0.0870  0.1953  0.6560
   51CHL1  H11A 3735   6.374   2.126   7.528  0.0817 -0.2872 -0.8104
   51CHL1  H11B 3736   6.523   2.213   7.495 -2.7139  0.1861 -2.7719
   51CHL1    C9 3737   6.528   1.990   7.449  0.3406  0.2050 -0.0629
   51CHL1    H9 3738   6.638   1.998   7.441  0.3496 -0.6957 -0.9547
   51CHL1   C10 3739   6.474   2.000   7.299 -0.4472  0.2332  1.1342
   51CHL1   C19 3740   6.328   2.041   7.292 -0.1887 -0.4039  0.0797
   51CHL1  H19A 3741   6.269   1.957   7.335  0.5462 -2.1724 -2.1671
   51CHL1  H19B 3742   6.316   2.142   7.338  1.4721  0.7879 -1.9102
   51CHL1  H19C 3743   6.304   2.053   7.185  2.6313 -0.0099 -0.5900
   51CHL1    C1 3744   6.567   2.110   7.235 -0.4038  0.1231 -0.0333
   51CHL1   H1A 3745   6.554   2.212   7.277  1.0922 -0.1716  1.2083
   51CHL1   H1B 3746   6.671   2.080   7.260  0.1609  1.2612 -0.9429
   51CHL1    C2 3747   6.543   2.120   7.084 -0.2716  0.6798  0.9082
   51CHL1   H2A 3748   6.609   2.197   7.039 -1.5746  0.6864 -1.1369
   51CHL1   H2B 3749   6.445   2.159   7.052  1.3269  2.4210 -2.4027
   51CHL1   C20 3750   6.496   2.016   7.999 -0.1759 -0.3658 -0.6341
   51CHL1   H20 3751   6.498   2.121   7.965  0.8805 -1.0972 -3.0387
   51CHL1   C21 3752   6.612   1.999   8.101  0.4321 -0.3384  0.6655
   51CHL1  H21A 3753   6.621   2.078   8.178  0.7931  1.5806 -1.2473
   51CHL1  H21B 3754   6.708   2.000   8.046 -0.0314 -1.7020 -0.2466
   51CHL1  H21C 3755   6.603   1.897   8.144  4.1687  0.1478  3.0179
   51CHL1   C22 3756   6.368   1.979   8.064 -0.0143 -1.3642 -0.1283
   51CHL1  H22A 3757   6.281   2.009   8.001  0.2611  0.5215  0.3273
   51CHL1  H22B 3758   6.355   1.871   8.084 -0.5822 -1.5276 -1.2945
   51CHL1   C23 3759   6.331   2.046   8.202 -0.3606 -0.2655 -0.8417
   51CHL1  H23A 3760   6.357   1.980   8.287 -1.6334  1.7282  1.2205
   51CHL1  H23B 3761   6.389   2.139   8.221 -0.1206 -0.5757 -0.0420
   51CHL1   C24 3762   6.180   2.086   8.213 -0.5204  0.2792 -0.6933
   51CHL1  H24A 3763   6.153   2.115   8.109 -0.1705  0.0853 -0.8398
   51CHL1  H24B 3764   6.123   1.997   8.245 -0.4306  0.3189 -0.4191
   51CHL1   C25 3765   6.145   2.190   8.318 -0.0739 -0.8871 -0.0346
   51CHL1   H25 3766   6.033   2.193   8.316 -0.0776  2.6094 -1.5310
   51CHL1   C26 3767   6.192   2.157   8.456  0.2337  0.7798  0.4925
   51CHL1  H26A 3768   6.142   2.228   8.525  1.1893  1.8765  0.0785
   51CHL1  H26B 3769   6.165   2.055   8.491 -3.0516  1.0969 -0.7507
   51CHL1  H26C 3770   6.300   2.179   8.472 -0.4647  4.8574  0.6733
   51CHL1   C27 3771   6.193   2.333   8.276  0.2099  0.0648 -0.9112
   51CHL1  H27A 3772   6.157   2.333   8.171  1.0738 -1.2322 -1.2336
   51CHL1  H27B 3773   6.159   2.410   8.349  0.3093 -1.4371  0.7802
   51CHL1  H27C 3774   6.304   2.327   8.283  0.1086 -2.3773 -0.6978
   52CHL1    C3 3775   4.361   1.486   7.073 -0.0624  0.5675  0.3535
   52CHL1    H3 3776   4.391   1.386   7.111 -1.6582 -0.0634  0.0516
   52CHL1    O3 3777   4.388   1.493   6.934 -0.1424 -0.0052 -0.3869
   52CHL1   H3' 3778   4.447   1.568   6.922 -1.3212  0.8039 -1.3389
   52CHL1    C4 3779   4.209   1.516   7.103  0.3528 -0.2561  0.0734
   52CHL1   H4A 3780   4.177   1.613   7.059  1.0559  0.4515  1.0621
   52CHL1   H4B 3781   4.147   1.449   7.040  0.6918  0.0566 -0.6006
   52CHL1    C5 3782   4.182   1.510   7.257  0.0155  0.3305  1.1181
   52CHL1    C6 3783   4.094   1.422   7.304 -0.5384 -0.0920  0.5106
   52CHL1    H6 3784   4.035   1.360   7.234 -0.1196 -1.5735  1.4117
   52CHL1    C7 3785   4.067   1.385   7.447  0.1797  0.2501 -0.0785
   52CHL1   H7A 3786   3.958   1.377   7.466 -0.0130  1.5195 -0.5769
   52CHL1   H7B 3787   4.125   1.292   7.464 -0.7257  0.0235  2.0792
   52CHL1    C8 3788   4.126   1.493   7.539 -0.1414 -0.2124 -0.5260
   52CHL1    H8 3789   4.056   1.579   7.530  0.3069  0.2434  0.1895
   52CHL1   C14 3790   4.135   1.440   7.682  0.3656 -0.5743 -0.4306
   52CHL1   H14 3791   4.202   1.352   7.677  1.8299  0.5572 -1.6729
   52CHL1   C15 3792   4.004   1.383   7.745 -0.0935  0.3681  0.2286
   52CHL1  H15A 3793   3.922   1.452   7.714  0.3846  0.3730 -1.1089
   52CHL1  H15B 3794   3.981   1.282   7.704 -0.0796 -0.4241  2.0904
   52CHL1   C16 3795   4.047   1.370   7.887  0.4643 -0.2809 -0.5406
   52CHL1  H16A 3796   3.971   1.414   7.955 -0.2286 -0.6686 -1.0468
   52CHL1  H16B 3797   4.066   1.266   7.923 -1.6812 -0.7932 -0.7369
   52CHL1   C17 3798   4.188   1.440   7.904  0.1540  0.6373  0.2666
   52CHL1   H17 3799   4.258   1.354   7.897 -1.7022 -1.2788  2.9228
   52CHL1   C13 3800   4.190   1.544   7.787 -0.3238  0.5874 -0.0638
   52CHL1   C18 3801   4.100   1.664   7.820 -0.6645 -0.8417  0.2553
   52CHL1  H18A 3802   4.022   1.642   7.895  0.3356 -2.4082  0.8725
   52CHL1  H18B 3803   4.166   1.739   7.869 -0.5951 -1.6971  1.5005
   52CHL1  H18C 3804   4.055   1.701   7.726 -0.7428 -2.4695 -0.3870
   52CHL1   C12 3805   4.330   1.579   7.735 -0.3733 -0.6622 -0.0575
   52CHL1  H12A 3806   4.383   1.649   7.802 -0.6378 -0.5505  0.0349
   52CHL1  H12B 3807   4.392   1.488   7.722 -0.3806 -0.9653  1.7647
   52CHL1   C11 3808   4.319   1.652   7.592  0.6382 -0.3486  0.1585
   52CHL1  H11A 3809   4.250   1.738   7.605  0.0078 -0.7740 -0.3104
   52CHL1  H11B 3810   4.413   1.691   7.549  1.1761 -1.1494  0.6029
   52CHL1    C9 3811   4.267   1.546   7.494  0.3471 -0.3091 -0.1964
   52CHL1    H9 3812   4.330   1.457   7.514 -0.3972 -0.8912 -0.3716
   52CHL1   C10 3813   4.271   1.594   7.350  0.1809  0.0620 -0.1187
   52CHL1   C19 3814   4.237   1.746   7.338  0.1991 -0.2942 -0.6430
   52CHL1  H19A 3815   4.237   1.780   7.232  0.2459  1.7323 -0.0516
   52CHL1  H19B 3816   4.140   1.771   7.386  1.0484 -1.3244  1.7398
   52CHL1  H19C 3817   4.313   1.815   7.382 -1.0968  1.0707 -0.4623
   52CHL1    C1 3818   4.417   1.578   7.300  0.0870  0.3948  0.1291
   52CHL1   H1A 3819   4.482   1.650   7.352 -0.2362  0.3687  0.5770
   52CHL1   H1B 3820   4.449   1.474   7.322 -2.5716 -1.1483 -2.4849
   52CHL1    C2 3821   4.449   1.580   7.149  0.1268 -0.0510 -0.1641
   52CHL1   H2A 3822   4.551   1.542   7.131  0.7282  1.0274  0.8877
   52CHL1   H2B 3823   4.440   1.684   7.111 -0.6034 -0.2921 -0.6943
   52CHL1   C20 3824   4.220   1.485   8.050  0.6936  0.0028  0.2992
   52CHL1   H20 3825   4.154   1.569   8.081 -0.5039 -0.2722 -1.3735
   52CHL1   C21 3826   4.362   1.542   8.055  0.3561 -0.0900  0.8172
   52CHL1  H21A 3827   4.389   1.565   8.161  1.0051 -0.4300  0.7323
   52CHL1  H21B 3828   4.375   1.635   7.995 -0.7124  0.5091  1.4753
   52CHL1  H21C 3829   4.430   1.460   8.023  2.0348  1.5517 -0.0490
   52CHL1   C22 3830   4.208   1.374   8.154  0.1060 -0.2109  0.6806
   52CHL1  H22A 3831   4.113   1.319   8.141  1.0629 -1.3186 -2.4420
   52CHL1  H22B 3832   4.303   1.317   8.143  0.4599  0.6552 -1.0160
   52CHL1   C23 3833   4.213   1.436   8.303  0.4597 -0.1786  0.4021
   52CHL1  H23A 3834   4.321   1.457   8.320  0.8597 -1.5504 -0.3207
   52CHL1  H23B 3835   4.152   1.528   8.298  1.3967  0.4374  0.0513
   52CHL1   C24 3836   4.167   1.337   8.410 -0.0551  0.1331  0.1814
   52CHL1  H24A 3837   4.177   1.385   8.510 -0.4876 -1.0467  0.8153
   52CHL1  H24B 3838   4.060   1.311   8.397  0.2388 -1.0336 -0.0585
   52CHL1   C25 3839   4.246   1.198   8.419  0.1597  0.0690 -0.0529
   52CHL1   H25 3840   4.245   1.148   8.319 -0.4955  0.3391 -0.1907
   52CHL1   C26 3841   4.388   1.228   8.457  0.2461  0.3535 -0.0674
   52CHL1  H26A 3842   4.400   1.289   8.548 -0.4558 -1.7576  1.5299
   52CHL1  H26B 3843   4.431   1.125   8.468 -1.4529 -0.5149 -1.1301
   52CHL1  H26C 3844   4.444   1.277   8.375 -1.9563  0.2989 -1.6994
   52CHL1   C27 3845   4.179   1.099   8.516 -0.2866 -0.0025 -0.0649
   52CHL1  H27A 3846   4.096   1.053   8.459  0.1215 -0.0864 -0.5913
   52CHL1  H27B 3847   4.241   1.012   8.549 -0.1084  0.1024 -0.1218
   52CHL1  H27C 3848   4.145   1.147   8.610 -0.9032  2.4237 -1.4581
   53CHL1    C3 3849   0.130   0.971   7.330 -0.3859 -0.3890  0.6862
   53CHL1    H3 3850   0.039   1.030   7.353 -0.8174  0.2972 -2.3081
   53CHL1    O3 3851   0.195   1.049   7.236 -0.3218 -0.3659  0.3365
   53CHL1   H3' 3852   0.221   0.992   7.163  0.4652  1.2049 -0.6702
   53CHL1    C4 3853   0.225   0.956   7.451 -0.1574  0.2206  0.4615
   53CHL1   H4A 3854   0.328   0.931   7.417 -0.9560 -2.0862 -0.4733
   53CHL1   H4B 3855   0.242   1.058   7.491  3.1701 -0.2342  0.5503
   53CHL1    C5 3856   0.175   0.858   7.558  0.4699 -0.5367 -0.1004
   53CHL1    C6 3857   0.162   0.909   7.686  0.9249  0.4421  0.1464
   53CHL1    H6 3858   0.193   1.014   7.698  0.1248  1.3208 -4.1519
   53CHL1    C7 3859   0.117   0.816   7.802  0.4718 -0.9464  0.4621
   53CHL1   H7A 3860   0.179   0.831   7.893  0.6679 -2.3719  0.5927
   53CHL1   H7B 3861   0.011   0.840   7.828  1.4909  1.5071  2.8428
   53CHL1    C8 3862   0.114   0.668   7.755  0.0665  0.2163  0.1250
   53CHL1    H8 3863   0.220   0.638   7.748 -0.0514 -0.1998  0.0947
   53CHL1   C14 3864   0.033   0.593   7.853  0.6294 -0.1504 -0.5104
   53CHL1   H14 3865  -0.070   0.635   7.855  0.3532 -0.8313  0.8592
   53CHL1   C15 3866   0.071   0.616   8.001  0.6392 -0.3361 -0.5231
   53CHL1  H15A 3867   0.182   0.625   8.002  0.4814  1.9140  0.2265
   53CHL1  H15B 3868   0.022   0.707   8.041  1.6453 -0.1380  0.2930
   53CHL1   C16 3869   0.024   0.483   8.075 -0.1126 -0.3684 -0.1746
   53CHL1  H16A 3870   0.111   0.421   8.104  1.0799  1.2570 -0.1556
   53CHL1  H16B 3871  -0.037   0.498   8.167 -0.4816 -1.7946 -0.1627
   53CHL1   C17 3872  -0.033   0.392   7.959  0.5638  0.2455  0.0131
   53CHL1   H17 3873  -0.140   0.422   7.962  0.3936 -0.3076  3.3411
   53CHL1   C13 3874   0.027   0.447   7.828 -0.5304 -0.2435 -0.0009
   53CHL1   C18 3875   0.175   0.398   7.815  0.7659 -1.1191 -0.5991
   53CHL1  H18A 3876   0.229   0.423   7.909  0.5786  1.8045 -1.1548
   53CHL1  H18B 3877   0.177   0.287   7.807 -1.2257 -1.2604  0.3083
   53CHL1  H18C 3878   0.222   0.450   7.729 -1.6565  2.0076 -0.2327
   53CHL1   C12 3879  -0.063   0.431   7.710 -0.7527 -0.7609  0.1180
   53CHL1  H12A 3880  -0.069   0.322   7.687  0.3268 -0.7743 -0.1485
   53CHL1  H12B 3881  -0.162   0.478   7.726 -0.9372 -1.1480  0.1177
   53CHL1   C11 3882   0.001   0.507   7.592  0.1607 -0.3780  0.7064
   53CHL1  H11A 3883   0.093   0.449   7.570 -0.5910 -1.3504  0.0690
   53CHL1  H11B 3884  -0.072   0.504   7.509  2.7360 -0.3404 -1.6925
   53CHL1    C9 3885   0.038   0.652   7.616 -0.3249  0.7896 -0.7949
   53CHL1    H9 3886  -0.052   0.718   7.619 -1.9222 -1.0627 -3.2719
   53CHL1   C10 3887   0.125   0.717   7.505  0.4810 -0.2006  0.6704
   53CHL1   C19 3888   0.251   0.640   7.457  0.2110  0.4256 -0.3597
   53CHL1  H19A 3889   0.322   0.703   7.400 -0.3914  0.2725 -1.2868
   53CHL1  H19B 3890   0.306   0.611   7.549 -1.4199  0.8706  0.8073
   53CHL1  H19C 3891   0.215   0.546   7.410  0.2595  0.9393 -1.4426
   53CHL1    C1 3892   0.035   0.741   7.377  0.1122  0.3361 -0.5866
   53CHL1   H1A 3893   0.031   0.642   7.327  1.8925 -0.3022  0.4305
   53CHL1   H1B 3894  -0.066   0.777   7.406  0.2026 -0.5416  0.9170
   53CHL1    C2 3895   0.096   0.833   7.265  0.4228  0.8073  0.0884
   53CHL1   H2A 3896   0.035   0.861   7.177  1.1357  2.4890  0.0893
   53CHL1   H2B 3897   0.180   0.773   7.222 -0.6874 -1.1531  0.5540
   53CHL1   C20 3898  -0.025   0.245   7.998  0.9358  0.0567 -0.5846
   53CHL1   H20 3899   0.082   0.221   8.016  0.6482 -0.4775  0.4949
   53CHL1   C21 3900  -0.064   0.144   7.881 -0.3145  0.2603  0.1606
   53CHL1  H21A 3901  -0.173   0.160   7.863 -0.5089  0.9920  1.7716
   53CHL1  H21B 3902  -0.061   0.042   7.923 -0.9420  0.2959  0.3092
   53CHL1  H21C 3903  -0.004   0.154   7.788  1.3589 -1.4706  0.9960
   53CHL1   C22 3904  -0.105   0.212   8.129 -0.3576 -0.4936 -0.4128
   53CHL1  H22A 3905  -0.090   0.288   8.208 -2.2870 -1.6038  1.1008
   53CHL1  H22B 3906  -0.214   0.220   8.108 -0.4515  3.4327  0.8099
   53CHL1   C23 3907  -0.070   0.076   8.190  1.3779 -0.0411 -0.3569
   53CHL1  H23A 3908  -0.106   0.005   8.112 -3.4230  1.7747 -0.1740
   53CHL1  H23B 3909   0.037   0.059   8.214  0.7752  0.1992  2.8578
   53CHL1   C24 3910  -0.141   0.056   8.319  0.4418 -0.3349 -0.6975
   53CHL1  H24A 3911  -0.092   0.106   8.405 -1.0161 -1.5473  0.9160
   53CHL1  H24B 3912  -0.241   0.106   8.315 -0.3856 -1.8590 -0.0078
   53CHL1   C25 3913  -0.177  -0.086   8.355 -0.4983  0.2162  0.3481
   53CHL1   H25 3914  -0.237  -0.129   8.272  0.9600 -0.2447 -0.5074
   53CHL1   C26 3915  -0.045  -0.171   8.355  0.3091  0.2798  0.6864
   53CHL1  H26A 3916  -0.018  -0.180   8.247  1.6914  1.1704  0.9241
   53CHL1  H26B 3917   0.035  -0.110   8.402  0.3117  0.4363  0.4793
   53CHL1  H26C 3918  -0.072  -0.273   8.391  0.4894  0.2942  0.8689
   53CHL1   C27 3919  -0.243  -0.096   8.489 -0.6649 -0.0493  0.1243
   53CHL1  H27A 3920  -0.276  -0.201   8.508  2.4614 -1.4295 -1.3197
   53CHL1  H27B 3921  -0.166  -0.066   8.563  0.7229 -0.6797 -1.0282
   53CHL1  H27C 3922  -0.318  -0.014   8.496 -0.7984 -0.1670  0.0851
   54CHL1    C3 3923   6.371   0.857   7.011 -0.1028 -0.0801 -0.2312
   54CHL1    H3 3924   6.294   0.777   7.000  0.2236 -0.2772 -1.1080
   54CHL1    O3 3925   6.410   0.894   6.880  0.3261 -0.3121 -0.3049
   54CHL1   H3' 3926   6.499   0.856   6.877  2.1710  3.3466  1.4284
   54CHL1    C4 3927   6.307   0.982   7.082  0.3416 -0.3396  0.1147
   54CHL1   H4A 3928   6.388   1.057   7.079 -0.3234  0.3633 -1.6954
   54CHL1   H4B 3929   6.227   1.028   7.020  0.6065  1.6581  1.1950
   54CHL1    C5 3930   6.259   0.927   7.214 -0.6747 -0.1161 -0.1629
   54CHL1    C6 3931   6.128   0.940   7.256 -0.2954 -0.1374  0.2133
   54CHL1    H6 3932   6.057   0.995   7.192 -0.3382  0.2821  0.6203
   54CHL1    C7 3933   6.084   0.894   7.391 -0.6808  0.6066  0.0516
   54CHL1   H7A 3934   6.013   0.964   7.439 -2.1324 -1.4355  1.0350
   54CHL1   H7B 3935   6.022   0.802   7.390 -0.0866  0.0578  3.2730
   54CHL1    C8 3936   6.208   0.888   7.493 -0.0152  0.8879  1.0004
   54CHL1    H8 3937   6.243   0.992   7.512  0.8468  0.4251  1.9885
   54CHL1   C14 3938   6.174   0.830   7.636 -0.0703  0.3491 -0.0709
   54CHL1   H14 3939   6.129   0.730   7.618  1.9292 -0.1239 -3.3347
   54CHL1   C15 3940   6.071   0.910   7.720  0.8810  1.0881  0.2956
   54CHL1  H15A 3941   6.103   1.017   7.717  1.2270  0.9813 -2.4277
   54CHL1  H15B 3942   5.972   0.889   7.674  0.8964 -1.5360  1.3208
   54CHL1   C16 3943   6.086   0.851   7.863 -0.5973  0.2313  0.8670
   54CHL1  H16A 3944   6.096   0.926   7.945  2.0350 -0.6822  1.4867
   54CHL1  H16B 3945   5.994   0.791   7.872 -1.0033  0.4095 -1.4141
   54CHL1   C17 3946   6.219   0.758   7.862  0.1432 -0.1149 -1.0391
   54CHL1   H17 3947   6.190   0.653   7.841 -0.2108 -0.4988  1.1628
   54CHL1   C13 3948   6.298   0.803   7.731 -0.4437  0.1174  0.3991
   54CHL1   C18 3949   6.379   0.934   7.760 -0.1048  0.1618 -0.4928
   54CHL1  H18A 3950   6.418   0.974   7.664 -0.2842  0.6800 -0.3485
   54CHL1  H18B 3951   6.322   1.003   7.826  0.3394 -2.0166  2.3803
   54CHL1  H18C 3952   6.474   0.903   7.810 -1.4072 -2.2891  0.6115
   54CHL1   C12 3953   6.380   0.690   7.657  0.2814  0.6797  0.4147
   54CHL1  H12A 3954   6.454   0.645   7.726  0.5322  3.3030  1.9784
   54CHL1  H12B 3955   6.305   0.610   7.636 -0.7809  1.2115  2.0075
   54CHL1   C11 3956   6.431   0.742   7.526 -0.6129 -0.1887 -0.0084
   54CHL1  H11A 3957   6.515   0.812   7.548  0.7632 -1.7676 -0.0166
   54CHL1  H11B 3958   6.479   0.657   7.472 -2.1552 -2.5677  2.1355
   54CHL1    C9 3959   6.320   0.801   7.439  0.0983  0.5004  0.4308
   54CHL1    H9 3960   6.270   0.707   7.410  1.1215  0.1688 -0.2920
   54CHL1   C10 3961   6.373   0.867   7.303 -0.7697  0.3009  0.3751
   54CHL1   C19 3962   6.471   0.978   7.330  0.6838  0.0603 -0.2603
   54CHL1  H19A 3963   6.515   1.013   7.234 -1.3153 -1.0194 -1.6426
   54CHL1  H19B 3964   6.429   1.063   7.389 -1.3673 -1.1560  0.1362
   54CHL1  H19C 3965   6.552   0.940   7.396  0.9070 -2.1196 -1.6918
   54CHL1    C1 3966   6.446   0.751   7.224  0.3509 -0.0867  0.3067
   54CHL1   H1A 3967   6.533   0.716   7.283 -0.2503 -1.3886  0.4656
   54CHL1   H1B 3968   6.371   0.670   7.209  1.2575 -0.9682  0.4786
   54CHL1    C2 3969   6.488   0.793   7.080 -1.0354 -0.0345  0.0319
   54CHL1   H2A 3970   6.532   0.711   7.019 -0.5553  1.8409 -2.3281
   54CHL1   H2B 3971   6.563   0.875   7.085 -0.7388 -0.3483  0.6968
   54CHL1   C20 3972   6.293   0.747   7.998 -0.1052 -0.9246  0.0629
   54CHL1   H20 3973   6.347   0.842   8.017 -1.8576  0.5482 -1.8681
   54CHL1   C21 3974   6.404   0.632   7.982  0.8085  0.0033 -0.4643
   54CHL1  H21A 3975   6.498   0.667   7.933  0.6071  1.7223  0.2890
   54CHL1  H21B 3976   6.359   0.549   7.924 -0.1030 -0.4091  0.7812
   54CHL1  H21C 3977   6.426   0.599   8.086  0.4414 -1.7998 -0.9251
   54CHL1   C22 3978   6.207   0.706   8.120  0.3921  0.1935  0.1415
   54CHL1  H22A 3979   6.112   0.763   8.123 -1.2746 -2.4319  2.1857
   54CHL1  H22B 3980   6.175   0.602   8.098 -1.7032  0.0787  3.0910
   54CHL1   C23 3981   6.267   0.715   8.259 -0.8310  0.5945  0.3220
   54CHL1  H23A 3982   6.334   0.628   8.273 -0.1817  1.1898  1.0107
   54CHL1  H23B 3983   6.317   0.813   8.272 -0.2735  0.3878 -0.2080
   54CHL1   C24 3984   6.168   0.715   8.369  0.2108 -1.0941 -0.6649
   54CHL1  H24A 3985   6.117   0.814   8.366 -0.5302 -1.3585  1.6196
   54CHL1  H24B 3986   6.089   0.639   8.350 -1.5963  1.0062 -2.1187
   54CHL1   C25 3987   6.246   0.696   8.503 -0.2069  0.1142  0.0469
   54CHL1   H25 3988   6.322   0.616   8.493  0.2784  0.4928  0.6646
   54CHL1   C26 3989   6.319   0.821   8.545 -0.4541 -0.6047  0.2556
   54CHL1  H26A 3990   6.256   0.909   8.519 -0.9588 -1.2510 -0.7753
   54CHL1  H26B 3991   6.346   0.818   8.653  0.2369 -2.3969  0.0552
   54CHL1  H26C 3992   6.410   0.834   8.484 -1.2851  0.3928 -0.8300
   54CHL1   C27 3993   6.155   0.640   8.614 -0.7448 -0.8713 -0.2969
   54CHL1  H27A 3994   6.119   0.537   8.589 -1.6692 -1.5611  3.2882
   54CHL1  H27B 3995   6.202   0.629   8.714 -2.0676  0.8326  0.5688
   54CHL1  H27C 3996   6.071   0.712   8.624 -1.3206 -1.3735 -1.3238
   55CHL1    C3 3997   2.181   3.631   7.078  0.5346  0.1874 -0.0262
   55CHL1    H3 3998   2.157   3.526   7.101 -1.6846  1.1304  2.5061
   55CHL1    O3 3999   2.185   3.644   6.934 -0.1239 -0.3562  0.1445
   55CHL1   H3' 4000   2.267   3.608   6.900 -0.2552  0.0976 -0.6650
   55CHL1    C4 4001   2.055   3.705   7.115  0.8167  0.0644  0.0030
   55CHL1   H4A 4002   2.077   3.810   7.090  0.8936  0.1495  0.4136
   55CHL1   H4B 4003   1.963   3.667   7.065 -0.4629 -0.5593  2.6615
   55CHL1    C5 4004   2.030   3.690   7.266 -0.5358 -0.3605 -0.5333
   55CHL1    C6 4005   1.918   3.642   7.321  0.7552  0.3814  0.4897
   55CHL1    H6 4006   1.829   3.616   7.262  0.7976  1.6810 -0.1905
   55CHL1    C7 4007   1.881   3.635   7.468  0.8554 -0.7130  0.0825
   55CHL1   H7A 4008   1.782   3.684   7.482  0.2846 -1.6295 -0.6298
   55CHL1   H7B 4009   1.877   3.532   7.509  0.9418 -0.2925  1.1595
   55CHL1    C8 4010   1.981   3.718   7.547  0.3054 -0.0874 -0.9014
   55CHL1    H8 4011   1.969   3.829   7.546  0.7892  0.0849  2.0392
   55CHL1   C14 4012   1.971   3.686   7.698 -0.1208 -1.0974 -0.6609
   55CHL1   H14 4013   1.992   3.578   7.707  1.3276 -0.7696  0.3512
   55CHL1   C15 4014   1.837   3.700   7.763  0.7649  0.6158  0.1097
   55CHL1  H15A 4015   1.778   3.792   7.749 -0.4647 -0.0507  0.7665
   55CHL1  H15B 4016   1.772   3.619   7.724  0.8400 -0.1520  1.5071
   55CHL1   C16 4017   1.871   3.687   7.901 -0.1006  0.0553  0.7413
   55CHL1  H16A 4018   1.843   3.780   7.955 -0.0975  1.1561 -1.0760
   55CHL1  H16B 4019   1.812   3.611   7.956 -0.6709 -0.1901 -0.1864
   55CHL1   C17 4020   2.022   3.687   7.918 -0.4266  0.2960  0.5584
   55CHL1   H17 4021   2.066   3.585   7.920  0.4376  0.6604  0.9251
   55CHL1   C13 4022   2.076   3.755   7.787  0.2379  0.2401 -0.0215
   55CHL1   C18 4023   2.049   3.912   7.789 -0.2297 -0.5026 -0.3191
   55CHL1  H18A 4024   2.071   3.966   7.694 -2.2087  1.7736  0.4198
   55CHL1  H18B 4025   1.946   3.938   7.822 -0.0041 -0.4082  0.3204
   55CHL1  H18C 4026   2.124   3.939   7.866  0.1831 -0.0339 -0.8780
   55CHL1   C12 4027   2.218   3.723   7.736  0.4005  0.2372  0.2755
   55CHL1  H12A 4028   2.300   3.769   7.795  0.8037 -0.4278  0.2489
   55CHL1  H12B 4029   2.222   3.612   7.750 -1.6876  0.1800  0.7047
   55CHL1   C11 4030   2.239   3.760   7.584 -0.7396 -0.7233  0.2178
   55CHL1  H11A 4031   2.230   3.870   7.575 -0.4808 -0.6187  1.1386
   55CHL1  H11B 4032   2.344   3.740   7.552 -0.6623 -0.8150  0.5176
   55CHL1    C9 4033   2.128   3.693   7.495 -0.3788 -0.2610 -0.4321
   55CHL1    H9 4034   2.146   3.583   7.503  1.7873  0.0954  0.3879
   55CHL1   C10 4035   2.150   3.727   7.342 -0.2475  0.2835 -1.3263
   55CHL1   C19 4036   2.182   3.878   7.325  0.3018  0.6035  0.5114
   55CHL1  H19A 4037   2.105   3.942   7.374 -1.5227 -0.4526 -0.8823
   55CHL1  H19B 4038   2.277   3.914   7.372  1.1112 -1.1710  0.2995
   55CHL1  H19C 4039   2.185   3.910   7.219 -1.1041  0.9952  0.5664
   55CHL1    C1 4040   2.278   3.659   7.292  0.2638 -0.4313 -0.0271
   55CHL1   H1A 4041   2.371   3.688   7.345  0.3021  0.1878 -0.4273
   55CHL1   H1B 4042   2.285   3.551   7.318  1.1494 -0.0875  1.2467
   55CHL1    C2 4043   2.306   3.682   7.146  0.3381 -0.1006  0.5035
   55CHL1   H2A 4044   2.403   3.637   7.116  1.5210  1.2943  2.0536
   55CHL1   H2B 4045   2.318   3.790   7.120 -2.4217 -0.2451 -1.8737
   55CHL1   C20 4046   2.071   3.750   8.052  0.5158  0.4469  0.1817
   55CHL1   H20 4047   2.043   3.857   8.062 -0.5594  0.0333  2.0785
   55CHL1   C21 4048   2.227   3.739   8.061  0.0022  0.2909  0.2974
   55CHL1  H21A 4049   2.252   3.760   8.167 -1.1567  0.3999  0.5582
   55CHL1  H21B 4050   2.283   3.818   8.006  1.5148 -1.3369 -0.6001
   55CHL1  H21C 4051   2.259   3.637   8.031  0.7184  0.0247  1.8600
   55CHL1   C22 4052   2.009   3.671   8.176 -0.4539 -0.4000  0.4798
   55CHL1  H22A 4053   2.051   3.713   8.270 -1.9666  0.4683  0.8098
   55CHL1  H22B 4054   1.897   3.675   8.174 -0.4710 -0.1645 -2.0153
   55CHL1   C23 4055   2.036   3.526   8.175  0.0156  0.6077 -0.0524
   55CHL1  H23A 4056   1.980   3.477   8.093 -1.9112 -0.5993  1.8827
   55CHL1  H23B 4057   2.141   3.492   8.158 -1.1868 -2.9754 -1.1238
   55CHL1   C24 4058   1.994   3.477   8.313 -0.0172  0.1187 -0.1545
   55CHL1  H24A 4059   2.052   3.532   8.391  0.4356 -0.5888  0.0165
   55CHL1  H24B 4060   1.883   3.467   8.324 -0.4910  3.1049 -1.3852
   55CHL1   C25 4061   2.042   3.329   8.335 -0.1102  0.1722 -0.1654
   55CHL1   H25 4062   2.152   3.320   8.324 -0.0925  0.4625 -0.2298
   55CHL1   C26 4063   2.009   3.302   8.483 -0.7720  0.1267 -0.3684
   55CHL1  H26A 4064   1.906   3.328   8.517 -0.2704  1.8520 -0.0688
   55CHL1  H26B 4065   2.032   3.196   8.509  1.9063  0.9965  1.1899
   55CHL1  H26C 4066   2.079   3.366   8.542 -0.1677 -0.1579 -0.7732
   55CHL1   C27 4067   1.969   3.228   8.246  0.1146  0.0868 -0.2782
   55CHL1  H27A 4068   2.010   3.224   8.143  0.4398 -0.9066 -0.1264
   55CHL1  H27B 4069   1.990   3.128   8.290 -1.8229 -0.3042 -0.1671
   55CHL1  H27C 4070   1.858   3.232   8.248 -0.0318 -2.3791  1.2465
   56CHL1    C3 4071   4.733   0.738   6.935 -0.2856  0.3532 -0.0260
   56CHL1    H3 4072   4.632   0.740   6.981  0.2719  0.5057  1.2481
   56CHL1    O3 4073   4.739   0.764   6.794 -0.0099  0.5686 -0.0147
   56CHL1   H3' 4074   4.681   0.840   6.790  0.0523  0.5731 -2.1418
   56CHL1    C4 4075   4.802   0.862   6.999 -0.8560 -0.4080 -0.7692
   56CHL1   H4A 4076   4.899   0.881   6.947 -0.6197  0.5656  0.0101
   56CHL1   H4B 4077   4.746   0.956   6.985  2.0623  1.9268  1.8182
   56CHL1    C5 4078   4.821   0.842   7.152  0.1128  0.6792  0.8652
   56CHL1    C6 4079   4.779   0.941   7.233 -0.6523  0.2718 -0.2588
   56CHL1    H6 4080   4.738   1.034   7.191 -2.4045 -0.5898 -0.5549
   56CHL1    C7 4081   4.802   0.930   7.382  0.4376 -0.7032 -0.3295
   56CHL1   H7A 4082   4.849   1.024   7.419  2.0274 -1.3188 -0.7108
   56CHL1   H7B 4083   4.701   0.914   7.424  1.1838  0.7219  2.2025
   56CHL1    C8 4084   4.884   0.809   7.428 -0.1409 -0.5317  0.1092
   56CHL1    H8 4085   4.988   0.850   7.424 -0.6907  0.8514 -1.5102
   56CHL1   C14 4086   4.851   0.769   7.577 -0.1633  0.5697  0.5008
   56CHL1   H14 4087   4.748   0.728   7.583 -0.4654  1.4327  1.6550
   56CHL1   C15 4088   4.854   0.895   7.670  0.5411 -0.4410  0.2876
   56CHL1  H15A 4089   4.937   0.965   7.646  1.7149 -0.5225  3.6796
   56CHL1  H15B 4090   4.759   0.952   7.663 -0.0247 -1.0920  2.2198
   56CHL1   C16 4091   4.864   0.834   7.810 -0.0378  0.3548  0.6649
   56CHL1  H16A 4092   4.948   0.877   7.869  2.7965  0.9197 -3.3167
   56CHL1  H16B 4093   4.765   0.851   7.857 -0.8253 -0.4764 -0.6225
   56CHL1   C17 4094   4.897   0.680   7.790 -0.1482  0.3414 -0.1453
   56CHL1   H17 4095   4.807   0.616   7.798 -0.2364 -0.2348 -3.9804
   56CHL1   C13 4096   4.941   0.666   7.644 -0.3233 -1.1018  0.7109
   56CHL1   C18 4097   5.093   0.706   7.646  0.0104  0.3760  0.1008
   56CHL1  H18A 4098   5.126   0.719   7.540  0.6273 -1.7875 -0.0120
   56CHL1  H18B 4099   5.096   0.802   7.701 -1.3108 -0.1811  1.2159
   56CHL1  H18C 4100   5.154   0.623   7.686  0.9379 -1.0965 -3.9057
   56CHL1   C12 4101   4.921   0.535   7.560  0.6152  0.1565 -0.1640
   56CHL1  H12A 4102   4.990   0.455   7.595  1.5301  0.9703 -0.0766
   56CHL1  H12B 4103   4.819   0.493   7.572 -0.1114  1.9634  0.2850
   56CHL1   C11 4104   4.940   0.557   7.406 -0.4261  0.3795  0.6585
   56CHL1  H11A 4105   5.049   0.576   7.393 -0.3442 -1.0446 -1.1603
   56CHL1  H11B 4106   4.926   0.455   7.363 -0.5311  1.6888 -2.6788
   56CHL1    C9 4107   4.868   0.680   7.347  0.1774  0.0082 -0.7077
   56CHL1    H9 4108   4.761   0.654   7.363 -0.4313  1.5834 -1.9468
   56CHL1   C10 4109   4.885   0.714   7.197 -0.2092  0.3575 -0.4854
   56CHL1   C19 4110   5.033   0.725   7.164  0.2103  0.5349  0.0252
   56CHL1  H19A 4111   5.093   0.638   7.196  0.4747  1.1651  1.3078
   56CHL1  H19B 4112   5.055   0.732   7.055 -1.8513 -0.8149 -0.5313
   56CHL1  H19C 4113   5.076   0.812   7.217  0.5507 -0.0102  0.6543
   56CHL1    C1 4114   4.818   0.597   7.119  0.8756 -0.1429  0.4443
   56CHL1   H1A 4115   4.877   0.504   7.127  0.2895 -0.9692 -3.2055
   56CHL1   H1B 4116   4.712   0.576   7.146  1.0439 -0.5514  0.8099
   56CHL1    C2 4117   4.807   0.606   6.968  0.0166 -0.4408 -0.3886
   56CHL1   H2A 4118   4.750   0.520   6.928  0.6428 -2.5802  2.9453
   56CHL1   H2B 4119   4.904   0.613   6.915 -0.6564  3.6565 -1.4752
   56CHL1   C20 4120   4.989   0.636   7.908 -0.3522 -0.0324  0.1607
   56CHL1   H20 4121   5.084   0.694   7.907 -1.1876  1.4639  2.0142
   56CHL1   C21 4122   5.019   0.486   7.889  0.4032 -0.2696  0.0643
   56CHL1  H21A 4123   4.924   0.432   7.904 -1.3014  2.4052 -0.3992
   56CHL1  H21B 4124   5.094   0.451   7.963  1.2586 -0.2951 -0.7848
   56CHL1  H21C 4125   5.058   0.477   7.785  1.7087 -0.1339  0.5154
   56CHL1   C22 4126   4.923   0.662   8.046 -0.0860 -0.5251  0.3959
   56CHL1  H22A 4127   4.911   0.771   8.059 -1.4215 -0.4060 -1.3932
   56CHL1  H22B 4128   4.821   0.618   8.045  0.2285 -1.2931  0.7325
   56CHL1   C23 4129   4.990   0.605   8.172  0.2658 -0.3831  0.5699
   56CHL1  H23A 4130   4.984   0.494   8.167 -0.1586 -0.3398 -0.0396
   56CHL1  H23B 4131   5.099   0.627   8.173  0.6984 -2.1229 -1.0356
   56CHL1   C24 4132   4.907   0.643   8.296  0.0465  0.2613 -0.0869
   56CHL1  H24A 4133   4.913   0.753   8.310 -2.6678  0.6087 -1.0693
   56CHL1  H24B 4134   4.800   0.622   8.278  0.2719 -2.3808  1.1472
   56CHL1   C25 4135   4.947   0.577   8.429 -0.2484  0.6833  0.3255
   56CHL1   H25 4136   4.945   0.466   8.423 -0.3627  0.7691 -2.6732
   56CHL1   C26 4137   5.088   0.618   8.467 -0.4688 -0.1643 -0.1425
   56CHL1  H26A 4138   5.165   0.592   8.391  0.2634  0.4873  0.3577
   56CHL1  H26B 4139   5.126   0.575   8.562 -2.1346  1.4355  1.3272
   56CHL1  H26C 4140   5.100   0.728   8.479  0.4071 -0.1291 -1.2124
   56CHL1   C27 4141   4.860   0.624   8.546 -0.0165 -0.6053 -0.2216
   56CHL1  H27A 4142   4.890   0.722   8.589  1.9343 -2.3726  2.8319
   56CHL1  H27B 4143   4.754   0.614   8.514 -0.4057  0.6137  0.6286
   56CHL1  H27C 4144   4.885   0.554   8.629 -1.5320 -0.4261  0.4091
   57SAPC     N 4145   2.724   4.675  11.060 -0.1785  0.0244  0.3240
   57SAPC   C12 4146   2.777   4.681  10.920  0.6311  0.2359  0.4899
   57SAPC  H12A 4147   2.829   4.588  10.903 -3.6928 -2.5798  0.9867
   57SAPC  H12B 4148   2.857   4.753  10.924  0.8445  0.0557 -0.3424
   57SAPC   C13 4149   2.839   4.658  11.161  1.1430 -0.3051 -0.1327
   57SAPC  H13A 4150   2.912   4.737  11.152 -0.1012  0.8389 -0.5730
   57SAPC  H13B 4151   2.799   4.661  11.261 -1.6546  0.1669 -1.1638
   57SAPC  H13C 4152   2.884   4.562  11.143  3.9888  0.9915 -0.5063
   57SAPC   C14 4153   2.654   4.805  11.089 -0.1505  0.2552 -0.0310
   57SAPC  H14A 4154   2.720   4.890  11.100  1.3083 -0.5314 -2.1352
   57SAPC  H14B 4155   2.570   4.833  11.027 -0.9252  2.8666  1.9720
   57SAPC  H14C 4156   2.606   4.799  11.186 -1.9501 -0.7376 -0.9446
   57SAPC   C15 4157   2.621   4.570  11.076 -0.0255 -0.0226  0.1229
   57SAPC  H15A 4158   2.587   4.567  11.179  1.9557  0.1867  0.8292
   57SAPC  H15B 4159   2.533   4.594  11.018 -1.6242 -1.2407  1.8850
   57SAPC  H15C 4160   2.675   4.480  11.052  2.6310  1.1246  1.3897
   57SAPC   C11 4161   2.689   4.721  10.803  0.1106  0.1521  1.1040
   57SAPC  H11A 4162   2.755   4.709  10.715 -0.1655 -0.8802  1.0197
   57SAPC  H11B 4163   2.661   4.828  10.810 -1.7443 -0.1734 -0.4700
   57SAPC     P 4164   2.454   4.666  10.686  0.2176 -0.1227 -0.0965
   57SAPC   O13 4165   2.388   4.541  10.641  0.1035  0.0519  0.5539
   57SAPC   O14 4166   2.371   4.766  10.757 -0.4240 -0.3789  0.3449
   57SAPC   O12 4167   2.571   4.633  10.788  0.2359  0.3145 -0.3712
   57SAPC   O11 4168   2.526   4.735  10.560 -0.1817 -0.5199 -1.1700
   57SAPC    C1 4169   2.474   4.830  10.471  0.0813 -0.4261  0.2673
   57SAPC    HA 4170   2.466   4.786  10.369  5.9547 -0.1523 -0.6137
   57SAPC    HB 4171   2.369   4.852  10.502  0.1580 -1.0058  0.9471
   57SAPC    C2 4172   2.566   4.957  10.442  0.8372  0.6252  0.4348
   57SAPC    HS 4173   2.524   5.045  10.497 -0.4020  1.2136 -1.3623
   57SAPC   O21 4174   2.592   4.978  10.301  0.3137  0.4411  0.6902
   57SAPC   C21 4175   2.490   5.029  10.238 -0.4866  0.4915  0.1440
   57SAPC   O22 4176   2.403   5.090  10.290  0.0568  0.0159 -0.0634
   57SAPC   C22 4177   2.510   5.008  10.089  0.0179  0.1496 -0.5544
   57SAPC   H2R 4178   2.606   5.057  10.063 -0.3605  0.4909 -1.3419
   57SAPC   H2S 4179   2.526   4.903  10.058  0.4145  0.1407 -0.3248
   57SAPC    C3 4180   2.705   4.918  10.506  0.2131 -0.6777 -0.2924
   57SAPC    HX 4181   2.735   4.821  10.463  0.9379 -1.5573  2.0298
   57SAPC    HY 4182   2.681   4.920  10.615  0.7668  1.4710 -0.1595
   57SAPC   O31 4183   2.806   5.018  10.464  1.0304  0.3568 -0.7574
   57SAPC   C31 4184   2.804   5.128  10.533  0.3320 -0.1490  0.3635
   57SAPC   O32 4185   2.719   5.158  10.615  0.6068 -0.0983  0.0387
   57SAPC   C32 4186   2.917   5.230  10.493 -0.1346  0.3276 -0.2190
   57SAPC   H2X 4187   2.983   5.167  10.429 -1.0197 -0.6139 -0.2254
   57SAPC   H2Y 4188   2.966   5.249  10.591 -1.6324 -2.4896  1.2024
   57SAPC   C23 4189   2.405   5.085  10.014 -0.8607 -0.1335  0.3868
   57SAPC   H3R 4190   2.411   5.191  10.048 -0.0827 -0.1758  0.4031
   57SAPC   H3S 4191   2.303   5.045  10.030 -0.5081 -0.9716  0.5693
   57SAPC   C24 4192   2.422   5.088   9.859 -0.3905 -0.5011  0.2745
   57SAPC   H4R 4193   2.529   5.089   9.831  0.3532 -3.8380  2.4307
   57SAPC   H4S 4194   2.393   5.188   9.820 -0.0895 -0.4646  0.1430
   57SAPC   C25 4195   2.363   4.966   9.784  0.0935  0.5309  0.1793
   57SAPC   H5R 4196   2.312   4.889   9.844  0.1231  0.5599  0.2413
   57SAPC   C26 4197   2.368   4.954   9.650  0.2644 -0.2893 -0.1993
   57SAPC   H6R 4198   2.307   4.872   9.608  0.4746 -0.2717 -0.5432
   57SAPC   C27 4199   2.436   5.045   9.548  0.4536 -0.1046 -0.2980
   57SAPC   H7R 4200   2.534   4.995   9.535 -0.3791 -1.6152 -1.0564
   57SAPC   H7S 4201   2.444   5.147   9.590  0.0835  0.6602 -2.0097
   57SAPC   C28 4202   2.354   5.060   9.422  0.2393  0.0869  0.4485
   57SAPC   H8R 4203   2.290   5.149   9.413 -0.5885 -0.6664 -2.3295
   57SAPC   C29 4204   2.351   4.977   9.320  0.4575  0.5562 -0.3700
   57SAPC   H9R 4205   2.310   5.017   9.226 -3.1345  0.1409  0.8901
   57SAPC  C210 4206   2.436   4.849   9.309  0.3236  0.6653  1.3456
   57SAPC  H10R 4207   2.368   4.761   9.301  1.6125 -0.2151 -0.7185
   57SAPC  H10S 4208   2.510   4.829   9.390  1.6983 -0.8190 -0.1889
   57SAPC  C211 4209   2.515   4.851   9.178 -0.7659 -0.0835  0.0785
   57SAPC  H11R 4210   2.601   4.920   9.178  2.7023 -3.9255  2.7125
   57SAPC  C212 4211   2.505   4.781   9.062 -0.0787  0.4108 -0.2023
   57SAPC  H12R 4212   2.560   4.804   8.970  0.0338  1.0310  0.0138
   57SAPC  C213 4213   2.395   4.685   9.038  0.9750 -0.2255 -0.1710
   57SAPC  H13R 4214   2.299   4.727   9.000  1.7826 -1.1233 -3.5423
   57SAPC  H13S 4215   2.355   4.636   9.130 -1.2923  0.6260 -0.6454
   57SAPC  C214 4216   2.443   4.572   8.953 -0.5724  0.0518  0.5376
   57SAPC  H14R 4217   2.538   4.529   8.990  0.0948  1.8019  1.0056
   57SAPC  C215 4218   2.393   4.527   8.840  0.0262  0.3857  0.3536
   57SAPC  H15R 4219   2.458   4.460   8.782 -2.4461 -2.4990  0.6786
   57SAPC  C216 4220   2.278   4.587   8.764  0.0615 -0.1194  0.9452
   57SAPC  H16R 4221   2.223   4.668   8.817  0.3310 -1.2855  3.1415
   57SAPC  H16S 4222   2.199   4.511   8.750  0.4185 -0.6046  1.5075
   57SAPC  C217 4223   2.315   4.653   8.627 -0.4387 -0.1494  0.2287
   57SAPC  H17R 4224   2.221   4.686   8.578  0.3713  2.6235  0.3797
   57SAPC  H17S 4225   2.360   4.581   8.556  1.3027 -0.0397  1.1811
   57SAPC  C218 4226   2.411   4.776   8.642  0.6752  0.5386  0.5817
   57SAPC  H18R 4227   2.508   4.734   8.677  0.6508 -1.7595 -1.7901
   57SAPC  H18S 4228   2.368   4.844   8.719 -1.0658  0.7322 -0.5060
   57SAPC  C219 4229   2.448   4.857   8.520 -0.1216  0.0225 -0.1630
   57SAPC  H19R 4230   2.487   4.954   8.558 -0.4142  0.3450 -0.6609
   57SAPC  H19S 4231   2.354   4.900   8.478  0.9386  2.8180  0.1036
   57SAPC  C220 4232   2.548   4.803   8.419  0.0092  0.3457  0.0964
   57SAPC  H20R 4233   2.575   4.888   8.352  0.7128  1.0943  1.2910
   57SAPC  H20S 4234   2.496   4.715   8.377  1.8146 -0.9915  0.5285
   57SAPC  H20T 4235   2.635   4.774   8.481 -1.4185  2.6923  3.5286
   57SAPC   C33 4236   2.877   5.367  10.428 -0.2701  0.3361 -0.2597
   57SAPC   H3X 4237   2.970   5.420  10.400 -1.1010  0.5366 -2.9266
   57SAPC   H3Y 4238   2.831   5.428  10.509 -0.6170  0.8565 -0.8372
   57SAPC   C34 4239   2.788   5.360  10.295 -0.6807 -0.5029  0.3198
   57SAPC   H4X 4240   2.794   5.465  10.259  0.3044 -1.0058 -1.1020
   57SAPC   H4Y 4241   2.685   5.324  10.318 -1.6582  2.0342  0.2145
   57SAPC   C35 4242   2.860   5.269  10.186  0.0944 -0.0495 -0.0388
   57SAPC   H5X 4243   2.839   5.163  10.213  0.0106  0.1363  0.6361
   57SAPC   H5Y 4244   2.969   5.280  10.206 -0.3598  1.2834  1.9687
   57SAPC   C36 4245   2.797   5.292  10.051 -0.1168 -0.0306  0.4215
   57SAPC   H6X 4246   2.807   5.401  10.033 -0.8196  0.3444  2.0754
   57SAPC   H6Y 4247   2.691   5.262  10.038 -0.8541  2.7521 -0.5726
   57SAPC   C37 4248   2.884   5.221   9.937 -0.5100 -0.2749 -0.2853
   57SAPC   H7X 4249   2.849   5.117   9.918  0.2462 -0.8374  1.1849
   57SAPC   H7Y 4250   2.993   5.222   9.962 -1.0759  0.7268  2.5228
   57SAPC   C38 4251   2.856   5.302   9.809 -0.0741  0.1180  0.0894
   57SAPC   H8X 4252   2.921   5.392   9.806  1.1887 -0.7541  0.6137
   57SAPC   H8Y 4253   2.750   5.334   9.800  0.3516  2.2718  1.7861
   57SAPC   C39 4254   2.880   5.230   9.679 -0.4883  0.3599  0.4443
   57SAPC   H9X 4255   2.813   5.143   9.670 -1.0570  0.8046  0.3203
   57SAPC   H9Y 4256   2.985   5.192   9.680 -1.2726 -1.8989  0.4567
   57SAPC  C310 4257   2.865   5.320   9.560  0.2848  0.2156  0.1509
   57SAPC  H10X 4258   2.885   5.424   9.592 -0.5252  0.5010 -0.2274
   57SAPC  H10Y 4259   2.760   5.312   9.524  0.0981 -0.1813  0.7676
   57SAPC  C311 4260   2.953   5.286   9.441  0.2449 -0.1824 -0.2422
   57SAPC  H11X 4261   2.927   5.187   9.397 -0.6821 -0.1669  0.2511
   57SAPC  H11Y 4262   3.054   5.284   9.489 -0.1277  0.4677  0.5980
   57SAPC  C312 4263   2.949   5.391   9.327 -0.5598  0.1627 -0.2508
   57SAPC  H12X 4264   2.983   5.486   9.374 -0.2619 -0.2013  0.2802
   57SAPC  H12Y 4265   2.841   5.403   9.301 -0.8244  0.7592  1.0500
   57SAPC  C313 4266   3.029   5.342   9.203 -0.2433  0.3287 -0.6013
   57SAPC  H13X 4267   2.983   5.245   9.176 -0.5908  0.4179 -0.3348
   57SAPC  H13Y 4268   3.133   5.326   9.239 -0.4142 -0.9116 -0.6227
   57SAPC  C314 4269   3.038   5.435   9.087  0.1148  0.6055  0.8366
   57SAPC  H14X 4270   3.110   5.513   9.117  0.8754 -0.5551  2.1789
   57SAPC  H14Y 4271   2.938   5.480   9.069  0.4654  0.0134 -3.9994
   57SAPC  C315 4272   3.062   5.364   8.955  0.1564  0.1577  0.3684
   57SAPC  H15X 4273   2.999   5.276   8.929  1.6416 -1.2731  1.3754
   57SAPC  H15Y 4274   3.167   5.327   8.962  0.1370  0.2118  0.9351
   57SAPC  C316 4275   3.037   5.457   8.836 -0.0736  0.4878  0.2988
   57SAPC  H16X 4276   2.930   5.485   8.831  0.1763  1.2494 -1.1124
   57SAPC  H16Y 4277   3.050   5.402   8.741 -2.2825  0.3964 -0.0073
   57SAPC  C317 4278   3.121   5.577   8.832 -0.6689 -0.8064 -0.4855
   57SAPC  H17X 4279   3.088   5.640   8.917  2.0218  0.1452 -0.0593
   57SAPC  H17Y 4280   3.099   5.635   8.740 -0.1440  2.3450  1.2596
   57SAPC  C318 4281   3.270   5.557   8.827 -0.3719  0.4109  0.1117
   57SAPC  H18X 4282   3.308   5.516   8.923  0.9765 -0.4031 -0.7233
   57SAPC  H18Y 4283   3.322   5.651   8.799 -1.7372  1.3874  0.7298
   57SAPC  H18Z 4284   3.302   5.479   8.754  0.2495 -2.0253  2.7616
   58SAPC     N 4285   4.977   2.018  10.871 -0.3170 -0.2575 -0.3487
   58SAPC   C12 4286   4.855   2.002  10.781  0.2060 -0.5066 -0.2238
   58SAPC  H12A 4287   4.779   1.954  10.840  0.9955 -0.6408  0.7036
   58SAPC  H12B 4288   4.892   1.943  10.698 -0.4101 -0.0126 -0.8607
   58SAPC   C13 4289   5.004   1.886  10.927 -0.1466  0.5449  0.5845
   58SAPC  H13A 4290   4.914   1.842  10.967 -1.7123  0.9006 -2.2158
   58SAPC  H13B 4291   5.030   1.819  10.846  1.3005  2.7537 -0.8886
   58SAPC  H13C 4292   5.088   1.885  10.995  0.8668 -0.9803 -0.6194
   58SAPC   C14 4293   5.107   2.058  10.806  0.3164  0.4748 -0.2764
   58SAPC  H14A 4294   5.109   2.160  10.772 -1.5168  1.3904  2.1029
   58SAPC  H14B 4295   5.191   2.028  10.867 -0.2063 -2.0499 -0.6999
   58SAPC  H14C 4296   5.130   1.990  10.725 -0.0093  0.1299 -0.0827
   58SAPC   C15 4297   4.955   2.111  10.988 -0.2183  0.0241  0.1484
   58SAPC  H15A 4298   5.052   2.131  11.032 -1.1587  0.3426  2.2201
   58SAPC  H15B 4299   4.920   2.212  10.972  2.1969  0.7227 -1.1235
   58SAPC  H15C 4300   4.883   2.059  11.050 -1.7208 -1.2086 -2.5014
   58SAPC   C11 4301   4.798   2.124  10.715  0.3618 -0.0397 -0.0334
   58SAPC  H11A 4302   4.726   2.086  10.640  1.7561 -3.1751  0.0876
   58SAPC  H11B 4303   4.893   2.164  10.673  1.7289 -3.0380 -0.0527
   58SAPC     P 4304   4.731   2.360  10.798  0.0088  0.4406 -0.0195
   58SAPC   O13 4305   4.608   2.407  10.850  0.6667  0.2682  0.3348
   58SAPC   O14 4306   4.861   2.400  10.866  0.4128 -0.8968  0.4751
   58SAPC   O12 4307   4.724   2.198  10.804  0.4029  0.4507  0.3137
   58SAPC   O11 4308   4.745   2.395  10.642  0.6390 -0.4529 -0.4241
   58SAPC    C1 4309   4.627   2.387  10.566 -0.3945  0.4307 -0.4686
   58SAPC    HA 4310   4.597   2.280  10.561  3.5332 -0.7359 -2.2390
   58SAPC    HB 4311   4.544   2.448  10.609 -1.2970 -1.7641  1.0664
   58SAPC    C2 4312   4.645   2.439  10.419  0.3347 -0.9734 -0.6253
   58SAPC    HS 4313   4.707   2.360  10.372  2.6556  0.2368  0.2879
   58SAPC   O21 4314   4.705   2.564  10.407  0.2895  0.3858 -0.5076
   58SAPC   C21 4315   4.827   2.576  10.352  0.1952 -0.4922  0.8042
   58SAPC   O22 4316   4.894   2.482  10.315  0.3229  0.7643  0.1033
   58SAPC   C22 4317   4.872   2.725  10.359  0.2446 -0.3123 -0.6061
   58SAPC   H2R 4318   4.803   2.771  10.433  1.5685  0.7519  0.0134
   58SAPC   H2S 4319   4.973   2.720  10.404  0.7968 -1.9367 -1.9178
   58SAPC    C3 4320   4.504   2.453  10.351  0.8373  0.2415  0.4674
   58SAPC    HX 4321   4.444   2.530  10.404  0.4252 -0.6566  1.3340
   58SAPC    HY 4322   4.455   2.355  10.372  0.3996  0.4319  0.3364
   58SAPC   O31 4323   4.514   2.477  10.206 -0.2979  0.4510 -0.3963
   58SAPC   C31 4324   4.496   2.595  10.168  0.0150 -0.5571  0.0357
   58SAPC   O32 4325   4.488   2.697  10.237  0.4039 -0.1569 -0.4315
   58SAPC   C32 4326   4.507   2.595  10.009  0.6560  0.0825  0.3100
   58SAPC   H2X 4327   4.540   2.495   9.973  1.6831  0.5405 -0.0542
   58SAPC   H2Y 4328   4.589   2.664   9.982  1.7699 -1.4239 -0.3394
   58SAPC   C23 4329   4.862   2.810  10.229  0.3811  0.0102 -0.0170
   58SAPC   H3R 4330   4.847   2.919  10.247 -0.4700 -0.3489  1.6176
   58SAPC   H3S 4331   4.770   2.781  10.176 -0.8334  3.6538 -0.2166
   58SAPC   C24 4332   4.977   2.794  10.123  0.1317  0.7499  0.1445
   58SAPC   H4R 4333   5.079   2.810  10.164 -0.2306  2.3740  0.4972
   58SAPC   H4S 4334   4.964   2.877  10.050  1.0271 -0.5158 -1.5212
   58SAPC   C25 4335   4.968   2.660  10.051  0.2285  0.3686  0.3446
   58SAPC   H5R 4336   4.986   2.573  10.116 -1.1193 -1.0055 -1.0352
   58SAPC   C26 4337   4.940   2.635   9.918  0.7890 -0.6559  0.0441
   58SAPC   H6R 4338   4.916   2.536   9.877  0.8850  0.6768 -3.6711
   58SAPC   C27 4339   4.897   2.741   9.822  1.0525  0.9992 -0.3838
   58SAPC   H7R 4340   4.849   2.825   9.875 -2.5883 -0.9853 -0.1959
   58SAPC   H7S 4341   4.816   2.704   9.756  1.0062 -1.5574  0.9765
   58SAPC   C28 4342   5.015   2.797   9.754 -0.3434  0.3902 -0.2500
   58SAPC   H8R 4343   5.069   2.875   9.810  1.4833  0.5618 -2.1578
   58SAPC   C29 4344   5.064   2.769   9.635  0.2907 -0.3409 -0.1938
   58SAPC   H9R 4345   5.157   2.820   9.607 -0.5211  0.9361 -0.6547
   58SAPC  C210 4346   5.023   2.664   9.540  0.0841 -0.4291 -0.3683
   58SAPC  H10R 4347   4.965   2.584   9.591 -1.5323  0.3276 -0.9344
   58SAPC  H10S 4348   5.115   2.613   9.507 -0.8438 -1.1495 -1.9544
   58SAPC  C211 4349   4.938   2.711   9.427 -0.2183  0.2853  0.1152
   58SAPC  H11R 4350   4.845   2.762   9.457  0.6941  1.7821  0.4849
   58SAPC  C212 4351   4.963   2.708   9.298  0.4629 -0.6967  0.7043
   58SAPC  H12R 4352   4.896   2.754   9.224  1.1446  0.7903  0.9746
   58SAPC  C213 4353   5.091   2.658   9.243  0.8646  1.0308 -0.0234
   58SAPC  H13R 4354   5.074   2.624   9.139 -3.1567  0.2639  0.7016
   58SAPC  H13S 4355   5.130   2.565   9.289  2.0403 -0.3007 -3.4768
   58SAPC  C214 4356   5.204   2.752   9.265  0.1729 -0.0963  0.0588
   58SAPC  H14R 4357   5.220   2.798   9.364  2.6966 -1.9318  0.6114
   58SAPC  C215 4358   5.304   2.764   9.177  0.1035  0.5195  0.4507
   58SAPC  H15R 4359   5.386   2.832   9.206  0.6790 -0.4285  1.0684
   58SAPC  C216 4360   5.310   2.684   9.041  0.2341 -1.0971 -0.0544
   58SAPC  H16R 4361   5.253   2.732   8.959  0.3770  0.1109  0.5276
   58SAPC  H16S 4362   5.288   2.576   9.057  0.2122 -1.0897 -0.0357
   58SAPC  C217 4363   5.449   2.679   8.985  0.3652 -0.0202  0.3664
   58SAPC  H17R 4364   5.533   2.682   9.056  0.9896 -0.5539 -0.3357
   58SAPC  H17S 4365   5.469   2.779   8.940 -2.9046  0.6121  0.0448
   58SAPC  C218 4366   5.462   2.579   8.879 -0.2663  0.3713 -0.0642
   58SAPC  H18R 4367   5.400   2.599   8.789 -0.5686 -0.8258 -0.1377
   58SAPC  H18S 4368   5.414   2.484   8.912 -0.8831  0.3622 -0.9580
   58SAPC  C219 4369   5.610   2.561   8.843 -0.8927 -0.0228 -0.0486
   58SAPC  H19R 4370   5.672   2.536   8.931 -2.3421 -0.9310  0.7603
   58SAPC  H19S 4371   5.653   2.653   8.797 -0.7247 -0.2687 -0.3930
   58SAPC  C220 4372   5.626   2.452   8.741  0.1594  0.1070 -0.6233
   58SAPC  H20R 4373   5.721   2.447   8.684  0.5239  0.1283 -0.0232
   58SAPC  H20S 4374   5.536   2.447   8.675 -0.8719 -1.5908  0.8313
   58SAPC  H20T 4375   5.619   2.358   8.799  0.6549  0.3673 -0.1378
   58SAPC   C33 4376   4.375   2.648   9.943  0.4965 -0.0639 -0.0740
   58SAPC   H3X 4377   4.331   2.727  10.008  0.4990 -0.7175  0.7356
   58SAPC   H3Y 4378   4.312   2.557   9.936 -0.3029  0.3851  0.9621
   58SAPC   C34 4379   4.403   2.716   9.806  0.1960  1.1302  0.2249
   58SAPC   H4X 4380   4.470   2.805   9.813  0.4583  0.8015  3.0236
   58SAPC   H4Y 4381   4.313   2.744   9.748  1.2158 -0.5755 -2.3921
   58SAPC   C35 4382   4.481   2.617   9.711  0.5007  0.3408  0.1391
   58SAPC   H5X 4383   4.415   2.528   9.702 -0.8571  1.4047 -1.0198
   58SAPC   H5Y 4384   4.577   2.578   9.750 -0.1547 -0.9261  0.5427
   58SAPC   C36 4385   4.507   2.683   9.577  1.2215 -0.6549  0.5941
   58SAPC   H6X 4386   4.568   2.775   9.577 -0.6279  0.6411 -0.0326
   58SAPC   H6Y 4387   4.401   2.710   9.558  0.8136 -1.6818  1.3115
   58SAPC   C37 4388   4.556   2.587   9.473 -0.4445 -0.7892  0.2100
   58SAPC   H7X 4389   4.497   2.493   9.466 -0.4454 -1.1005  3.0502
   58SAPC   H7Y 4390   4.660   2.561   9.502  0.2263  0.1812 -1.2310
   58SAPC   C38 4391   4.568   2.650   9.335  0.4322  0.6965  0.0662
   58SAPC   H8X 4392   4.662   2.708   9.327  0.9287  0.2293  2.0331
   58SAPC   H8Y 4393   4.480   2.716   9.319 -1.1532 -1.0091  1.1434
   58SAPC   C39 4394   4.557   2.539   9.226  0.1026 -0.1087  0.1675
   58SAPC   H9X 4395   4.463   2.487   9.253 -1.1965  0.8638 -2.1508
   58SAPC   H9Y 4396   4.647   2.475   9.233 -0.0314 -0.2233  0.9021
   58SAPC  C310 4397   4.549   2.593   9.086  0.2494 -0.6580 -0.0059
   58SAPC  H10X 4398   4.647   2.639   9.062  0.2329  0.6153  2.1271
   58SAPC  H10Y 4399   4.479   2.678   9.073  0.9935 -0.3090 -2.0737
   58SAPC  C311 4400   4.515   2.490   8.977 -0.3512  0.0226  0.1060
   58SAPC  H11X 4401   4.415   2.447   9.000 -1.4514 -0.0000 -3.8881
   58SAPC  H11Y 4402   4.585   2.406   8.990  1.0181  1.1007 -0.0893
   58SAPC  C312 4403   4.516   2.550   8.840  0.2828  0.1810 -0.1064
   58SAPC  H12X 4404   4.608   2.611   8.833  1.1633 -1.1258 -0.2593
   58SAPC  H12Y 4405   4.422   2.607   8.826 -0.1843 -1.0598 -2.5415
   58SAPC  C313 4406   4.516   2.459   8.717  0.5133  0.2935 -0.9991
   58SAPC  H13X 4407   4.433   2.388   8.735  0.5088  0.6196  0.3964
   58SAPC  H13Y 4408   4.618   2.417   8.702  0.7818  0.4171  0.3154
   58SAPC  C314 4409   4.477   2.534   8.593  0.2984  0.0200  0.6669
   58SAPC  H14X 4410   4.545   2.621   8.580 -0.9616  1.5218  3.3526
   58SAPC  H14Y 4411   4.371   2.566   8.584  0.1509 -0.9294 -1.7394
   58SAPC  C315 4412   4.491   2.458   8.456  0.0770  0.1005 -0.1796
   58SAPC  H15X 4413   4.479   2.350   8.478 -0.0308  0.3342  0.9595
   58SAPC  H15Y 4414   4.591   2.479   8.412 -0.0223  0.2563 -0.3314
   58SAPC  C316 4415   4.389   2.464   8.353  0.0755  0.3325  0.5726
   58SAPC  H16X 4416   4.368   2.568   8.320  0.5622  1.0296  2.3591
   58SAPC  H16Y 4417   4.293   2.435   8.401 -0.4138  2.0351  0.6866
   58SAPC  C317 4418   4.423   2.374   8.224 -0.1722  0.1807 -0.2190
   58SAPC  H17X 4419   4.425   2.269   8.261 -0.2806  0.5220  0.7899
   58SAPC  H17Y 4420   4.527   2.396   8.192 -0.1075 -1.3856 -1.1807
   58SAPC  C318 4421   4.324   2.373   8.103 -0.4820 -0.0190  0.7307
   58SAPC  H18X 4422   4.222   2.367   8.146 -0.3670 -0.0877  1.0000
   58SAPC  H18Y 4423   4.343   2.289   8.034 -1.5360 -0.4380  0.9381
   58SAPC  H18Z 4424   4.320   2.470   8.049 -1.2350 -1.6122 -2.2812
   59SAPC     N 4425   0.189   4.359  11.026  0.1885 -0.1127  0.0420
   59SAPC   C12 4426   0.260   4.284  10.909  0.9760 -0.0765  0.5767
   59SAPC  H12A 4427   0.359   4.325  10.898 -0.0122  2.1764 -0.6534
   59SAPC  H12B 4428   0.200   4.306  10.822 -1.0395 -0.6755  1.7414
   59SAPC   C13 4429   0.246   4.318  11.152  0.4607 -0.5237 -0.1262
   59SAPC  H13A 4430   0.179   4.332  11.235  0.8269  2.1666 -0.1792
   59SAPC  H13B 4431   0.276   4.215  11.143 -1.0676 -1.1273  1.3216
   59SAPC  H13C 4432   0.332   4.373  11.188  0.3755 -0.2272 -0.3630
   59SAPC   C14 4433   0.189   4.508  10.999 -0.5670  0.7390  0.4173
   59SAPC  H14A 4434   0.134   4.521  10.907  0.6542 -0.2386 -0.5020
   59SAPC  H14B 4435   0.139   4.565  11.075 -0.4471  1.5890 -0.1315
   59SAPC  H14C 4436   0.286   4.550  10.978  0.8245 -2.4571 -0.2001
   59SAPC   C15 4437   0.045   4.322  11.036  0.5375  0.4531  0.9316
   59SAPC  H15A 4438   0.000   4.334  10.939  1.4028 -0.0784  0.4540
   59SAPC  H15B 4439   0.043   4.217  11.062  2.8678  0.2599  0.5351
   59SAPC  H15C 4440  -0.002   4.388  11.108 -2.9956 -0.5287 -0.2519
   59SAPC   C11 4441   0.277   4.130  10.939  0.7489 -0.4740 -1.1199
   59SAPC  H11A 4442   0.283   4.087  10.837 -0.5983 -2.1860 -0.5165
   59SAPC  H11B 4443   0.187   4.091  10.989  2.4056  0.3450  2.8653
   59SAPC     P 4444   0.533   4.089  10.946 -0.2621  0.1647 -0.1788
   59SAPC   O13 4445   0.553   4.187  10.841  0.9927 -0.1850 -0.4548
   59SAPC   O14 4446   0.632   4.093  11.056  0.0073  0.3010 -0.6771
   59SAPC   O12 4447   0.396   4.116  11.011 -0.0360 -0.1460 -0.3885
   59SAPC   O11 4448   0.512   3.946  10.883  0.0914  0.2666 -0.0153
   59SAPC    C1 4449   0.622   3.885  10.814 -0.3135 -0.2478  0.4402
   59SAPC    HA 4450   0.720   3.929  10.843 -0.7623 -0.4626  2.4361
   59SAPC    HB 4451   0.633   3.783  10.857 -1.1578 -0.1499  0.9289
   59SAPC    C2 4452   0.605   3.875  10.661  0.3053 -0.1981  0.4253
   59SAPC    HS 4453   0.653   3.780  10.629 -0.1508 -0.3052  0.0558
   59SAPC   O21 4454   0.655   3.990  10.600  0.0994 -0.0207  0.1933
   59SAPC   C21 4455   0.791   3.986  10.568 -0.0503 -0.5410  0.0796
   59SAPC   O22 4456   0.861   3.887  10.583 -0.5839  0.4622 -0.5795
   59SAPC   C22 4457   0.825   4.116  10.518  0.2942 -0.1573  0.3818
   59SAPC   H2R 4458   0.749   4.192  10.545 -2.2673 -2.1925 -0.7773
   59SAPC   H2S 4459   0.927   4.137  10.557  0.8153 -3.9728  1.4477
   59SAPC    C3 4460   0.453   3.854  10.628 -0.1184 -0.3026 -0.6744
   59SAPC    HX 4461   0.395   3.932  10.682  0.2919 -0.7569  0.4719
   59SAPC    HY 4462   0.420   3.752  10.658  1.1854 -0.5140  0.1764
   59SAPC   O31 4463   0.428   3.891  10.492  0.3467 -0.7693  0.3727
   59SAPC   C31 4464   0.416   3.784  10.416 -0.4538 -0.4752 -0.2740
   59SAPC   O32 4465   0.445   3.671  10.448  0.0256  0.2883 -0.2456
   59SAPC   C32 4466   0.367   3.822  10.275  0.0919  0.2108 -0.2262
   59SAPC   H2X 4467   0.369   3.932  10.262 -0.0623  0.1445 -0.8461
   59SAPC   H2Y 4468   0.261   3.790  10.275 -0.1190  0.9014 -0.1788
   59SAPC   C23 4469   0.839   4.121  10.365  0.1378 -0.4786  0.3293
   59SAPC   H3R 4470   0.874   4.024  10.323  0.1519 -1.6250  2.8022
   59SAPC   H3S 4471   0.915   4.198  10.340  0.0919 -0.0263  1.4918
   59SAPC   C24 4472   0.704   4.154  10.295 -0.3602  0.6482 -0.5914
   59SAPC   H4R 4473   0.644   4.232  10.347  1.7588  1.9466  0.0333
   59SAPC   H4S 4474   0.641   4.063  10.302  0.8918 -0.2204 -0.2270
   59SAPC   C25 4475   0.722   4.214  10.160 -0.2100 -0.2751  0.1476
   59SAPC   H5R 4476   0.713   4.323  10.156 -1.8887 -0.2506  2.3560
   59SAPC   C26 4477   0.746   4.145  10.050 -0.6572 -0.7371 -0.2335
   59SAPC   H6R 4478   0.770   4.200   9.958 -3.8660  0.5457 -0.4327
   59SAPC   C27 4479   0.756   3.997  10.047  0.1944  0.5929  0.0135
   59SAPC   H7R 4480   0.658   3.957  10.014  0.3754 -0.1078  0.3130
   59SAPC   H7S 4481   0.762   3.948  10.146 -1.8983 -0.2362 -0.2263
   59SAPC   C28 4482   0.870   3.960   9.961 -0.2878  0.7859  0.2723
   59SAPC   H8R 4483   0.957   3.919  10.016 -0.1323 -1.6878 -1.6328
   59SAPC   C29 4484   0.874   3.954   9.825  0.3397  0.5479 -0.4932
   59SAPC   H9R 4485   0.964   3.907   9.782 -0.0529 -0.5538 -0.1369
   59SAPC  C210 4486   0.759   3.985   9.736 -0.9837 -0.6472 -0.2385
   59SAPC  H10R 4487   0.668   3.994   9.800 -0.2407  1.3255  0.6058
   59SAPC  H10S 4488   0.733   3.898   9.672 -0.6120 -0.7555 -0.2412
   59SAPC  C211 4489   0.779   4.114   9.658  0.2634  0.0820 -0.8521
   59SAPC  H11R 4490   0.779   4.203   9.722  2.6387 -0.1813 -0.4003
   59SAPC  C212 4491   0.781   4.121   9.526  0.0755  0.2435  0.4268
   59SAPC  H12R 4492   0.790   4.227   9.495  0.6995  0.4423  1.2659
   59SAPC  C213 4493   0.771   4.023   9.413 -0.3639  0.3715  1.1848
   59SAPC  H13R 4494   0.754   3.921   9.454  1.3039  0.3375  1.8745
   59SAPC  H13S 4495   0.869   4.012   9.361 -1.4050 -0.6301 -0.6994
   59SAPC  C214 4496   0.665   4.077   9.324  0.1576 -0.1698  0.1110
   59SAPC  H14R 4497   0.588   4.124   9.387 -0.2354 -1.9660  1.0263
   59SAPC  C215 4498   0.658   4.091   9.188  0.5986  1.2437 -0.7403
   59SAPC  H15R 4499   0.574   4.147   9.145 -1.4067  0.3233  1.7571
   59SAPC  C216 4500   0.763   4.054   9.087  0.0070 -0.5186 -0.4634
   59SAPC  H16R 4501   0.835   3.985   9.136 -0.2653 -0.5298 -0.0723
   59SAPC  H16S 4502   0.818   4.144   9.053 -1.1134  0.5786  0.5443
   59SAPC  C217 4503   0.693   3.975   8.987  0.2028  0.0451 -0.1333
   59SAPC  H17R 4504   0.628   4.048   8.935  2.5962  0.8356 -2.2569
   59SAPC  H17S 4505   0.628   3.898   9.032 -0.5465  1.6321  1.6318
   59SAPC  C218 4506   0.798   3.919   8.888 -1.1394 -0.0655 -0.1990
   59SAPC  H18R 4507   0.761   3.835   8.824 -1.9692 -0.6249  0.9785
   59SAPC  H18S 4508   0.881   3.882   8.952 -1.0761  0.4384  0.0128
   59SAPC  C219 4509   0.866   4.021   8.795  0.0374  0.2823  0.4283
   59SAPC  H19R 4510   0.918   4.098   8.856 -1.2378 -0.1831  2.2167
   59SAPC  H19S 4511   0.793   4.076   8.731 -0.7878  1.3030  2.1558
   59SAPC  C220 4512   0.971   3.954   8.711 -0.3865  0.0346  0.4692
   59SAPC  H20R 4513   1.050   3.911   8.777  1.2156  0.5542 -1.0358
   59SAPC  H20S 4514   1.015   4.023   8.636 -2.2593  0.4608 -0.2762
   59SAPC  H20T 4515   0.924   3.878   8.645 -0.9110  1.5571 -0.9846
   59SAPC   C33 4516   0.446   3.733  10.172 -0.9265  0.3772 -0.1984
   59SAPC   H3X 4517   0.423   3.627  10.195  0.3900  0.4485  1.7128
   59SAPC   H3Y 4518   0.557   3.738  10.173 -0.8409 -0.6649 -1.5201
   59SAPC   C34 4519   0.413   3.777  10.029  0.1480  0.5474  0.0503
   59SAPC   H4X 4520   0.444   3.883  10.020  1.4921  0.0468 -1.8062
   59SAPC   H4Y 4521   0.303   3.762  10.016 -0.0271  0.4387  1.5472
   59SAPC   C35 4522   0.476   3.705   9.910 -0.0769  0.2959  0.1063
   59SAPC   H5X 4523   0.439   3.600   9.910  0.5161  0.0842 -0.0632
   59SAPC   H5Y 4524   0.586   3.715   9.914 -0.0627  1.1346 -1.2702
   59SAPC   C36 4525   0.450   3.754   9.766  0.4451 -0.1679  0.7255
   59SAPC   H6X 4526   0.513   3.844   9.749  0.2097 -0.2486 -0.6698
   59SAPC   H6Y 4527   0.343   3.783   9.751  0.8318  0.4713 -0.9453
   59SAPC   C37 4528   0.493   3.655   9.659 -0.0829  1.1247  0.4099
   59SAPC   H7X 4529   0.419   3.572   9.664 -1.2356  2.1749  1.3724
   59SAPC   H7Y 4530   0.589   3.614   9.697 -0.5946  1.2281  1.8770
   59SAPC   C38 4531   0.531   3.704   9.514 -0.2920  0.1157  0.0036
   59SAPC   H8X 4532   0.566   3.619   9.452  0.7781  0.9279 -0.5497
   59SAPC   H8Y 4533   0.619   3.768   9.534 -0.6543 -0.2793  3.6713
   59SAPC   C39 4534   0.420   3.770   9.439 -0.1194  0.3420 -0.1551
   59SAPC   H9X 4535   0.418   3.877   9.468  0.3036  0.4029 -0.3378
   59SAPC   H9Y 4536   0.324   3.719   9.459 -0.9886  2.1531  0.4772
   59SAPC  C310 4537   0.452   3.782   9.291 -0.3281 -0.0210 -0.1430
   59SAPC  H10X 4538   0.559   3.804   9.267 -0.5343  1.3638  0.1459
   59SAPC  H10Y 4539   0.402   3.874   9.253 -2.6376 -1.4648 -0.7623
   59SAPC  C311 4540   0.392   3.664   9.218  0.3304  0.2581  0.2386
   59SAPC  H11X 4541   0.283   3.663   9.243  0.1218 -0.0851 -0.6541
   59SAPC  H11Y 4542   0.428   3.571   9.266  0.6109  0.0270 -0.4154
   59SAPC  C312 4543   0.412   3.652   9.059  0.1110 -0.6813  0.0410
   59SAPC  H12X 4544   0.386   3.553   9.018 -0.1619  0.4422 -2.6891
   59SAPC  H12Y 4545   0.522   3.661   9.044 -0.1383  1.1792 -0.9068
   59SAPC  C313 4546   0.342   3.759   8.967  0.1510  0.9572  0.1627
   59SAPC  H13X 4547   0.364   3.862   9.000 -1.1352  1.0018  0.9526
   59SAPC  H13Y 4548   0.234   3.741   8.990  0.7732 -2.8827  0.7609
   59SAPC  C314 4549   0.388   3.724   8.827  0.0828 -0.1879  0.6243
   59SAPC  H14X 4550   0.370   3.618   8.800  1.5437  0.0604 -1.5488
   59SAPC  H14Y 4551   0.498   3.734   8.827  0.1845 -0.5090 -2.3601
   59SAPC  C315 4552   0.318   3.814   8.726 -0.2622  0.4640 -0.3564
   59SAPC  H15X 4553   0.373   3.805   8.630 -2.1245  1.4289 -1.5822
   59SAPC  H15Y 4554   0.324   3.921   8.754 -0.6861  0.2929  0.4281
   59SAPC  C316 4555   0.169   3.776   8.697 -0.3581  0.7779 -0.1299
   59SAPC  H16X 4556   0.122   3.764   8.797  0.6320  0.7596  0.3419
   59SAPC  H16Y 4557   0.165   3.681   8.639  1.1483  0.0903  0.8439
   59SAPC  C317 4558   0.098   3.879   8.611  0.1594 -0.4523 -0.3721
   59SAPC  H17X 4559   0.141   3.873   8.509 -0.7852 -2.9121 -0.6811
   59SAPC  H17Y 4560   0.119   3.972   8.669 -1.9551 -0.6903  0.8985
   59SAPC  C318 4561  -0.053   3.855   8.602 -0.1131  0.2094 -0.2570
   59SAPC  H18X 4562  -0.100   3.892   8.696 -0.2875  0.5119 -0.4627
   59SAPC  H18Y 4563  -0.065   3.745   8.609  1.2222  0.0801  0.3435
   59SAPC  H18Z 4564  -0.103   3.900   8.514 -2.2139 -2.4460 -0.5233
   60SAPC     N 4565   4.724   1.308  10.900  0.2300  0.3812  0.0835
   60SAPC   C12 4566   4.662   1.350  10.772 -0.4728 -0.1776  0.9605
   60SAPC  H12A 4567   4.592   1.430  10.791  1.0310  1.1122  1.2979
   60SAPC  H12B 4568   4.598   1.269  10.741 -1.0085 -0.4083  2.5300
   60SAPC   C13 4569   4.805   1.431  10.951 -0.0752 -0.1315 -0.1530
   60SAPC  H13A 4570   4.736   1.502  10.995 -0.8866 -1.4373  0.7515
   60SAPC  H13B 4571   4.880   1.400  11.023  1.7376 -0.7833 -2.1924
   60SAPC  H13C 4572   4.866   1.465  10.869  0.5308 -0.2040  0.2534
   60SAPC   C14 4573   4.618   1.274  10.994 -0.0332 -0.3562 -0.2980
   60SAPC  H14A 4574   4.566   1.182  10.972  1.0663 -1.4647  1.5742
   60SAPC  H14B 4575   4.652   1.262  11.095 -0.3998 -2.2723 -0.3546
   60SAPC  H14C 4576   4.548   1.356  10.996 -1.0127 -1.1667 -0.2284
   60SAPC   C15 4577   4.815   1.192  10.875 -0.0616  1.2996  0.5744
   60SAPC  H15A 4578   4.874   1.214  10.787 -4.0341  0.7889 -2.4925
   60SAPC  H15B 4579   4.865   1.173  10.969  1.9339 -0.1218 -0.6852
   60SAPC  H15C 4580   4.751   1.108  10.850 -1.2090  2.0197  1.0314
   60SAPC   C11 4581   4.745   1.403  10.652 -0.7458  0.1680 -0.3020
   60SAPC  H11A 4582   4.683   1.405  10.560  0.2770 -1.4590 -1.0660
   60SAPC  H11B 4583   4.818   1.324  10.625 -0.6408  0.7303 -1.7557
   60SAPC     P 4584   4.731   1.655  10.665  0.0132 -0.3669 -0.1902
   60SAPC   O13 4585   4.679   1.692  10.803  0.5229  0.1568  0.2899
   60SAPC   O14 4586   4.811   1.755  10.596  0.0920 -0.5966 -0.0865
   60SAPC   O12 4587   4.819   1.525  10.666  0.4445  0.2662 -0.2439
   60SAPC   O11 4588   4.600   1.615  10.581  0.0669 -0.0045 -0.0279
   60SAPC    C1 4589   4.568   1.686  10.457 -0.0235 -0.8737 -0.5556
   60SAPC    HA 4590   4.659   1.698  10.394  1.7957  1.1806  2.2359
   60SAPC    HB 4591   4.494   1.626  10.400 -1.9325 -0.1466  1.0467
   60SAPC    C2 4592   4.504   1.828  10.476 -0.4310  0.5194 -0.5614
   60SAPC    HS 4593   4.571   1.889  10.541 -2.2655  0.6478  1.3078
   60SAPC   O21 4594   4.380   1.803  10.540 -0.4728 -0.3215  0.7989
   60SAPC   C21 4595   4.349   1.884  10.631  0.1686 -0.3517  0.4075
   60SAPC   O22 4596   4.419   1.970  10.672  0.3518 -0.5392  0.3340
   60SAPC   C22 4597   4.209   1.841  10.691 -0.9631  0.2004  0.2060
   60SAPC   H2R 4598   4.210   1.733  10.713  0.2780  0.5777  2.1869
   60SAPC   H2S 4599   4.204   1.900  10.785 -1.1336  2.0362 -0.8970
   60SAPC    C3 4600   4.475   1.910  10.352  0.2681  0.1577 -0.2367
   60SAPC    HX 4601   4.438   2.012  10.378 -2.9057 -0.7136 -0.9936
   60SAPC    HY 4602   4.392   1.863  10.295 -0.6539  2.1301 -0.6092
   60SAPC   O31 4603   4.592   1.924  10.272 -0.0800  0.6785  0.5851
   60SAPC   C31 4604   4.663   2.039  10.295  0.1215 -0.4164  0.0239
   60SAPC   O32 4605   4.622   2.133  10.361  0.3910 -0.1126  0.1498
   60SAPC   C32 4606   4.792   2.038  10.221  0.1542 -0.5050 -0.1289
   60SAPC   H2X 4607   4.837   1.937  10.233 -0.8895 -0.8262  1.4250
   60SAPC   H2Y 4608   4.858   2.105  10.281 -0.6426 -2.4399  3.1815
   60SAPC   C23 4609   4.088   1.896  10.608 -0.1122  0.0568 -0.0481
   60SAPC   H3R 4610   4.088   1.828  10.520  0.3882  1.1696 -0.9213
   60SAPC   H3S 4611   4.095   2.001  10.575 -2.8549  0.1517 -0.5620
   60SAPC   C24 4612   3.962   1.871  10.688 -0.0648 -0.3911  0.2364
   60SAPC   H4R 4613   3.985   1.902  10.792  0.0887  1.7640 -0.3993
   60SAPC   H4S 4614   3.954   1.760  10.690  0.3138 -0.4995 -1.9225
   60SAPC   C25 4615   3.845   1.951  10.634 -0.4628 -0.3229 -0.2187
   60SAPC   H5R 4616   3.818   2.036  10.698 -1.3644 -0.0749 -0.9054
   60SAPC   C26 4617   3.771   1.920  10.530 -0.7826  0.2137  0.4564
   60SAPC   H6R 4618   3.705   1.997  10.489  0.5549  0.6718 -0.9389
   60SAPC   C27 4619   3.793   1.793  10.447 -0.2272 -0.5968 -0.7946
   60SAPC   H7R 4620   3.859   1.724  10.504 -2.0657 -1.1951  0.7043
   60SAPC   H7S 4621   3.848   1.813  10.353  2.6580 -0.5659  0.7915
   60SAPC   C28 4622   3.663   1.717  10.443 -0.2439 -1.0737  0.5812
   60SAPC   H8R 4623   3.640   1.675  10.542 -0.4548 -2.5447 -0.0653
   60SAPC   C29 4624   3.578   1.694  10.342  0.0917 -0.2826  0.6038
   60SAPC   H9R 4625   3.489   1.632  10.357  0.0085 -0.3984 -0.2817
   60SAPC  C210 4626   3.599   1.751  10.202  0.2395 -0.2057  0.8486
   60SAPC  H10R 4627   3.624   1.668  10.133 -0.0577 -0.8360  1.4890
   60SAPC  H10S 4628   3.690   1.814  10.196  1.6669 -2.2683 -0.3300
   60SAPC  C211 4629   3.482   1.840  10.154  1.3953 -1.2823  0.1954
   60SAPC  H11R 4630   3.435   1.902  10.232  0.9754  0.6534 -1.5117
   60SAPC  C212 4631   3.447   1.869  10.030 -0.0353  0.1065  0.5937
   60SAPC  H12R 4632   3.362   1.937  10.013 -0.6105 -0.4228  1.2959
   60SAPC  C213 4633   3.517   1.817   9.900  0.4152 -0.4377  0.0088
   60SAPC  H13R 4634   3.607   1.756   9.921  2.1941  2.1469  0.4193
   60SAPC  H13S 4635   3.567   1.896   9.841  2.2384 -0.8552  0.9296
   60SAPC  C214 4636   3.429   1.726   9.812 -0.6643 -0.0354 -0.6333
   60SAPC  H14R 4637   3.334   1.702   9.863 -2.0993 -0.2749 -3.2168
   60SAPC  C215 4638   3.446   1.679   9.689  0.5950  0.5280 -0.0162
   60SAPC  H15R 4639   3.378   1.599   9.656 -0.1986  0.9225  0.6248
   60SAPC  C216 4640   3.573   1.709   9.615 -0.2859  0.6455  0.5454
   60SAPC  H16R 4641   3.641   1.624   9.591  0.7337  0.8249  2.5773
   60SAPC  H16S 4642   3.641   1.773   9.675 -0.4595  1.1868  0.1655
   60SAPC  C217 4643   3.545   1.769   9.477  0.1033  0.3832  0.6862
   60SAPC  H17R 4644   3.639   1.810   9.433 -0.8806  0.9792 -0.9231
   60SAPC  H17S 4645   3.480   1.858   9.489  0.9902  1.4293 -1.6616
   60SAPC  C218 4646   3.472   1.670   9.381  0.2183 -0.7087  0.4665
   60SAPC  H18R 4647   3.380   1.630   9.428  0.6862 -1.7697  0.4976
   60SAPC  H18S 4648   3.531   1.577   9.368 -0.1228 -0.8023 -0.5116
   60SAPC  C219 4649   3.448   1.739   9.247  0.4116 -0.0548  0.3743
   60SAPC  H19R 4650   3.541   1.786   9.207 -0.1315 -0.9171 -2.0277
   60SAPC  H19S 4651   3.378   1.824   9.258  0.4926  0.0837 -0.1522
   60SAPC  C220 4652   3.384   1.646   9.144 -0.2763 -0.2301 -0.0660
   60SAPC  H20R 4653   3.358   1.696   9.048 -1.2194 -1.3931 -0.4466
   60SAPC  H20S 4654   3.299   1.601   9.199 -0.7240 -1.7691 -1.9241
   60SAPC  H20T 4655   3.446   1.558   9.117  0.4188 -0.4080  1.9824
   60SAPC   C33 4656   4.775   2.071  10.072 -0.1298 -0.4013  0.5558
   60SAPC   H3X 4657   4.711   1.991  10.028 -1.3310 -0.6201  2.5572
   60SAPC   H3Y 4658   4.875   2.058  10.024 -0.7149 -1.2425 -0.4800
   60SAPC   C34 4659   4.723   2.210  10.032 -0.1146 -0.6093 -0.2819
   60SAPC   H4X 4660   4.782   2.291  10.079  0.8524 -0.4682 -1.6913
   60SAPC   H4Y 4661   4.623   2.224  10.079  0.6300  2.2416  0.6647
   60SAPC   C35 4662   4.718   2.241   9.875  0.8752  0.5369 -0.1624
   60SAPC   H5X 4663   4.697   2.349   9.857 -0.5019  0.3835  0.4417
   60SAPC   H5Y 4664   4.634   2.188   9.826  0.7631  1.7492 -1.3352
   60SAPC   C36 4665   4.849   2.217   9.801 -1.3429  0.5155 -0.9440
   60SAPC   H6X 4666   4.859   2.106   9.802  3.5749  0.7225 -1.4104
   60SAPC   H6Y 4667   4.923   2.258   9.873 -3.4027  0.9147  1.0468
   60SAPC   C37 4668   4.875   2.275   9.653 -0.0861  0.5761 -0.7083
   60SAPC   H7X 4669   4.980   2.304   9.631  0.0907  1.0466  0.6882
   60SAPC   H7Y 4670   4.819   2.370   9.639  1.6568  1.7262 -0.1802
   60SAPC   C38 4671   4.846   2.175   9.539  0.0595  0.4762 -0.2740
   60SAPC   H8X 4672   4.742   2.137   9.551  1.0719 -1.6013  3.1466
   60SAPC   H8Y 4673   4.908   2.087   9.564 -0.0435  0.3134 -0.5929
   60SAPC   C39 4674   4.883   2.223   9.400  0.4410  0.0139  0.0844
   60SAPC   H9X 4675   4.994   2.219   9.390  0.3731 -0.2171 -0.6969
   60SAPC   H9Y 4676   4.851   2.327   9.375  3.8979  0.8157 -1.7122
   60SAPC  C310 4677   4.822   2.138   9.291  0.3070 -0.2444  0.2494
   60SAPC  H10X 4678   4.713   2.158   9.283 -0.4424 -3.0385  1.7586
   60SAPC  H10Y 4679   4.819   2.028   9.311 -0.5576 -0.1371  0.7619
   60SAPC  C311 4680   4.909   2.143   9.169 -0.0302 -0.5794 -0.2234
   60SAPC  H11X 4681   4.874   2.070   9.092 -1.7466 -1.7783  1.6056
   60SAPC  H11Y 4682   5.014   2.124   9.196 -0.1305  0.5205  1.0319
   60SAPC  C312 4683   4.920   2.284   9.096 -0.0080 -0.3841 -0.1315
   60SAPC  H12X 4684   4.892   2.352   9.179  0.2834 -1.8212  1.1785
   60SAPC  H12Y 4685   4.854   2.299   9.008 -0.5040 -1.4231  0.0443
   60SAPC  C313 4686   5.064   2.309   9.045  0.2250  0.2161 -0.0893
   60SAPC  H13X 4687   5.147   2.278   9.112 -0.0990  2.5710  1.5111
   60SAPC  H13Y 4688   5.078   2.419   9.043  1.2343  0.1225  0.7646
   60SAPC  C314 4689   5.087   2.242   8.911 -0.5348 -0.1323 -0.5366
   60SAPC  H14X 4690   5.007   2.167   8.895 -1.0945  0.0548  1.1330
   60SAPC  H14Y 4691   5.184   2.188   8.909  1.0184  2.1502  2.7837
   60SAPC  C315 4692   5.091   2.349   8.803 -0.4379  0.2545 -0.4669
   60SAPC  H15X 4693   5.141   2.445   8.827 -2.4277  1.6150 -1.4748
   60SAPC  H15Y 4694   4.986   2.379   8.780 -0.9022 -0.9185  0.0169
   60SAPC  C316 4695   5.152   2.300   8.667  0.5614  0.2657  0.6148
   60SAPC  H16X 4696   5.131   2.385   8.598 -0.9223  0.2204  0.9703
   60SAPC  H16Y 4697   5.096   2.210   8.633  3.3280 -1.7969  1.2216
   60SAPC  C317 4698   5.299   2.281   8.666 -0.0159 -0.2917 -0.2944
   60SAPC  H17X 4699   5.322   2.190   8.726 -1.2335 -1.5631 -1.6647
   60SAPC  H17Y 4700   5.364   2.351   8.721  0.3607 -0.9296  0.0828
   60SAPC  C318 4701   5.360   2.265   8.533 -0.1828  0.0253  0.0919
   60SAPC  H18X 4702   5.468   2.237   8.532 -0.6164 -1.8712 -1.8442
   60SAPC  H18Y 4703   5.363   2.366   8.487  0.6078 -0.4401 -0.9430
   60SAPC  H18Z 4704   5.307   2.197   8.462  4.6570 -2.0725 -2.0054
   61SAPC     N 4705   5.742   2.102  10.643  0.0732 -0.1248  0.2072
   61SAPC   C12 4706   5.608   2.032  10.634 -0.2376  0.3547  0.7939
   61SAPC  H12A 4707   5.542   2.076  10.561  0.0248 -0.9489 -0.2672
   61SAPC  H12B 4708   5.554   2.032  10.727 -0.5819 -0.2931  0.5973
   61SAPC   C13 4709   5.720   2.252  10.639 -0.3035  0.1923 -0.1358
   61SAPC  H13A 4710   5.671   2.268  10.545 -2.4873 -0.1280  0.8920
   61SAPC  H13B 4711   5.670   2.286  10.728 -1.8811  1.5966 -1.5046
   61SAPC  H13C 4712   5.811   2.311  10.638  0.4861 -0.9675  0.4114
   61SAPC   C14 4713   5.799   2.063  10.771  0.2427  0.5303 -0.7451
   61SAPC  H14A 4714   5.727   2.074  10.851  1.4882 -0.4059  0.5623
   61SAPC  H14B 4715   5.818   1.957  10.768 -1.6476  0.1434 -0.4708
   61SAPC  H14C 4716   5.889   2.113  10.802  1.5394 -1.9796 -0.2063
   61SAPC   C15 4717   5.837   2.056  10.535  0.1110  0.1316  0.6573
   61SAPC  H15A 4718   5.939   2.089  10.551  0.7950 -1.9328  0.8901
   61SAPC  H15B 4719   5.842   1.950  10.553 -0.1228  0.1749  0.9857
   61SAPC  H15C 4720   5.818   2.070  10.429  1.4652 -2.0090  0.0797
   61SAPC   C11 4721   5.614   1.880  10.599 -0.2956  0.3743  0.4775
   61SAPC  H11A 4722   5.675   1.868  10.507  0.0183  0.4280  0.6783
   61SAPC  H11B 4723   5.512   1.845  10.571  0.0139 -0.6614  0.5771
   61SAPC     P 4724   5.618   1.764  10.837  0.0591  0.4292 -0.1003
   61SAPC   O13 4725   5.724   1.713  10.931  0.0729 -0.2367  0.2325
   61SAPC   O14 4726   5.539   1.877  10.886 -0.2405  0.0042 -0.3744
   61SAPC   O12 4727   5.679   1.792  10.695  0.2677  0.0267 -0.0525
   61SAPC   O11 4728   5.517   1.650  10.814  0.5469  0.4549 -0.4362
   61SAPC    C1 4729   5.561   1.529  10.749  0.0614 -0.1586 -0.3444
   61SAPC    HA 4730   5.668   1.503  10.764  0.6410  1.9135 -0.6543
   61SAPC    HB 4731   5.504   1.449  10.801  1.3357 -2.1523 -1.8908
   61SAPC    C2 4732   5.522   1.504  10.597 -0.4187  0.2620  0.1402
   61SAPC    HS 4733   5.577   1.582  10.539  2.3140 -0.1906  1.9309
   61SAPC   O21 4734   5.379   1.510  10.582 -0.4476  0.6153 -0.4623
   61SAPC   C21 4735   5.339   1.573  10.474  0.2218  0.8891 -0.4861
   61SAPC   O22 4736   5.411   1.626  10.394 -0.1541 -0.6761  0.1302
   61SAPC   C22 4737   5.181   1.576  10.468 -0.4080 -0.1266  0.1040
   61SAPC   H2R 4738   5.148   1.560  10.572  0.4701 -0.8178  0.2868
   61SAPC   H2S 4739   5.146   1.677  10.437 -1.5975 -0.0377  1.6538
   61SAPC    C3 4740   5.572   1.365  10.548 -0.2589 -0.6160  0.2178
   61SAPC    HX 4741   5.523   1.288  10.612 -3.1230 -0.8009 -1.9758
   61SAPC    HY 4742   5.681   1.359  10.567 -0.2032  3.6927  2.5664
   61SAPC   O31 4743   5.523   1.334  10.412  0.1744 -0.7558 -0.0633
   61SAPC   C31 4744   5.608   1.385  10.327 -0.0911 -0.2395 -0.3409
   61SAPC   O32 4745   5.712   1.442  10.346 -0.1243 -0.3977 -0.1575
   61SAPC   C32 4746   5.551   1.352  10.186 -0.2141 -0.0875  0.1808
   61SAPC   H2X 4747   5.447   1.388  10.169 -0.2271 -0.1691  0.0805
   61SAPC   H2Y 4748   5.543   1.243  10.166  0.7154 -0.0809 -0.2473
   61SAPC   C23 4749   5.126   1.463  10.367 -0.8285  0.0740  0.9595
   61SAPC   H3R 4750   5.164   1.361  10.390 -0.4717 -0.2045 -0.7289
   61SAPC   H3S 4751   5.173   1.470  10.267  3.0113 -0.1852  2.5687
   61SAPC   C24 4752   4.978   1.471  10.361  0.4525 -0.3729  0.2778
   61SAPC   H4R 4753   4.944   1.469  10.467 -0.0444 -0.1814  0.1243
   61SAPC   H4S 4754   4.940   1.383  10.305  0.7957  0.0983 -0.7215
   61SAPC   C25 4755   4.914   1.594  10.299 -0.0294  0.0764 -0.0200
   61SAPC   H5R 4756   4.891   1.679  10.365  0.5174  0.1184  0.1219
   61SAPC   C26 4757   4.868   1.594  10.179  0.7085  0.1800  0.6652
   61SAPC   H6R 4758   4.834   1.692  10.144  0.5733  0.2884  1.1007
   61SAPC   C27 4759   4.878   1.487  10.072  0.3610  0.1567  0.2018
   61SAPC   H7R 4760   4.811   1.401  10.096 -0.1245  0.8331  1.3662
   61SAPC   H7S 4761   4.979   1.440  10.074 -0.4955 -1.8074  0.1850
   61SAPC   C28 4762   4.847   1.537   9.932  0.1829 -0.0051 -0.0470
   61SAPC   H8R 4763   4.935   1.539   9.866 -1.3546  1.9876 -2.2130
   61SAPC   C29 4764   4.733   1.581   9.876  1.1090 -0.5192 -0.3307
   61SAPC   H9R 4765   4.750   1.616   9.773 -1.1783  1.1747 -0.2012
   61SAPC  C210 4766   4.593   1.589   9.931  0.4579  0.1022  0.0894
   61SAPC  H10R 4767   4.580   1.508  10.007 -1.3221 -0.4296 -0.7202
   61SAPC  H10S 4768   4.527   1.554   9.848  2.0820 -1.2255 -0.7066
   61SAPC  C211 4769   4.560   1.722   9.992 -0.0480 -0.1805  0.0327
   61SAPC  H11R 4770   4.591   1.736  10.096 -0.2362 -0.5202  0.1336
   61SAPC  C212 4771   4.512   1.827   9.933  0.0544 -0.1874 -0.4806
   61SAPC  H12R 4772   4.504   1.927   9.980  2.0050  0.3863 -1.2714
   61SAPC  C213 4773   4.495   1.834   9.776 -0.5905 -0.7691 -0.2803
   61SAPC  H13R 4774   4.405   1.896   9.754  1.8495  2.2553 -2.6264
   61SAPC  H13S 4775   4.458   1.739   9.731  0.4853 -0.9468 -0.8108
   61SAPC  C214 4776   4.604   1.891   9.694  0.3057 -0.0379 -0.2642
   61SAPC  H14R 4777   4.689   1.938   9.745  0.8614 -2.9082  1.7315
   61SAPC  C215 4778   4.605   1.879   9.563  0.3753  0.1413 -0.7633
   61SAPC  H15R 4779   4.698   1.900   9.509  0.8229 -0.2608 -0.1603
   61SAPC  C216 4780   4.494   1.827   9.476 -0.3805  0.5690  0.5861
   61SAPC  H16R 4781   4.465   1.904   9.402  0.9692 -0.7092 -1.3476
   61SAPC  H16S 4782   4.405   1.793   9.534 -2.1573  2.5815 -0.8125
   61SAPC  C217 4783   4.535   1.703   9.386  0.0772 -0.5165  0.0807
   61SAPC  H17R 4784   4.438   1.667   9.344  0.2851 -1.0309  0.0282
   61SAPC  H17S 4785   4.567   1.615   9.445 -0.3578  0.8522  2.4811
   61SAPC  C218 4786   4.638   1.731   9.278 -0.3296 -0.0795  0.5942
   61SAPC  H18R 4787   4.731   1.774   9.320 -1.1748  2.4950  0.0366
   61SAPC  H18S 4788   4.603   1.816   9.216  0.9548  0.1336  0.1407
   61SAPC  C219 4789   4.664   1.600   9.193  0.4414  0.1059 -0.9704
   61SAPC  H19R 4790   4.566   1.552   9.171  0.1988 -0.2004  0.6758
   61SAPC  H19S 4791   4.725   1.533   9.256 -1.4561 -0.6616  0.1544
   61SAPC  C220 4792   4.731   1.632   9.060 -0.4858  0.4820  0.0774
   61SAPC  H20R 4793   4.753   1.533   9.013  0.6113 -0.1818  1.8675
   61SAPC  H20S 4794   4.826   1.688   9.072  0.2070 -0.5226 -0.5022
   61SAPC  H20T 4795   4.665   1.689   8.991  0.3497  1.4698  0.0683
   61SAPC   C33 4796   5.649   1.412  10.079  0.8006  0.4451  0.9297
   61SAPC   H3X 4797   5.750   1.400  10.124  0.6028  0.4818  1.3860
   61SAPC   H3Y 4798   5.620   1.518  10.060 -0.1967 -0.2056 -1.4219
   61SAPC   C34 4799   5.649   1.325   9.954  0.4145 -0.0784  0.3498
   61SAPC   H4X 4800   5.549   1.291   9.921  0.5842  1.5862 -2.2393
   61SAPC   H4Y 4801   5.698   1.226   9.965 -0.0398 -0.5643 -1.5882
   61SAPC   C35 4802   5.718   1.404   9.842 -0.2113 -0.2889 -0.3495
   61SAPC   H5X 4803   5.807   1.461   9.874  0.0081 -0.4402 -0.6762
   61SAPC   H5Y 4804   5.647   1.479   9.801 -0.2990 -0.4894 -0.5700
   61SAPC   C36 4805   5.751   1.318   9.717 -0.2198 -0.5505 -0.0227
   61SAPC   H6X 4806   5.814   1.232   9.749  0.6542 -0.8975 -2.4695
   61SAPC   H6Y 4807   5.815   1.378   9.649 -1.1127 -0.6218 -0.9461
   61SAPC   C37 4808   5.632   1.251   9.652 -0.5862  1.0456 -0.0592
   61SAPC   H7X 4809   5.554   1.323   9.619 -1.7934  0.2354  0.9294
   61SAPC   H7Y 4810   5.599   1.179   9.730 -0.0884  0.8985  0.0202
   61SAPC   C38 4811   5.682   1.160   9.528  0.0358 -0.2401  0.3017
   61SAPC   H8X 4812   5.627   1.067   9.501  1.8486 -1.6059  1.1014
   61SAPC   H8Y 4813   5.778   1.117   9.564 -0.4923  0.8577  3.3154
   61SAPC   C39 4814   5.703   1.243   9.398 -0.2468 -0.0630 -0.2234
   61SAPC   H9X 4815   5.774   1.325   9.423 -0.9468  0.1533  1.1566
   61SAPC   H9Y 4816   5.604   1.288   9.375 -1.0811 -2.1087 -0.8711
   61SAPC  C310 4817   5.758   1.155   9.276 -0.5893 -0.1531  0.6686
   61SAPC  H10X 4818   5.681   1.083   9.241  0.4780 -0.3954 -1.2567
   61SAPC  H10Y 4819   5.855   1.108   9.304 -0.9400 -2.1231 -1.2345
   61SAPC  C311 4820   5.788   1.241   9.156  0.2717 -0.2748 -0.8950
   61SAPC  H11X 4821   5.850   1.179   9.088  0.6222  0.4937 -1.2912
   61SAPC  H11Y 4822   5.856   1.324   9.185  1.1317 -1.0883 -0.5321
   61SAPC  C312 4823   5.666   1.287   9.081  0.2747 -0.0338 -0.7673
   61SAPC  H12X 4824   5.620   1.361   9.150  1.9434 -0.6621  1.1211
   61SAPC  H12Y 4825   5.590   1.207   9.069  0.6810 -0.3165 -1.5254
   61SAPC  C313 4826   5.686   1.339   8.944  0.1433  0.5912 -0.3779
   61SAPC  H13X 4827   5.745   1.265   8.887 -2.3277 -1.8175 -0.0103
   61SAPC  H13Y 4828   5.739   1.436   8.957  0.4748  0.2326  1.1442
   61SAPC  C314 4829   5.563   1.364   8.857  0.0005 -0.5156  0.2529
   61SAPC  H14X 4830   5.475   1.399   8.914 -0.7186  2.6217 -2.4547
   61SAPC  H14Y 4831   5.530   1.263   8.824 -0.6137  0.0331 -0.8578
   61SAPC  C315 4832   5.581   1.449   8.731  0.0813 -0.2092  0.3408
   61SAPC  H15X 4833   5.610   1.548   8.771 -1.0777  0.4675 -0.4561
   61SAPC  H15Y 4834   5.485   1.467   8.678  1.3175  2.1370 -1.2854
   61SAPC  C316 4835   5.684   1.377   8.631  0.4843 -0.0015 -0.5743
   61SAPC  H16X 4836   5.636   1.277   8.624 -3.1709  1.3548  1.8765
   61SAPC  H16Y 4837   5.780   1.385   8.687  0.3878 -1.1894 -0.2043
   61SAPC  C317 4838   5.718   1.435   8.495 -0.5467 -0.4986  0.2437
   61SAPC  H17X 4839   5.789   1.367   8.443  1.0204  2.0944 -1.2190
   61SAPC  H17Y 4840   5.755   1.538   8.511 -3.6162  0.7754 -0.1000
   61SAPC  C318 4841   5.583   1.455   8.409 -0.2478 -0.6032  0.1949
   61SAPC  H18X 4842   5.530   1.359   8.395  0.5699 -1.2678  1.4508
   61SAPC  H18Y 4843   5.603   1.485   8.304 -1.1974  0.4885  0.3007
   61SAPC  H18Z 4844   5.514   1.529   8.455  1.5785  0.4364  1.3800
   62SAPC     N 4845   3.690   1.571  11.020 -0.6733  0.1031 -0.2305
   62SAPC   C12 4846   3.675   1.612  10.876  0.5670  0.4537 -0.0929
   62SAPC  H12A 4847   3.721   1.708  10.857 -0.0169  0.7791  0.0825
   62SAPC  H12B 4848   3.569   1.617  10.853  0.7716 -0.6518 -1.4212
   62SAPC   C13 4849   3.641   1.428  11.036  0.8289 -0.3070 -0.2116
   62SAPC  H13A 4850   3.689   1.379  11.120 -0.1350  0.7650  1.0148
   62SAPC  H13B 4851   3.534   1.417  11.043  0.8942 -1.9927 -1.4269
   62SAPC  H13C 4852   3.673   1.379  10.946  1.0645  1.5772 -1.2079
   62SAPC   C14 4853   3.829   1.586  11.076  0.6490 -0.5025 -0.1376
   62SAPC  H14A 4854   3.871   1.684  11.061 -1.8269  0.6936  0.2466
   62SAPC  H14B 4855   3.834   1.571  11.183  1.2377 -1.5881 -0.2977
   62SAPC  H14C 4856   3.909   1.525  11.034  2.9213  1.8806  0.4683
   62SAPC   C15 4857   3.603   1.660  11.108 -0.0837 -0.0037 -0.3597
   62SAPC  H15A 4858   3.557   1.595  11.181 -1.4146 -1.4053 -2.3569
   62SAPC  H15B 4859   3.660   1.748  11.135  2.5891 -1.1271 -1.9532
   62SAPC  H15C 4860   3.515   1.679  11.049 -0.2732 -3.3103 -1.3325
   62SAPC   C11 4861   3.729   1.509  10.767 -0.2689  0.1904  0.1524
   62SAPC  H11A 4862   3.823   1.468  10.811 -0.8431 -0.0374  1.2121
   62SAPC  H11B 4863   3.751   1.565  10.674 -0.9315  1.1167  0.5415
   62SAPC     P 4864   3.509   1.421  10.656  0.0422 -0.1849  0.3589
   62SAPC   O13 4865   3.419   1.310  10.686  0.0054  0.3220  0.1288
   62SAPC   O14 4866   3.461   1.559  10.669 -0.4432 -0.6376 -0.8639
   62SAPC   O12 4867   3.640   1.398  10.742 -0.1569 -0.1300 -0.1536
   62SAPC   O11 4868   3.568   1.401  10.507 -0.1243 -0.7703  0.6566
   62SAPC    C1 4869   3.680   1.323  10.477 -0.7166 -0.3842 -0.1291
   62SAPC    HA 4870   3.758   1.393  10.439 -1.1912  0.5811  0.6136
   62SAPC    HB 4871   3.724   1.272  10.565 -1.7370  0.0101  0.6280
   62SAPC    C2 4872   3.653   1.221  10.365  0.7282 -0.3079 -0.1177
   62SAPC    HS 4873   3.748   1.168  10.342  1.6470  1.6162 -1.0356
   62SAPC   O21 4874   3.596   1.282  10.247 -0.1375 -1.1115 -0.3318
   62SAPC   C21 4875   3.692   1.335  10.171  0.2559 -0.4550  0.5332
   62SAPC   O22 4876   3.811   1.332  10.196  0.3738 -0.2463  0.3718
   62SAPC   C22 4877   3.631   1.374  10.034 -0.6764  0.0609 -0.6350
   62SAPC   H2R 4878   3.541   1.429  10.068 -0.3595  1.1899 -1.5939
   62SAPC   H2S 4879   3.696   1.443   9.978  1.1244 -1.6003 -0.7222
   62SAPC    C3 4880   3.565   1.101  10.417  0.3866  0.2947  0.4897
   62SAPC    HX 4881   3.470   1.158  10.419  0.0340 -0.2853  2.0780
   62SAPC    HY 4882   3.610   1.064  10.512 -1.0905 -3.0790  0.0265
   62SAPC   O31 4883   3.560   1.005  10.319 -0.2113  0.6097  0.0592
   62SAPC   C31 4884   3.465   0.912  10.351 -0.3651  0.1229 -0.8084
   62SAPC   O32 4885   3.410   0.899  10.460 -0.3100 -0.4600 -0.5629
   62SAPC   C32 4886   3.436   0.825  10.234  0.1412  0.1336  0.9035
   62SAPC   H2X 4887   3.524   0.812  10.167 -1.0473  0.2386 -0.7638
   62SAPC   H2Y 4888   3.375   0.892  10.170  2.1542 -0.1672 -1.4921
   62SAPC   C23 4889   3.590   1.244   9.971  0.2647  0.4937  0.3825
   62SAPC   H3R 4890   3.491   1.264   9.924  0.8597 -0.1454 -1.1976
   62SAPC   H3S 4891   3.561   1.169  10.048  0.3730  1.8782  1.8313
   62SAPC   C24 4892   3.686   1.180   9.867 -0.1955 -0.3412  0.1604
   62SAPC   H4R 4893   3.656   1.079   9.831  1.0445 -1.4746  2.0856
   62SAPC   H4S 4894   3.782   1.152   9.916  0.1195  1.4606  0.6458
   62SAPC   C25 4895   3.707   1.270   9.753 -0.4073  0.7631  0.0313
   62SAPC   H5R 4896   3.777   1.351   9.779  0.6706  0.4374 -1.7015
   62SAPC   C26 4897   3.646   1.272   9.631  0.8477  0.3789 -0.1172
   62SAPC   H6R 4898   3.669   1.356   9.564  0.3658  0.1458 -0.5854
   62SAPC   C27 4899   3.545   1.188   9.569  0.5323  0.1844  0.1502
   62SAPC   H7R 4900   3.456   1.242   9.531  0.2110  2.0693  3.2319
   62SAPC   H7S 4901   3.506   1.110   9.637  2.4714 -1.3685 -0.3969
   62SAPC   C28 4902   3.607   1.115   9.459 -0.0975 -0.5108 -0.1597
   62SAPC   H8R 4903   3.673   1.034   9.494  1.5524  1.8908  2.8912
   62SAPC   C29 4904   3.602   1.145   9.330 -0.1415  0.4630 -0.6828
   62SAPC   H9R 4905   3.652   1.072   9.265  1.7122  1.2199 -0.1715
   62SAPC  C210 4906   3.533   1.255   9.258  0.1797  0.5803  1.1233
   62SAPC  H10R 4907   3.587   1.295   9.170  1.1100 -0.3654  1.2420
   62SAPC  H10S 4908   3.532   1.348   9.319 -1.1730  1.5139 -0.2498
   62SAPC  C211 4909   3.383   1.203   9.228 -0.1839  0.3896 -0.1037
   62SAPC  H11R 4910   3.318   1.168   9.310 -3.1931 -0.1957 -2.5531
   62SAPC  C212 4911   3.334   1.180   9.111  0.3940  0.0871  0.6011
   62SAPC  H12R 4912   3.240   1.126   9.095  0.8160 -0.4983  0.0630
   62SAPC  C213 4913   3.404   1.201   8.970  0.2487  0.1417 -0.2623
   62SAPC  H13R 4914   3.509   1.236   8.980 -0.1103  1.0195  0.6031
   62SAPC  H13S 4915   3.357   1.281   8.908  2.3457  0.4757 -1.5104
   62SAPC  C214 4916   3.388   1.081   8.878 -0.9276  0.4848  0.9473
   62SAPC  H14R 4917   3.388   0.990   8.941  3.8731 -0.9349 -0.6774
   62SAPC  C215 4918   3.399   1.087   8.740  0.1202 -0.3493 -0.0263
   62SAPC  H15R 4919   3.397   0.997   8.676  1.1727  0.6770 -1.5563
   62SAPC  C216 4920   3.417   1.211   8.656 -0.2938 -0.3990 -0.0366
   62SAPC  H16R 4921   3.481   1.190   8.567 -3.0646  0.8380 -2.4481
   62SAPC  H16S 4922   3.462   1.293   8.716 -0.5442  1.2531 -1.9979
   62SAPC  C217 4923   3.292   1.245   8.574  0.3451 -0.3126 -0.6413
   62SAPC  H17R 4924   3.254   1.153   8.524 -2.1415  1.1326 -1.6099
   62SAPC  H17S 4925   3.311   1.326   8.501  0.2227 -0.6549 -1.0611
   62SAPC  C218 4926   3.173   1.303   8.659 -0.0944  0.6457 -0.2816
   62SAPC  H18R 4927   3.218   1.383   8.721 -1.8323  1.2427  0.2462
   62SAPC  H18S 4928   3.144   1.221   8.728 -0.2560 -0.4560 -1.6075
   62SAPC  C219 4929   3.059   1.360   8.587  1.0760  1.1832  0.7022
   62SAPC  H19R 4930   2.977   1.285   8.589  1.0616  1.1534  3.7340
   62SAPC  H19S 4931   3.097   1.378   8.484  1.6796 -0.1007  0.6842
   62SAPC  C220 4932   3.001   1.487   8.647  0.3757  0.1716  0.5058
   62SAPC  H20R 4933   2.901   1.501   8.601  0.8514 -0.5969 -0.8024
   62SAPC  H20S 4934   3.074   1.569   8.632  0.3993  0.2402  0.9909
   62SAPC  H20T 4935   2.986   1.456   8.753 -4.5906  0.3910  0.0937
   62SAPC   C33 4936   3.362   0.692  10.257 -0.8179  0.0186  0.5695
   62SAPC   H3X 4937   3.253   0.712  10.266 -0.9041  0.8169 -1.5830
   62SAPC   H3Y 4938   3.398   0.634  10.344  0.1084 -1.4549 -0.7367
   62SAPC   C34 4939   3.381   0.597  10.137  0.0915  0.2001 -0.1432
   62SAPC   H4X 4940   3.491   0.577  10.130 -0.4894 -4.2488  0.2377
   62SAPC   H4Y 4941   3.350   0.644  10.041  0.4793 -0.6805 -0.7203
   62SAPC   C35 4942   3.306   0.462  10.154  0.6060  0.4553  0.4435
   62SAPC   H5X 4943   3.197   0.486  10.163  0.4423  1.1968 -2.4194
   62SAPC   H5Y 4944   3.329   0.402  10.244 -0.1318 -0.2069  0.2142
   62SAPC   C36 4945   3.313   0.362  10.040  0.4633 -0.3984 -0.0399
   62SAPC   H6X 4946   3.284   0.263  10.082 -0.2546  0.1824  0.8981
   62SAPC   H6Y 4947   3.421   0.348  10.022  0.4205 -1.8674  0.6688
   62SAPC   C37 4948   3.246   0.403   9.912 -0.3321 -0.2669 -0.8346
   62SAPC   H7X 4949   3.271   0.510   9.894 -1.3777  0.4469  1.6213
   62SAPC   H7Y 4950   3.137   0.392   9.934  0.2243 -3.5236  0.9170
   62SAPC   C38 4951   3.283   0.317   9.787 -0.3122 -0.5088  0.7722
   62SAPC   H8X 4952   3.253   0.214   9.814  0.1075 -0.7575  0.3142
   62SAPC   H8Y 4953   3.394   0.311   9.791 -0.3386 -0.9017  0.9513
   62SAPC   C39 4954   3.238   0.365   9.649 -0.4143 -0.7465  0.7046
   62SAPC   H9X 4955   3.251   0.474   9.629 -0.7790 -0.8316  0.0008
   62SAPC   H9Y 4956   3.130   0.339   9.645 -0.2994 -1.3210  1.1389
   62SAPC  C310 4957   3.315   0.292   9.546 -0.0509 -0.5462  0.2632
   62SAPC  H10X 4958   3.302   0.184   9.569  0.4609 -0.6075  0.2832
   62SAPC  H10Y 4959   3.423   0.316   9.550  0.0721 -1.1925  1.5282
   62SAPC  C311 4960   3.266   0.311   9.396  0.6470  0.2035 -1.1857
   62SAPC  H11X 4961   3.263   0.418   9.368 -0.4754  0.7243  0.7116
   62SAPC  H11Y 4962   3.162   0.271   9.400  0.7937 -0.0859  0.6878
   62SAPC  C312 4963   3.346   0.232   9.290  0.8225 -0.6053 -0.1320
   62SAPC  H12X 4964   3.302   0.130   9.297 -1.3251  0.1704 -1.5614
   62SAPC  H12Y 4965   3.450   0.240   9.328 -0.5063  1.0774  3.6545
   62SAPC  C313 4966   3.318   0.294   9.151 -0.6325  0.1199  0.2578
   62SAPC  H13X 4967   3.332   0.404   9.152  0.0055  0.0439  0.6721
   62SAPC  H13Y 4968   3.211   0.272   9.131 -0.4371 -0.6814  0.0640
   62SAPC  C314 4969   3.416   0.239   9.047  0.1187 -0.3086 -0.2479
   62SAPC  H14X 4970   3.400   0.129   9.037 -0.1505 -0.1963 -1.0853
   62SAPC  H14Y 4971   3.517   0.269   9.083 -1.2386  2.3548  1.6849
   62SAPC  C315 4972   3.388   0.290   8.900 -0.1824 -0.3711 -0.9985
   62SAPC  H15X 4973   3.277   0.280   8.890  0.0225 -3.8724 -0.8733
   62SAPC  H15Y 4974   3.436   0.224   8.825  2.3554  1.3677 -1.0259
   62SAPC  C316 4975   3.419   0.435   8.860 -0.3527  0.4901 -0.0566
   62SAPC  H16X 4976   3.529   0.442   8.841 -0.0603 -1.9966  0.2972
   62SAPC  H16Y 4977   3.387   0.505   8.940 -0.1995  1.1056 -0.5312
   62SAPC  C317 4978   3.347   0.481   8.740  0.4750 -0.7295 -0.7229
   62SAPC  H17X 4979   3.238   0.500   8.754  0.5012 -0.7587 -0.4782
   62SAPC  H17Y 4980   3.362   0.398   8.668  3.7263 -1.4083  0.5520
   62SAPC  C318 4981   3.413   0.601   8.682  0.8020  0.3174  0.2862
   62SAPC  H18X 4982   3.397   0.695   8.738 -1.1300  1.4469 -1.9532
   62SAPC  H18Y 4983   3.376   0.618   8.578  0.1167  0.8619  0.6141
   62SAPC  H18Z 4984   3.523   0.585   8.672  0.5194 -0.6886 -1.9399
   63SAPC     N 4985   3.896   3.908   6.845  0.2452  0.1507  0.1700
   63SAPC   C12 4986   3.782   3.860   6.753 -0.8011 -0.1444 -0.3097
   63SAPC  H12A 4987   3.733   3.775   6.799 -1.4294  0.1659 -0.3897
   63SAPC  H12B 4988   3.812   3.826   6.655 -1.6356  1.3286 -1.1342
   63SAPC   C13 4989   3.974   3.782   6.865 -0.2694 -0.2743  0.8430
   63SAPC  H13A 4990   4.072   3.807   6.903  0.0023 -0.3071  0.1805
   63SAPC  H13B 4991   3.926   3.701   6.918  0.3014 -0.4329  1.1256
   63SAPC  H13C 4992   3.994   3.725   6.776 -1.5342 -1.1917  1.1107
   63SAPC   C14 4993   3.994   3.998   6.777  0.4013  0.8454 -0.5191
   63SAPC  H14A 4994   4.071   4.033   6.843 -0.1176  2.1053 -0.5415
   63SAPC  H14B 4995   4.046   3.963   6.689 -0.8831 -1.3416 -0.4785
   63SAPC  H14C 4996   3.940   4.091   6.763  1.0168  2.0962  4.0102
   63SAPC   C15 4997   3.846   3.957   6.980  0.4668  0.4479 -0.4295
   63SAPC  H15A 4998   3.778   3.885   7.024  2.8289 -1.8822 -0.3145
   63SAPC  H15B 4999   3.924   3.960   7.054  0.0313 -0.4129  0.0887
   63SAPC  H15C 5000   3.787   4.047   6.984  0.3842  0.3748 -0.0078
   63SAPC   C11 5001   3.668   3.960   6.731 -0.0921  0.6599 -0.0231
   63SAPC  H11A 5002   3.635   4.000   6.829 -0.5488 -2.4813  1.2548
   63SAPC  H11B 5003   3.588   3.899   6.685  0.4962 -0.2540  0.1187
   63SAPC     P 5004   3.611   4.178   6.616 -0.1506 -0.1022 -0.2842
   63SAPC   O13 5005   3.646   4.245   6.488 -0.4250 -0.0692  0.9934
   63SAPC   O14 5006   3.475   4.127   6.627  0.3319  0.1054  0.0455
   63SAPC   O12 5007   3.704   4.058   6.639  0.3173  0.0814  0.2677
   63SAPC   O11 5008   3.635   4.292   6.733  0.6035  0.0812 -0.0208
   63SAPC    C1 5009   3.775   4.320   6.749  0.3008 -0.0175 -0.0102
   63SAPC    HA 5010   3.818   4.281   6.844  1.0625  1.6027  0.3502
   63SAPC    HB 5011   3.844   4.287   6.668  1.7655  1.5556  0.5382
   63SAPC    C2 5012   3.798   4.470   6.752 -0.3286 -0.3947 -0.8282
   63SAPC    HS 5013   3.906   4.487   6.731 -0.5953  0.6194 -1.4070
   63SAPC   O21 5014   3.751   4.512   6.882  0.2492 -0.4835 -0.0092
   63SAPC   C21 5015   3.850   4.502   6.974 -0.9492  0.0475 -0.4170
   63SAPC   O22 5016   3.958   4.460   6.959 -0.4522 -0.5225  0.4790
   63SAPC   C22 5017   3.799   4.555   7.111  0.1166  0.2020 -0.4071
   63SAPC   H2R 5018   3.689   4.571   7.108 -0.1967 -1.7655 -1.8102
   63SAPC   H2S 5019   3.826   4.481   7.190  4.4320  0.5733 -1.2701
   63SAPC    C3 5020   3.723   4.544   6.643 -0.0161 -0.2385 -0.2091
   63SAPC    HX 5021   3.622   4.503   6.623 -0.5577  0.3220  1.2471
   63SAPC    HY 5022   3.791   4.538   6.556 -0.6872  1.1632 -0.8622
   63SAPC   O31 5023   3.726   4.690   6.674 -0.0048 -0.5253  0.1489
   63SAPC   C31 5024   3.616   4.726   6.747  0.0781 -0.0735  0.5048
   63SAPC   O32 5025   3.512   4.669   6.763 -0.3822 -0.0521 -0.5725
   63SAPC   C32 5026   3.630   4.874   6.779  0.5525  0.0364  0.0119
   63SAPC   H2X 5027   3.628   4.930   6.683  0.3682 -0.9636 -0.5814
   63SAPC   H2Y 5028   3.728   4.894   6.827 -0.2633  3.9830  0.4027
   63SAPC   C23 5029   3.888   4.665   7.158 -0.2481 -0.3902 -0.5089
   63SAPC   H3R 5030   3.886   4.743   7.078  2.5224 -0.5331 -0.8179
   63SAPC   H3S 5031   3.993   4.631   7.168 -0.7633 -1.4980  1.5648
   63SAPC   C24 5032   3.847   4.738   7.289 -0.0408  0.4266 -0.3131
   63SAPC   H4R 5033   3.742   4.773   7.284  0.5061  2.1539 -0.3224
   63SAPC   H4S 5034   3.915   4.825   7.300 -0.1031  0.4463 -0.0681
   63SAPC   C25 5035   3.879   4.661   7.416  0.2890  0.5187  0.2835
   63SAPC   H5R 5036   3.948   4.579   7.393 -2.0219 -1.2001 -0.9148
   63SAPC   C26 5037   3.826   4.687   7.534  0.2550  0.1775 -0.2158
   63SAPC   H6R 5038   3.864   4.621   7.614  0.9432  0.0054 -0.6747
   63SAPC   C27 5039   3.728   4.795   7.570  0.6637  0.1531 -0.0755
   63SAPC   H7R 5040   3.635   4.760   7.619  2.1074 -1.8101  1.4063
   63SAPC   H7S 5041   3.686   4.835   7.475 -1.5201 -0.8591  0.3922
   63SAPC   C28 5042   3.790   4.902   7.645 -0.0117  0.1649  0.2715
   63SAPC   H8R 5043   3.836   4.974   7.575 -1.1080 -0.1600 -0.8025
   63SAPC   C29 5044   3.784   4.931   7.773  0.8681  0.0707  0.2801
   63SAPC   H9R 5045   3.850   5.009   7.813  1.8883 -1.3832  1.5494
   63SAPC  C210 5046   3.717   4.841   7.879 -0.0041 -0.1016 -0.4625
   63SAPC  H10R 5047   3.687   4.742   7.838 -1.5057 -0.0135  0.3501
   63SAPC  H10S 5048   3.627   4.892   7.919  0.1035  1.0077 -1.5844
   63SAPC  C211 5049   3.807   4.818   8.002 -0.1009 -0.3387  0.1392
   63SAPC  H11R 5050   3.884   4.741   7.986 -1.1156 -0.8562 -2.7981
   63SAPC  C212 5051   3.796   4.879   8.122 -0.0810  0.0394 -0.3626
   63SAPC  H12R 5052   3.871   4.856   8.198  0.4482 -1.8316 -1.3808
   63SAPC  C213 5053   3.696   4.990   8.148  0.1409  0.5782 -0.7435
   63SAPC  H13R 5054   3.669   4.965   8.253  2.2039 -0.7613 -0.4924
   63SAPC  H13S 5055   3.600   4.963   8.099 -0.0645 -0.9235  0.4222
   63SAPC  C214 5056   3.736   5.138   8.145  0.1606  0.5923  0.5557
   63SAPC  H14R 5057   3.711   5.190   8.051  2.1035  1.5948  0.5391
   63SAPC  C215 5058   3.795   5.204   8.246 -0.7993  0.3144  0.2096
   63SAPC  H15R 5059   3.833   5.302   8.215  0.9283 -0.2491  0.4512
   63SAPC  C216 5060   3.831   5.165   8.387  0.3706 -0.4704 -0.4433
   63SAPC  H16R 5061   3.940   5.185   8.397  0.4884  0.1468 -2.6282
   63SAPC  H16S 5062   3.800   5.061   8.414  0.3790 -0.3261  0.1407
   63SAPC  C217 5063   3.760   5.248   8.491  0.6965  0.0455 -0.5767
   63SAPC  H17R 5064   3.651   5.227   8.480  0.2067  0.8870  2.1618
   63SAPC  H17S 5065   3.765   5.356   8.466 -0.6315  0.3629  0.4568
   63SAPC  C218 5066   3.816   5.224   8.629  0.1883  0.2971 -0.3362
   63SAPC  H18R 5067   3.924   5.207   8.611  0.6556  0.7770  1.7175
   63SAPC  H18S 5068   3.783   5.130   8.678  0.1881 -0.6587 -2.0939
   63SAPC  C219 5069   3.801   5.339   8.728  0.2609 -0.5510 -0.4391
   63SAPC  H19R 5070   3.826   5.309   8.832 -1.7834  0.0595  0.2768
   63SAPC  H19S 5071   3.698   5.377   8.745  0.2675 -0.8861  0.4196
   63SAPC  C220 5072   3.889   5.467   8.690 -1.0610 -0.0283 -0.1632
   63SAPC  H20R 5073   3.867   5.520   8.595  1.3565  0.4999 -0.4849
   63SAPC  H20S 5074   3.995   5.433   8.688 -1.0620 -0.3958  2.3926
   63SAPC  H20T 5075   3.872   5.532   8.779  1.5625 -0.5602  0.8244
   63SAPC   C33 5076   3.522   4.935   6.867 -0.1494 -0.3259  0.0322
   63SAPC   H3X 5077   3.422   4.937   6.819  0.9615  2.0026 -2.4624
   63SAPC   H3Y 5078   3.553   5.041   6.877 -0.3856 -0.4120  2.2906
   63SAPC   C34 5079   3.526   4.871   7.007  0.1369  0.2066  0.0828
   63SAPC   H4X 5080   3.631   4.881   7.041 -0.1023  1.7814  0.4611
   63SAPC   H4Y 5081   3.500   4.763   7.011  2.9985 -0.6204 -1.2719
   63SAPC   C35 5082   3.423   4.950   7.100 -0.6022 -0.4091 -0.5030
   63SAPC   H5X 5083   3.320   4.938   7.059  0.0208 -2.1346 -1.7056
   63SAPC   H5Y 5084   3.458   5.055   7.099  3.6462 -1.5865  1.1630
   63SAPC   C36 5085   3.433   4.906   7.255 -0.3663  0.0612 -0.0123
   63SAPC   H6X 5086   3.541   4.884   7.269 -0.6645 -0.4049  1.8235
   63SAPC   H6Y 5087   3.374   4.812   7.260  2.8258 -2.0952  0.6403
   63SAPC   C37 5088   3.384   5.009   7.352 -0.6747  0.0523 -0.2200
   63SAPC   H7X 5089   3.283   5.053   7.339 -0.9959  0.1478  2.1377
   63SAPC   H7Y 5090   3.462   5.088   7.356  0.7699 -1.3695  3.1060
   63SAPC   C38 5091   3.371   4.951   7.495 -0.5126 -0.1822  0.3036
   63SAPC   H8X 5092   3.435   4.860   7.497 -0.4015 -0.1061  0.1427
   63SAPC   H8Y 5093   3.266   4.915   7.494 -1.5352  2.4522  1.6149
   63SAPC   C39 5094   3.381   5.038   7.618 -0.9418  0.8595 -0.1224
   63SAPC   H9X 5095   3.335   5.137   7.598 -1.4016  0.2684 -2.2018
   63SAPC   H9Y 5096   3.484   5.045   7.659 -0.5138  0.8901 -1.1776
   63SAPC  C310 5097   3.286   4.991   7.733 -0.5400  0.2164  0.0557
   63SAPC  H10X 5098   3.300   4.885   7.763  0.8815  0.2720 -0.3481
   63SAPC  H10Y 5099   3.183   5.006   7.694 -0.4651  1.7781  0.4062
   63SAPC  C311 5100   3.301   5.089   7.858  0.3408  0.3499 -0.9249
   63SAPC  H11X 5101   3.302   5.192   7.815  1.0867  1.1482  0.8884
   63SAPC  H11Y 5102   3.399   5.076   7.911 -0.4801 -0.0932  0.5502
   63SAPC  C312 5103   3.194   5.072   7.961  0.8206  0.6538 -0.4360
   63SAPC  H12X 5104   3.183   4.969   7.999 -0.1497  0.3143 -1.5635
   63SAPC  H12Y 5105   3.096   5.079   7.908 -1.3284 -2.7398  2.6395
   63SAPC  C313 5106   3.195   5.168   8.078 -0.1419 -0.3065 -0.1215
   63SAPC  H13X 5107   3.090   5.175   8.114 -0.3642  2.8547 -1.0751
   63SAPC  H13Y 5108   3.239   5.267   8.052 -0.1828  0.0675  1.1404
   63SAPC  C314 5109   3.283   5.123   8.200  0.2230  0.0534  0.1019
   63SAPC  H14X 5110   3.391   5.123   8.174  0.2717 -1.4195  0.2331
   63SAPC  H14Y 5111   3.273   5.016   8.229  0.1446 -0.0135 -0.1668
   63SAPC  C315 5112   3.258   5.192   8.334 -0.3926 -0.3183  0.1582
   63SAPC  H15X 5113   3.149   5.183   8.355 -0.3728 -4.9387 -0.7094
   63SAPC  H15Y 5114   3.283   5.298   8.313 -2.0808  0.2992  1.0599
   63SAPC  C316 5115   3.338   5.133   8.455  0.2303 -0.4617 -0.5088
   63SAPC  H16X 5116   3.447   5.148   8.438  1.1450 -0.0269  4.4245
   63SAPC  H16Y 5117   3.303   5.028   8.451 -2.7030  0.4484 -2.1654
   63SAPC  C317 5118   3.290   5.193   8.585  0.2578 -0.0194 -0.0794
   63SAPC  H17X 5119   3.216   5.127   8.636  0.3152  0.9470  1.3328
   63SAPC  H17Y 5120   3.248   5.296   8.577 -0.6282 -0.2464  1.2654
   63SAPC  C318 5121   3.408   5.216   8.674 -0.5258  0.6683 -0.3176
   63SAPC  H18X 5122   3.487   5.285   8.635  0.6973 -0.9912 -0.8841
   63SAPC  H18Y 5123   3.472   5.126   8.682 -1.1841  0.1800 -0.5276
   63SAPC  H18Z 5124   3.375   5.248   8.775 -0.1181  1.6123 -0.4692
   64SAPC     N 5125   3.979   5.365   6.036  0.3949  0.5056 -0.3973
   64SAPC   C12 5126   3.991   5.469   6.147  0.1172  0.3082  0.0375
   64SAPC  H12A 5127   4.076   5.525   6.110  0.1744 -0.4130 -0.9531
   64SAPC  H12B 5128   4.022   5.426   6.242  0.6623 -0.5771 -0.5291
   64SAPC   C13 5129   4.098   5.267   6.037  0.5358  0.5992  0.5883
   64SAPC  H13A 5130   4.185   5.299   5.983 -0.1741 -0.4991 -1.2990
   64SAPC  H13B 5131   4.121   5.241   6.139 -1.4604 -1.5068  0.5889
   64SAPC  H13C 5132   4.069   5.175   5.989 -0.4003  1.5790 -0.8083
   64SAPC   C14 5133   3.849   5.291   6.052 -0.6680  0.6753  0.2912
   64SAPC  H14A 5134   3.767   5.360   6.041 -0.5976  0.6057 -0.7663
   64SAPC  H14B 5135   3.826   5.226   5.969 -1.2294  0.9233  0.2481
   64SAPC  H14C 5136   3.841   5.244   6.149  2.2845  2.0564  1.3429
   64SAPC   C15 5137   3.987   5.444   5.906 -0.1077 -0.0639 -0.6013
   64SAPC  H15A 5138   3.942   5.542   5.915  0.6657  0.2089  0.4735
   64SAPC  H15B 5139   4.089   5.470   5.882 -0.0606 -0.7331 -1.1590
   64SAPC  H15C 5140   3.943   5.392   5.822 -0.2885 -0.0790 -0.4989
   64SAPC   C11 5141   3.865   5.557   6.163 -0.3325 -0.1277 -0.0643
   64SAPC  H11A 5142   3.882   5.612   6.258  0.6724  1.2481 -1.0056
   64SAPC  H11B 5143   3.778   5.492   6.189 -0.4548  0.3814  0.8249
   64SAPC     P 5144   3.782   5.786   6.087 -0.2175 -0.0163  0.3259
   64SAPC   O13 5145   3.779   5.866   5.962 -0.4207 -0.0359  0.3525
   64SAPC   O14 5146   3.652   5.763   6.159 -0.0658  0.4026 -0.4100
   64SAPC   O12 5147   3.845   5.645   6.059 -0.1791  0.0276  0.1237
   64SAPC   O11 5148   3.887   5.852   6.191  0.2411  0.6092  0.3536
   64SAPC    C1 5149   4.028   5.838   6.175 -0.7571 -0.1197 -0.5111
   64SAPC    HA 5150   4.052   5.737   6.136  1.3178 -0.0459  0.4770
   64SAPC    HB 5151   4.063   5.911   6.098 -0.0130  0.0384 -0.0401
   64SAPC    C2 5152   4.108   5.872   6.304 -0.0698 -0.1730  0.0749
   64SAPC    HS 5153   4.216   5.846   6.296 -0.5483 -1.9217 -1.5586
   64SAPC   O21 5154   4.043   5.811   6.418 -0.0200 -0.3680  0.4679
   64SAPC   C21 5155   4.076   5.688   6.447  0.5094 -0.2918  0.3146
   64SAPC   O22 5156   4.157   5.617   6.388  0.1345 -0.2495 -0.0168
   64SAPC   C22 5157   3.990   5.643   6.564 -0.0774  0.1604 -0.1497
   64SAPC   H2R 5158   3.946   5.725   6.624 -0.5032 -0.3692  0.2670
   64SAPC   H2S 5159   3.903   5.588   6.524 -0.5261  1.8850 -1.6761
   64SAPC    C3 5160   4.098   6.027   6.329 -0.2418  0.5973  0.1684
   64SAPC    HX 5161   4.003   6.064   6.286  1.2879  2.6217 -1.7562
   64SAPC    HY 5162   4.162   6.063   6.246  0.9136 -0.2811  0.6412
   64SAPC   O31 5163   4.138   6.066   6.465 -0.2460 -0.3505 -0.1186
   64SAPC   C31 5164   4.036   6.111   6.550 -0.0481  0.6819 -0.3809
   64SAPC   O32 5165   3.917   6.114   6.513 -0.5103  0.7639  0.3102
   64SAPC   C32 5166   4.089   6.139   6.691  0.9360  0.1728  1.3940
   64SAPC   H2X 5167   4.087   6.248   6.710 -2.2820  0.5969 -0.5203
   64SAPC   H2Y 5168   4.189   6.091   6.690 -0.3973 -2.8176  1.6436
   64SAPC   C23 5169   4.077   5.553   6.661  0.1454  1.1676 -0.5527
   64SAPC   H3R 5170   4.165   5.611   6.697  0.5741  0.6800 -0.8092
   64SAPC   H3S 5171   4.117   5.473   6.596 -1.0986  1.7420 -2.0783
   64SAPC   C24 5172   4.004   5.479   6.784 -0.1572 -0.1819  0.6267
   64SAPC   H4R 5173   3.947   5.393   6.743  0.2858  0.5926 -1.8108
   64SAPC   H4S 5174   3.914   5.530   6.824 -0.2428 -0.4030  0.7148
   64SAPC   C25 5175   4.099   5.432   6.892 -0.3403  0.2156 -0.3444
   64SAPC   H5R 5176   4.150   5.341   6.858  1.6688  1.6392 -1.3493
   64SAPC   C26 5177   4.117   5.496   7.012  0.3870 -0.2354 -0.0233
   64SAPC   H6R 5178   4.196   5.456   7.077 -0.1869  0.9127  1.4308
   64SAPC   C27 5179   4.049   5.623   7.066 -0.3663  0.1920  0.4510
   64SAPC   H7R 5180   3.981   5.670   6.991 -0.4272  0.4552  0.6727
   64SAPC   H7S 5181   4.126   5.702   7.072 -0.0368 -0.1507  0.7505
   64SAPC   C28 5182   3.979   5.614   7.197  0.8719  0.1681 -0.2853
   64SAPC   H8R 5183   3.878   5.571   7.187  0.2192  2.0255 -2.5138
   64SAPC   C29 5184   4.012   5.666   7.319 -0.5249  0.3282 -0.0272
   64SAPC   H9R 5185   3.949   5.640   7.406 -0.3883  1.0775  0.3011
   64SAPC  C210 5186   4.139   5.740   7.364 -1.1970 -0.1973  0.2086
   64SAPC  H10R 5187   4.124   5.843   7.403 -1.0533 -0.5612  1.2762
   64SAPC  H10S 5188   4.199   5.767   7.274 -0.8619 -4.1460 -0.9334
   64SAPC  C211 5189   4.236   5.672   7.463 -0.2980  0.1299 -0.1247
   64SAPC  H11R 5190   4.310   5.606   7.416 -1.5733 -2.4292  1.2185
   64SAPC  C212 5191   4.220   5.696   7.592  0.6587  0.6617 -0.2425
   64SAPC  H12R 5192   4.285   5.633   7.654 -1.8494 -1.2303  0.6621
   64SAPC  C213 5193   4.111   5.781   7.660 -0.8702  0.2297 -0.3875
   64SAPC  H13R 5194   4.010   5.738   7.640 -0.1521 -0.9396 -1.7436
   64SAPC  H13S 5195   4.099   5.874   7.601  0.2500 -0.8331 -2.4199
   64SAPC  C214 5196   4.128   5.810   7.807 -0.2098 -0.1601  0.0262
   64SAPC  H14R 5197   4.227   5.784   7.845 -0.2902 -2.6347 -1.2304
   64SAPC  C215 5198   4.031   5.842   7.896 -0.1154  1.7986 -0.6051
   64SAPC  H15R 5199   4.057   5.872   7.998 -2.2059 -0.0428  0.5776
   64SAPC  C216 5200   3.885   5.844   7.880 -0.2451 -0.3275 -0.6723
   64SAPC  H16R 5201   3.831   5.753   7.917 -1.8877  1.5543  1.9257
   64SAPC  H16S 5202   3.859   5.856   7.773 -1.7623  1.6118 -0.1319
   64SAPC  C217 5203   3.818   5.948   7.967 -0.2747 -0.3129  0.1411
   64SAPC  H17R 5204   3.719   5.966   7.921 -0.4298  0.3449  0.7222
   64SAPC  H17S 5205   3.869   6.046   7.958  0.2308 -0.6306 -0.5314
   64SAPC  C218 5206   3.790   5.903   8.112 -0.2719 -0.5557 -0.6147
   64SAPC  H18R 5207   3.880   5.855   8.155  0.3368  0.5163 -0.6615
   64SAPC  H18S 5208   3.718   5.819   8.119 -1.0377  0.2263  2.3198
   64SAPC  C219 5209   3.761   6.018   8.204  0.1358 -0.0781  0.3764
   64SAPC  H19R 5210   3.705   5.981   8.293 -2.6602  0.5686 -1.0023
   64SAPC  H19S 5211   3.688   6.090   8.161  0.4269  2.3232  3.5357
   64SAPC  C220 5212   3.886   6.085   8.258 -0.5536 -0.3876  0.2188
   64SAPC  H20R 5213   3.860   6.156   8.339 -0.6365  2.0718 -1.8430
   64SAPC  H20S 5214   3.932   6.150   8.180 -1.3668 -1.2977 -1.0557
   64SAPC  H20T 5215   3.960   6.016   8.303 -0.8527 -0.4406  0.6394
   64SAPC   C33 5216   4.003   6.070   6.798  0.0108 -0.4728 -0.3229
   64SAPC   H3X 5217   3.994   5.960   6.783 -3.0695 -0.7874  2.4851
   64SAPC   H3Y 5218   3.903   6.120   6.796 -0.0253 -0.3127  1.9567
   64SAPC   C34 5219   4.061   6.085   6.940  0.9382 -0.2266  0.0895
   64SAPC   H4X 5220   4.077   6.194   6.957 -0.9914  0.6297 -2.7566
   64SAPC   H4Y 5221   4.156   6.028   6.943  0.3007 -1.7080 -3.1722
   64SAPC   C35 5222   3.954   6.044   7.051 -0.3791 -0.0832  0.3515
   64SAPC   H5X 5223   3.944   5.933   7.048  1.5682 -0.2892 -1.6867
   64SAPC   H5Y 5224   3.860   6.099   7.031 -0.4979 -0.4874 -0.2274
   64SAPC   C36 5225   4.009   6.092   7.180 -0.2137  0.0123 -0.1990
   64SAPC   H6X 5226   4.024   6.202   7.185  3.0547 -0.3627  1.2278
   64SAPC   H6Y 5227   4.110   6.047   7.196  0.6945  2.1593  0.4577
   64SAPC   C37 5228   3.911   6.076   7.297  0.4972  0.5243 -0.1694
   64SAPC   H7X 5229   3.870   5.974   7.286 -0.1105  0.6501  0.8036
   64SAPC   H7Y 5230   3.828   6.151   7.288 -1.6547 -1.2956  2.7362
   64SAPC   C38 5231   3.967   6.098   7.435 -0.7274 -0.7085  0.2641
   64SAPC   H8X 5232   4.054   6.029   7.440 -0.5217 -0.4277  0.6846
   64SAPC   H8Y 5233   3.893   6.058   7.509 -0.1462 -0.5189  0.9618
   64SAPC   C39 5234   4.004   6.243   7.464  0.0276  0.4287  0.3577
   64SAPC   H9X 5235   3.913   6.305   7.447 -0.1421  0.7627  2.2379
   64SAPC   H9Y 5236   4.091   6.266   7.398  0.4694 -2.4217 -0.1658
   64SAPC  C310 5237   4.038   6.281   7.604  0.0508 -0.1123 -0.5315
   64SAPC  H10X 5238   3.970   6.216   7.662 -1.1766 -0.1094 -1.8948
   64SAPC  H10Y 5239   4.013   6.388   7.623 -0.4642 -0.1461 -0.9691
   64SAPC  C311 5240   4.182   6.240   7.627 -0.2608  0.2394 -0.2286
   64SAPC  H11X 5241   4.239   6.328   7.589 -1.2996  0.8562 -0.4110
   64SAPC  H11Y 5242   4.211   6.146   7.576  1.2048  0.1118  0.7801
   64SAPC  C312 5243   4.203   6.220   7.776  0.1959  0.1100 -0.3788
   64SAPC  H12X 5244   4.308   6.184   7.785 -0.1528 -1.5407 -2.1669
   64SAPC  H12Y 5245   4.150   6.129   7.812  2.3399 -1.7958 -1.7077
   64SAPC  C313 5246   4.162   6.330   7.866 -0.4320 -0.5085  0.6413
   64SAPC  H13X 5247   4.051   6.328   7.866 -0.5560 -2.6424 -2.9456
   64SAPC  H13Y 5248   4.207   6.426   7.834 -0.5540 -0.7216 -0.1947
   64SAPC  C314 5249   4.218   6.307   8.007 -0.0886 -0.0789  0.1097
   64SAPC  H14X 5250   4.328   6.301   7.993 -0.2473 -0.6574 -0.9524
   64SAPC  H14Y 5251   4.180   6.212   8.050 -0.7971  0.6367  1.1296
   64SAPC  C315 5252   4.174   6.404   8.111 -0.1719  0.1565 -0.0587
   64SAPC  H15X 5253   4.063   6.406   8.118 -0.1389 -1.2699  1.3536
   64SAPC  H15Y 5254   4.204   6.508   8.089 -0.4467  0.3570  0.5079
   64SAPC  C316 5255   4.225   6.356   8.250 -0.6401 -0.0256  0.2112
   64SAPC  H16X 5256   4.336   6.352   8.239 -0.7219 -2.5868 -0.2210
   64SAPC  H16Y 5257   4.189   6.254   8.274  0.0942 -0.0473  1.2908
   64SAPC  C317 5258   4.209   6.454   8.370  0.1420  0.6499 -0.0611
   64SAPC  H17X 5259   4.282   6.537   8.356  1.8537 -0.7608  0.1742
   64SAPC  H17Y 5260   4.222   6.395   8.463  1.8455  0.6226 -0.2900
   64SAPC  C318 5261   4.066   6.519   8.368 -0.2190  0.4002  0.1696
   64SAPC  H18X 5262   3.980   6.449   8.360 -0.2378  0.5251 -0.9035
   64SAPC  H18Y 5263   4.052   6.599   8.292  0.4653  0.8809  0.5392
   64SAPC  H18Z 5264   4.057   6.562   8.470 -3.0113 -2.8978  1.4899
   65SAPC     N 5265   3.672   1.192   5.953 -0.3474 -0.4450 -0.7162
   65SAPC   C12 5266   3.654   1.057   5.886 -0.2695 -0.0445  0.0836
   65SAPC  H12A 5267   3.604   1.076   5.792  0.7042  3.4504  0.1243
   65SAPC  H12B 5268   3.590   0.986   5.937 -1.5372  0.9061 -0.1279
   65SAPC   C13 5269   3.540   1.248   5.978  0.4570 -0.1008 -0.2609
   65SAPC  H13A 5270   3.474   1.181   6.030 -1.5680  0.4304 -1.9986
   65SAPC  H13B 5271   3.534   1.335   6.042 -0.2441  0.7595 -1.4483
   65SAPC  H13C 5272   3.495   1.269   5.882  2.2593 -2.0709 -1.6158
   65SAPC   C14 5273   3.751   1.191   6.073  0.0833 -0.5968  0.8447
   65SAPC  H14A 5274   3.765   1.289   6.117 -0.7752 -0.4817  0.8785
   65SAPC  H14B 5275   3.705   1.139   6.156  1.4681 -0.5889  1.6458
   65SAPC  H14C 5276   3.849   1.148   6.063 -0.8663 -2.4127 -1.5302
   65SAPC   C15 5277   3.728   1.289   5.851  0.1930  0.1172 -0.4209
   65SAPC  H15A 5278   3.826   1.261   5.815  0.5468  1.8989 -0.9073
   65SAPC  H15B 5279   3.662   1.286   5.765  0.0298  0.7039 -0.3192
   65SAPC  H15C 5280   3.732   1.385   5.900  1.8039 -0.1046 -0.0796
   65SAPC   C11 5281   3.782   0.991   5.848  0.0270  0.5112 -0.1678
   65SAPC  H11A 5282   3.864   1.051   5.892 -0.7785 -0.8084  3.5396
   65SAPC  H11B 5283   3.802   0.995   5.739  1.0772 -3.2893 -0.2639
   65SAPC     P 5284   3.879   0.786   5.982 -0.2005  0.0834 -0.0178
   65SAPC   O13 5285   3.835   0.650   6.019  0.1466  0.7424  0.5077
   65SAPC   O14 5286   4.010   0.809   5.917  0.7456  0.2617  0.1378
   65SAPC   O12 5287   3.767   0.860   5.905  0.0370 -0.1077  0.2049
   65SAPC   O11 5288   3.887   0.878   6.114 -0.0076 -0.5416  0.2537
   65SAPC    C1 5289   3.804   0.840   6.225  0.6991  0.1825 -0.5390
   65SAPC    HA 5290   3.730   0.920   6.245 -0.1973 -0.7292 -0.1089
   65SAPC    HB 5291   3.741   0.751   6.205 -0.8708  1.1443 -0.0816
   65SAPC    C2 5292   3.889   0.806   6.351  0.1104 -0.0842 -0.7241
   65SAPC    HS 5293   3.964   0.887   6.361  1.2349 -0.6717 -3.4236
   65SAPC   O21 5294   3.961   0.680   6.334  0.6159 -0.5532  0.4340
   65SAPC   C21 5295   4.051   0.658   6.424  0.0392  0.4212  0.1340
   65SAPC   O22 5296   4.098   0.737   6.502  0.3217  0.2823  0.0990
   65SAPC   C22 5297   4.113   0.519   6.403 -0.2325  0.1401  0.2985
   65SAPC   H2R 5298   4.052   0.437   6.360  1.2151 -1.7407  1.6552
   65SAPC   H2S 5299   4.188   0.541   6.324 -2.1813  1.4075 -1.2990
   65SAPC    C3 5300   3.798   0.801   6.480 -0.5791  0.0491 -0.3458
   65SAPC    HX 5301   3.780   0.899   6.529  1.7582 -0.0635  0.8495
   65SAPC    HY 5302   3.846   0.729   6.549 -1.8347 -1.4444 -0.9687
   65SAPC   O31 5303   3.666   0.752   6.449 -0.8483  0.7183 -0.5962
   65SAPC   C31 5304   3.659   0.627   6.439  0.6560  0.3544  0.0255
   65SAPC   O32 5305   3.747   0.542   6.433 -0.2178 -0.3287  0.1792
   65SAPC   C32 5306   3.507   0.591   6.426 -0.4297  0.3440 -0.1582
   65SAPC   H2X 5307   3.501   0.490   6.381  4.1497 -0.4015  0.4523
   65SAPC   H2Y 5308   3.470   0.663   6.349  0.0822  2.1651  1.2348
   65SAPC   C23 5309   4.179   0.451   6.525 -0.5131  0.3171 -0.6757
   65SAPC   H3R 5310   4.188   0.518   6.612 -4.9455 -1.3945  1.4281
   65SAPC   H3S 5311   4.269   0.394   6.492 -0.6581 -0.3394  0.0359
   65SAPC   C24 5312   4.085   0.349   6.578  0.0922  0.0337 -0.2412
   65SAPC   H4R 5313   4.136   0.300   6.663 -0.4656  0.7531  0.5244
   65SAPC   H4S 5314   4.053   0.273   6.503 -0.0202 -0.1003 -0.0603
   65SAPC   C25 5315   3.948   0.395   6.615  0.4063 -0.1908 -0.8778
   65SAPC   H5R 5316   3.883   0.390   6.526  0.3083  0.1482 -0.8273
   65SAPC   C26 5317   3.931   0.464   6.727  0.7320  0.2649 -0.3071
   65SAPC   H6R 5318   3.830   0.506   6.742  0.2915 -0.3531 -1.4247
   65SAPC   C27 5319   4.031   0.493   6.835 -0.6532 -0.5898 -0.5559
   65SAPC   H7R 5320   4.121   0.429   6.821 -0.3693 -0.2361 -0.3484
   65SAPC   H7S 5321   3.991   0.476   6.937 -0.3518  2.1976  0.0939
   65SAPC   C28 5322   4.075   0.634   6.827  0.3554 -1.0787  0.5542
   65SAPC   H8R 5323   4.163   0.662   6.767 -0.4327  1.4087  0.4463
   65SAPC   C29 5324   4.013   0.745   6.884 -0.0906 -0.1458 -1.2679
   65SAPC   H9R 5325   4.061   0.844   6.880 -0.5922  0.2282  0.8525
   65SAPC  C210 5326   3.893   0.750   6.968 -0.1469 -0.2792 -0.0303
   65SAPC  H10R 5327   3.897   0.664   7.038 -0.1550  1.5901  2.4059
   65SAPC  H10S 5328   3.808   0.740   6.897 -0.9522  0.2674  0.8243
   65SAPC  C211 5329   3.864   0.870   7.059  0.8690 -0.2681 -0.3674
   65SAPC  H11R 5330   3.800   0.943   7.009  1.3894  1.9350  2.0115
   65SAPC  C212 5331   3.905   0.899   7.180  0.1158  0.2571 -0.5984
   65SAPC  H12R 5332   3.854   0.981   7.232  0.7849 -1.4136  3.0586
   65SAPC  C213 5333   3.987   0.800   7.270 -0.7160 -0.4073  0.6843
   65SAPC  H13R 5334   4.061   0.848   7.337 -1.2423 -0.8419  1.5852
   65SAPC  H13S 5335   4.055   0.742   7.205  0.1045  2.0394 -0.8021
   65SAPC  C214 5336   3.905   0.699   7.346  0.6716  0.4347 -0.4218
   65SAPC  H14R 5337   3.876   0.608   7.291 -0.5642  0.4980  0.1064
   65SAPC  C215 5338   3.867   0.702   7.478  0.1736  0.0247  0.6944
   65SAPC  H15R 5339   3.789   0.634   7.514 -1.1245  0.8328 -0.5011
   65SAPC  C216 5340   3.899   0.822   7.570 -0.0391 -0.0968 -0.2005
   65SAPC  H16R 5341   3.810   0.854   7.628 -0.8028 -0.5000 -1.1196
   65SAPC  H16S 5342   3.951   0.906   7.521  0.9410 -0.6452 -0.1314
   65SAPC  C217 5343   4.008   0.777   7.661  0.3619  0.3362 -0.0580
   65SAPC  H17R 5344   4.102   0.789   7.602 -0.1429  2.2839 -0.5392
   65SAPC  H17S 5345   4.000   0.670   7.688  0.0328 -0.2385 -2.2282
   65SAPC  C218 5346   4.002   0.862   7.786 -0.0990 -0.3730 -0.6225
   65SAPC  H18R 5347   3.904   0.856   7.837 -0.3438  1.9133 -0.6965
   65SAPC  H18S 5348   4.020   0.965   7.749 -0.3420  0.2139  0.8262
   65SAPC  C219 5349   4.105   0.822   7.887 -0.3947 -0.2093  0.0696
   65SAPC  H19R 5350   4.200   0.836   7.831  0.3941 -0.1651  1.3901
   65SAPC  H19S 5351   4.095   0.715   7.912 -0.6535  0.2240  1.9514
   65SAPC  C220 5352   4.104   0.916   8.008 -0.0388  0.0023 -0.2760
   65SAPC  H20R 5353   4.080   1.017   7.971  0.4377 -0.1723 -1.0731
   65SAPC  H20S 5354   4.202   0.898   8.059  0.2341 -0.4828 -0.9557
   65SAPC  H20T 5355   4.024   0.879   8.076 -0.3989 -0.7583 -1.0892
   65SAPC   C33 5356   3.427   0.616   6.555 -1.0436 -0.0856  0.7964
   65SAPC   H3X 5357   3.319   0.612   6.527 -0.7858  4.0856 -1.5240
   65SAPC   H3Y 5358   3.444   0.716   6.600  1.9877 -0.4374  0.5997
   65SAPC   C34 5359   3.457   0.511   6.667 -0.8034 -0.1923 -0.3662
   65SAPC   H4X 5360   3.566   0.494   6.674 -0.7021  0.9776  1.7499
   65SAPC   H4Y 5361   3.413   0.414   6.635 -0.9297 -0.3274  0.2045
   65SAPC   C35 5362   3.399   0.546   6.807  0.5040 -0.6054  1.0043
   65SAPC   H5X 5363   3.405   0.448   6.858  0.3648 -1.9604 -1.4292
   65SAPC   H5Y 5364   3.292   0.573   6.795  1.0378  1.3818  0.4141
   65SAPC   C36 5365   3.476   0.646   6.885 -1.0800  0.1052  0.6884
   65SAPC   H6X 5366   3.481   0.746   6.837  1.1409  0.7373  2.1052
   65SAPC   H6Y 5367   3.581   0.611   6.893 -1.2674 -0.9141 -0.7535
   65SAPC   C37 5368   3.408   0.684   7.017 -0.0616  0.4240  0.1085
   65SAPC   H7X 5369   3.416   0.588   7.072 -1.3057  0.5246  0.4875
   65SAPC   H7Y 5370   3.298   0.698   7.013 -0.3502 -1.2514  1.0705
   65SAPC   C38 5371   3.478   0.792   7.098  0.2702  0.0186  0.0318
   65SAPC   H8X 5372   3.424   0.886   7.074  1.7062  0.8827  0.1131
   65SAPC   H8Y 5373   3.581   0.802   7.058  0.5922  0.7175  1.0076
   65SAPC   C39 5374   3.466   0.788   7.250  0.6035 -0.1914  0.2903
   65SAPC   H9X 5375   3.523   0.873   7.294 -0.8724  0.9695  0.0609
   65SAPC   H9Y 5376   3.517   0.695   7.284  0.8483 -0.3645 -0.5484
   65SAPC  C310 5377   3.324   0.788   7.308 -0.7350  0.2506  0.5335
   65SAPC  H10X 5378   3.258   0.709   7.264 -0.1048  1.0470 -2.0413
   65SAPC  H10Y 5379   3.289   0.887   7.271 -0.1319 -0.0840 -1.0338
   65SAPC  C311 5380   3.316   0.790   7.458 -0.5143 -0.2375  0.0538
   65SAPC  H11X 5381   3.390   0.861   7.501 -0.8547  0.7230 -0.9033
   65SAPC  H11Y 5382   3.333   0.688   7.498 -1.2601  0.3979  2.1463
   65SAPC  C312 5383   3.181   0.843   7.511 -0.9661 -0.2270 -0.0305
   65SAPC  H12X 5384   3.090   0.808   7.458 -0.6973  0.2091 -0.8010
   65SAPC  H12Y 5385   3.191   0.952   7.490  3.1738  0.0362  2.1826
   65SAPC  C313 5386   3.174   0.825   7.659 -0.6044 -0.5893 -1.1121
   65SAPC  H13X 5387   3.251   0.893   7.704 -1.0776 -0.4147 -0.5439
   65SAPC  H13Y 5388   3.206   0.723   7.691  0.4828  0.0468 -0.0478
   65SAPC  C314 5389   3.038   0.861   7.720 -0.2309 -0.1821 -0.0559
   65SAPC  H14X 5390   2.959   0.789   7.689 -0.0471 -0.6038  0.4302
   65SAPC  H14Y 5391   3.014   0.961   7.679 -1.3597  0.1690  1.3479
   65SAPC  C315 5392   3.039   0.876   7.878 -0.2535 -0.9884  0.3028
   65SAPC  H15X 5393   3.032   0.771   7.915 -4.7496 -0.6801  0.8674
   65SAPC  H15Y 5394   2.936   0.903   7.908 -0.0880  0.4166 -0.3368
   65SAPC  C316 5395   3.138   0.970   7.925 -0.1522  0.3218  0.1955
   65SAPC  H16X 5396   3.160   1.063   7.868  0.4081 -0.8209 -1.5183
   65SAPC  H16Y 5397   3.238   0.926   7.944  0.0675  0.6764 -0.1022
   65SAPC  C317 5398   3.101   1.019   8.069 -0.1271 -0.6498 -0.1642
   65SAPC  H17X 5399   3.004   1.074   8.065 -0.3366 -1.0567 -0.8718
   65SAPC  H17Y 5400   3.182   1.091   8.097  0.7221 -1.0766 -1.4543
   65SAPC  C318 5401   3.091   0.905   8.162 -0.8674 -0.4194  0.1871
   65SAPC  H18X 5402   3.059   0.935   8.264 -0.0402  1.3934 -0.0560
   65SAPC  H18Y 5403   3.189   0.854   8.158 -0.9065 -0.4487 -1.1661
   65SAPC  H18Z 5404   3.030   0.820   8.123  1.5820 -1.5207 -1.5638
   66SAPC     N 5405   1.416   6.581   6.092  0.5906  0.1588  0.0184
   66SAPC   C12 5406   1.316   6.620   6.199  0.3447  0.1316  0.0121
   66SAPC  H12A 5407   1.236   6.687   6.170 -0.7305 -0.1993  2.0074
   66SAPC  H12B 5408   1.360   6.683   6.276 -2.4782  1.0076  1.0640
   66SAPC   C13 5409   1.540   6.520   6.150  0.0094  0.5370  0.0246
   66SAPC  H13A 5410   1.510   6.428   6.198 -1.9141  1.0462 -0.1221
   66SAPC  H13B 5411   1.609   6.495   6.070  0.6269  0.0097  0.7102
   66SAPC  H13C 5412   1.594   6.572   6.227 -0.5613 -1.9762  2.2876
   66SAPC   C14 5413   1.363   6.483   5.998  0.0929  0.2697  0.1204
   66SAPC  H14A 5414   1.441   6.455   5.928 -0.1206 -0.5275  0.1901
   66SAPC  H14B 5415   1.343   6.383   6.034  2.8913 -0.8102 -1.0245
   66SAPC  H14C 5416   1.282   6.512   5.933  0.8881 -1.3316 -1.6934
   66SAPC   C15 5417   1.452   6.706   6.019  0.2838  0.0787  0.1942
   66SAPC  H15A 5418   1.375   6.735   5.948  0.6857 -1.0656 -0.7337
   66SAPC  H15B 5419   1.474   6.790   6.083 -2.3276  2.8900 -2.2762
   66SAPC  H15C 5420   1.546   6.690   5.968  1.3483 -0.4742  2.2313
   66SAPC   C11 5421   1.245   6.492   6.267 -0.2226 -0.7282  0.4624
   66SAPC  H11A 5422   1.219   6.505   6.374  0.3656  1.2849  0.4079
   66SAPC  H11B 5423   1.313   6.404   6.272  2.0591  0.7982 -1.3618
   66SAPC     P 5424   1.045   6.335   6.205  0.2907  0.0183  0.1227
   66SAPC   O13 5425   0.902   6.370   6.220  0.3777 -0.1178 -0.0414
   66SAPC   O14 5426   1.079   6.229   6.108  0.8187 -0.3448 -0.4754
   66SAPC   O12 5427   1.133   6.462   6.183 -0.0850  0.1857  0.1590
   66SAPC   O11 5428   1.093   6.286   6.342 -0.0708  0.4735  1.0228
   66SAPC    C1 5429   1.068   6.156   6.387  1.1731  0.7474  0.0198
   66SAPC    HA 5430   0.958   6.140   6.388  1.1145  0.9684  2.0429
   66SAPC    HB 5431   1.117   6.085   6.317 -0.0365 -0.7604  0.6513
   66SAPC    C2 5432   1.113   6.125   6.530  0.6640  0.2884 -0.4424
   66SAPC    HS 5433   1.055   6.040   6.572  0.3142  1.2104  1.0205
   66SAPC   O21 5434   1.092   6.243   6.617 -0.2853 -0.0391 -0.0530
   66SAPC   C21 5435   0.968   6.290   6.621 -0.3978  0.2833 -0.2208
   66SAPC   O22 5436   0.873   6.233   6.565 -0.5698 -0.2176 -0.0266
   66SAPC   C22 5437   0.956   6.435   6.692  0.6376 -0.1028 -0.1447
   66SAPC   H2R 5438   0.847   6.451   6.706  0.5471  0.2342 -1.1242
   66SAPC   H2S 5439   1.027   6.445   6.776  0.2357 -1.9742  0.4816
   66SAPC    C3 5440   1.257   6.079   6.533 -0.2856  0.1794  0.5219
   66SAPC    HX 5441   1.300   6.152   6.462 -0.6554  2.0956  2.1794
   66SAPC    HY 5442   1.256   5.980   6.483 -0.8788  0.4033  0.0757
   66SAPC   O31 5443   1.335   6.090   6.655  0.0275 -0.3044 -0.4737
   66SAPC   C31 5444   1.457   6.047   6.640 -0.0812  0.0433  0.2323
   66SAPC   O32 5445   1.505   6.009   6.532 -0.1472  0.1108 -0.3164
   66SAPC   C32 5446   1.526   6.049   6.773 -0.5936  0.0195  0.2917
   66SAPC   H2X 5447   1.474   6.120   6.840 -2.1442 -1.5034  0.7761
   66SAPC   H2Y 5448   1.631   6.075   6.745  0.0293 -1.7630  0.7962
   66SAPC   C23 5449   0.983   6.551   6.592  0.4571 -0.1961  0.1587
   66SAPC   H3R 5450   0.908   6.537   6.512  0.5454 -0.0183  0.0451
   66SAPC   H3S 5451   1.087   6.542   6.554  0.5290 -3.9572  0.8590
   66SAPC   C24 5452   0.975   6.685   6.668  0.2142 -0.8235 -0.7510
   66SAPC   H4R 5453   1.005   6.763   6.595  1.1158 -1.1515 -0.7424
   66SAPC   H4S 5454   1.043   6.697   6.755 -0.7738 -1.0779  0.0862
   66SAPC   C25 5455   0.843   6.720   6.717  0.5593  0.0313 -0.9482
   66SAPC   H5R 5456   0.773   6.759   6.641  1.3386 -0.3732 -1.8808
   66SAPC   C26 5457   0.795   6.734   6.843  0.7682 -0.2801  0.5484
   66SAPC   H6R 5458   0.695   6.775   6.862  0.5267 -0.9853  0.8546
   66SAPC   C27 5459   0.868   6.703   6.970 -0.1792  0.2373 -0.3391
   66SAPC   H7R 5460   0.886   6.795   7.029  1.7174  1.0778 -2.0937
   66SAPC   H7S 5461   0.974   6.677   6.947 -0.5943 -0.0809 -2.1123
   66SAPC   C28 5462   0.789   6.599   7.046 -1.2139 -0.2335 -0.6467
   66SAPC   H8R 5463   0.779   6.508   6.985  2.2777 -1.2465  0.0368
   66SAPC   C29 5464   0.744   6.597   7.176  0.0025 -0.8551  0.2288
   66SAPC   H9R 5465   0.686   6.507   7.203 -1.0168 -0.4152 -0.4334
   66SAPC  C210 5466   0.772   6.704   7.273  0.0031 -0.0012 -0.3032
   66SAPC  H10R 5467   0.692   6.723   7.348 -0.3177 -0.4714 -0.5208
   66SAPC  H10S 5468   0.759   6.801   7.219 -2.9756 -0.6567 -0.9676
   66SAPC  C211 5469   0.902   6.701   7.347  0.0260  0.4127 -0.2665
   66SAPC  H11R 5470   0.979   6.631   7.313 -0.1705  1.5713 -3.4080
   66SAPC  C212 5471   0.919   6.748   7.473 -0.1584 -0.0378  0.6231
   66SAPC  H12R 5472   1.027   6.748   7.495  0.0786 -0.6382 -0.4640
   66SAPC  C213 5473   0.827   6.831   7.555 -0.0138 -0.7812 -1.0173
   66SAPC  H13R 5474   0.764   6.905   7.502 -0.1093 -0.8805 -1.0442
   66SAPC  H13S 5475   0.892   6.891   7.622 -1.9868  1.1678 -0.7488
   66SAPC  C214 5476   0.727   6.761   7.645 -0.8592 -0.1674 -0.4973
   66SAPC  H14R 5477   0.646   6.708   7.592 -0.8003 -0.8610  0.0838
   66SAPC  C215 5478   0.738   6.744   7.778  0.3105 -0.1285  0.8189
   66SAPC  H15R 5479   0.664   6.683   7.832 -0.4948  1.4875  1.5995
   66SAPC  C216 5480   0.848   6.803   7.857 -0.1357 -0.4515 -0.8539
   66SAPC  H16R 5481   0.826   6.909   7.879 -0.5284 -0.4059 -1.4645
   66SAPC  H16S 5482   0.945   6.811   7.803  0.1626  1.7732 -0.1057
   66SAPC  C217 5483   0.878   6.724   7.993  0.3181 -0.2509  0.2959
   66SAPC  H17R 5484   0.906   6.619   7.971  0.1147 -0.3876  0.6879
   66SAPC  H17S 5485   0.783   6.706   8.047  0.1597  0.2691  0.1939
   66SAPC  C218 5486   0.986   6.779   8.078 -0.5593  0.2261 -0.6027
   66SAPC  H18R 5487   0.956   6.884   8.100 -0.5419  0.2268 -0.5840
   66SAPC  H18S 5488   1.087   6.776   8.033 -0.1001 -1.0019  0.4632
   66SAPC  C219 5489   0.994   6.709   8.210  0.2069  0.9689 -0.1963
   66SAPC  H19R 5490   0.890   6.703   8.248 -0.3017  0.7873 -1.5370
   66SAPC  H19S 5491   1.065   6.763   8.276  0.7610  0.9493 -0.7667
   66SAPC  C220 5492   1.050   6.570   8.189 -0.4748  0.2987  0.4665
   66SAPC  H20R 5493   1.079   6.529   8.288  1.4933  0.2978 -0.0654
   66SAPC  H20S 5494   1.147   6.573   8.133 -0.5136  0.1317  0.3901
   66SAPC  H20T 5495   0.977   6.507   8.133 -1.5116  1.2257  0.7505
   66SAPC   C33 5496   1.521   5.906   6.832 -0.4624  0.4583  0.1110
   66SAPC   H3X 5497   1.589   5.840   6.775 -0.5267 -2.8881  3.5615
   66SAPC   H3Y 5498   1.424   5.853   6.822  1.0833 -2.4995 -0.3313
   66SAPC   C34 5499   1.570   5.902   6.975 -0.0375 -0.4455 -0.1865
   66SAPC   H4X 5500   1.584   5.798   7.012 -0.7743 -0.2764  0.6005
   66SAPC   H4Y 5501   1.503   5.947   7.052  0.5693 -0.8333  0.5945
   66SAPC   C35 5502   1.707   5.977   7.008  0.3057 -0.1910 -0.7004
   66SAPC   H5X 5503   1.674   6.083   7.008 -0.7240 -0.5024 -0.8332
   66SAPC   H5Y 5504   1.767   5.971   6.915  1.0248  0.3216 -0.2809
   66SAPC   C36 5505   1.775   5.939   7.134 -0.9431  0.8476 -0.0235
   66SAPC   H6X 5506   1.691   5.918   7.203 -0.9779 -0.9483 -0.5547
   66SAPC   H6Y 5507   1.823   6.026   7.184  1.3833 -0.5702  0.3053
   66SAPC   C37 5508   1.879   5.827   7.126 -0.4463 -0.6178  0.9897
   66SAPC   H7X 5509   1.937   5.840   7.032 -0.9620 -0.2926  0.7143
   66SAPC   H7Y 5510   1.829   5.728   7.118  0.1217 -0.8753  0.4462
   66SAPC   C38 5511   1.964   5.821   7.255  0.1800  0.0228 -0.6492
   66SAPC   H8X 5512   2.021   5.914   7.273 -1.4101  0.8094  0.6609
   66SAPC   H8Y 5513   2.037   5.739   7.246  0.9955  0.3798  1.8077
   66SAPC   C39 5514   1.871   5.789   7.376 -0.7267  0.0500  0.4693
   66SAPC   H9X 5515   1.810   5.697   7.364  0.9486 -1.0077 -0.3053
   66SAPC   H9Y 5516   1.811   5.882   7.389  0.9820  1.4262 -0.9760
   66SAPC  C310 5517   1.958   5.774   7.498  0.1311  0.2474 -0.7812
   66SAPC  H10X 5518   2.035   5.694   7.508 -0.2040 -0.0582 -0.5997
   66SAPC  H10Y 5519   1.887   5.736   7.575  1.2718 -0.6597 -0.1369
   66SAPC  C311 5520   2.022   5.909   7.542 -0.4781  0.1179  0.2172
   66SAPC  H11X 5521   1.944   5.988   7.544  1.6161  2.3104  2.1361
   66SAPC  H11Y 5522   2.102   5.929   7.468 -0.8975 -1.2406 -0.6419
   66SAPC  C312 5523   2.098   5.910   7.671 -0.3542  0.3306 -0.2022
   66SAPC  H12X 5524   2.168   5.996   7.675 -1.2730  1.1298 -0.8371
   66SAPC  H12Y 5525   2.176   5.831   7.665  0.0868  0.8173 -0.9737
   66SAPC  C313 5526   2.013   5.897   7.805  0.2065  0.5063  0.2487
   66SAPC  H13X 5527   1.973   5.794   7.810 -1.4963  1.1158 -0.0454
   66SAPC  H13Y 5528   1.935   5.975   7.790  1.8946  2.5270  1.3170
   66SAPC  C314 5529   2.089   5.941   7.928 -0.4689  0.0917 -0.5059
   66SAPC  H14X 5530   2.131   6.040   7.900 -1.6915  0.6933 -0.2538
   66SAPC  H14Y 5531   2.161   5.862   7.958  0.5396  1.9365  2.3507
   66SAPC  C315 5532   1.983   5.963   8.050  0.4135  0.0297 -0.3498
   66SAPC  H15X 5533   1.960   5.860   8.085  3.8650 -0.9682 -0.6312
   66SAPC  H15Y 5534   1.897   6.026   8.021  0.3428  0.9303  1.6717
   66SAPC  C316 5535   2.053   6.043   8.161  0.4149 -0.4760  0.6360
   66SAPC  H16X 5536   2.052   6.148   8.124  0.9939 -0.7369 -0.1508
   66SAPC  H16Y 5537   2.158   6.009   8.153  0.5152 -0.2715  1.0646
   66SAPC  C317 5538   1.978   6.016   8.292 -0.2251 -0.0331  0.1688
   66SAPC  H17X 5539   2.025   6.066   8.379 -0.9725 -1.1759  1.2586
   66SAPC  H17Y 5540   1.993   5.910   8.323 -1.4488 -0.2545  0.0497
   66SAPC  C318 5541   1.825   6.033   8.291 -0.2065  0.0409 -0.4987
   66SAPC  H18X 5542   1.766   6.002   8.202 -2.3684 -0.1806  0.9323
   66SAPC  H18Y 5543   1.786   6.135   8.312  1.7503  0.6714  0.2656
   66SAPC  H18Z 5544   1.792   5.981   8.383  0.9929 -0.7335 -0.4880
   67SAPC     N 5545   5.572   3.005   6.244  1.2981  0.1970 -0.4030
   67SAPC   C12 5546   5.591   2.858   6.260  0.7345  0.1263  0.3421
   67SAPC  H12A 5547   5.616   2.812   6.166 -0.4049 -1.7270  0.8833
   67SAPC  H12B 5548   5.492   2.821   6.283  0.7606  0.1464  0.4932
   67SAPC   C13 5549   5.699   3.086   6.233 -0.3539  0.1255  0.1446
   67SAPC  H13A 5550   5.763   3.044   6.310 -1.0149 -0.7847  0.2128
   67SAPC  H13B 5551   5.737   3.075   6.132  1.0725  1.3931  0.5019
   67SAPC  H13C 5552   5.685   3.188   6.265 -0.5113  0.7449 -1.7901
   67SAPC   C14 5553   5.479   3.038   6.126 -1.0087 -0.8644 -1.1654
   67SAPC  H14A 5554   5.514   2.996   6.033  0.4660 -1.6421 -0.2855
   67SAPC  H14B 5555   5.380   2.997   6.141 -0.1065 -2.6589  0.3958
   67SAPC  H14C 5556   5.486   3.145   6.113  1.1410 -1.0267 -1.6262
   67SAPC   C15 5557   5.506   3.060   6.360 -0.4216 -0.5452  0.1462
   67SAPC  H15A 5558   5.551   3.010   6.445  0.6938 -0.0718 -0.1357
   67SAPC  H15B 5559   5.502   3.167   6.372  4.0679 -0.2006  0.4211
   67SAPC  H15C 5560   5.404   3.030   6.376 -1.0876  1.9046  1.0250
   67SAPC   C11 5561   5.684   2.806   6.368 -0.0348 -0.4192 -0.3428
   67SAPC  H11A 5562   5.781   2.860   6.366  0.0531 -0.5850 -0.6616
   67SAPC  H11B 5563   5.717   2.701   6.359 -1.9575 -0.9434 -2.3406
   67SAPC     P 5564   5.530   2.717   6.546  0.1388 -0.2378  0.0015
   67SAPC   O13 5565   5.410   2.727   6.466  0.3521  0.1805  1.5831
   67SAPC   O14 5566   5.597   2.590   6.550 -0.2240 -0.3273  0.5383
   67SAPC   O12 5567   5.634   2.832   6.501  0.0919  0.3951 -0.0799
   67SAPC   O11 5568   5.492   2.760   6.692  0.1887  0.1754  0.1084
   67SAPC    C1 5569   5.421   2.886   6.700 -0.0767  0.5657 -0.6800
   67SAPC    HA 5570   5.491   2.972   6.690 -1.3625  1.7141 -0.1086
   67SAPC    HB 5571   5.341   2.896   6.624  0.1165  2.4075 -0.6874
   67SAPC    C2 5572   5.341   2.888   6.837  0.0760 -0.0871  0.4831
   67SAPC    HS 5573   5.280   2.981   6.832 -0.0718 -0.2622 -1.9607
   67SAPC   O21 5574   5.429   2.883   6.952  0.2428 -0.2792 -0.1668
   67SAPC   C21 5575   5.489   3.002   6.965  1.2158 -0.0301  0.1478
   67SAPC   O22 5576   5.453   3.101   6.906 -0.0921  0.6545  0.0437
   67SAPC   C22 5577   5.612   2.997   7.051 -0.0695 -0.0663 -0.2930
   67SAPC   H2R 5578   5.608   2.914   7.125 -1.7472 -0.0243 -0.3044
   67SAPC   H2S 5579   5.696   2.972   6.983 -1.2326 -1.4156 -1.3017
   67SAPC    C3 5580   5.230   2.785   6.858 -0.0881  0.2686  0.0672
   67SAPC    HX 5581   5.282   2.688   6.873 -0.9291 -0.0533  1.0241
   67SAPC    HY 5582   5.182   2.776   6.758 -0.4593  0.0330  0.2621
   67SAPC   O31 5583   5.138   2.823   6.957 -0.3579 -0.1132 -0.0746
   67SAPC   C31 5584   5.171   2.793   7.084 -0.2116  0.3613 -0.4137
   67SAPC   O32 5585   5.255   2.718   7.122  0.1775 -0.3298 -0.4832
   67SAPC   C32 5586   5.076   2.862   7.186 -0.4374  0.3898 -0.1485
   67SAPC   H2X 5587   4.974   2.821   7.171 -0.7749  0.7129  1.0871
   67SAPC   H2Y 5588   5.054   2.966   7.154 -0.3290  0.9670  1.5304
   67SAPC   C23 5589   5.653   3.119   7.142 -0.7507 -0.2819  0.6325
   67SAPC   H3R 5590   5.642   3.210   7.079 -3.3548 -0.6724  0.4208
   67SAPC   H3S 5591   5.751   3.116   7.194 -0.7090 -0.8360  0.5263
   67SAPC   C24 5592   5.542   3.135   7.248 -0.5635 -0.3889  0.3421
   67SAPC   H4R 5593   5.440   3.140   7.204 -0.5378  1.8626  0.4322
   67SAPC   H4S 5594   5.564   3.231   7.299 -0.3057  1.1226 -2.3929
   67SAPC   C25 5595   5.544   3.024   7.351 -0.1783  0.2596  0.1489
   67SAPC   H5R 5596   5.500   2.931   7.312  1.9609 -0.6821 -0.1308
   67SAPC   C26 5597   5.583   3.021   7.481 -0.0522  0.6924  0.0028
   67SAPC   H6R 5598   5.592   2.921   7.525  1.2049 -0.2047 -2.1647
   67SAPC   C27 5599   5.641   3.137   7.560  0.4321  0.0575 -0.0329
   67SAPC   H7R 5600   5.635   3.238   7.514  2.1218  0.2108  0.0498
   67SAPC   H7S 5601   5.749   3.118   7.573  1.3678  3.0805 -2.3708
   67SAPC   C28 5602   5.573   3.135   7.701 -0.4069 -0.3566  0.5347
   67SAPC   H8R 5603   5.466   3.112   7.712 -0.7058  0.5515 -0.2826
   67SAPC   C29 5604   5.635   3.168   7.815  0.2101 -0.1057  0.4116
   67SAPC   H9R 5605   5.577   3.161   7.907  0.6355 -0.5265  0.6497
   67SAPC  C210 5606   5.777   3.226   7.827  0.4986  1.0467 -0.6139
   67SAPC  H10R 5607   5.816   3.274   7.734 -0.4969 -1.6163 -2.5439
   67SAPC  H10S 5608   5.849   3.147   7.855 -1.4136 -0.2600  0.8546
   67SAPC  C211 5609   5.791   3.328   7.936  0.0836  0.7320  0.3752
   67SAPC  H11R 5610   5.726   3.416   7.919 -0.0300  0.5125 -0.3863
   67SAPC  C212 5611   5.873   3.328   8.045  0.4405  0.1819  0.3643
   67SAPC  H12R 5612   5.870   3.412   8.116  1.7012  0.0866  0.5539
   67SAPC  C213 5613   5.969   3.214   8.085  0.7835 -0.1056 -0.9616
   67SAPC  H13R 5614   6.069   3.239   8.044  0.2587  0.6850 -1.7934
   67SAPC  H13S 5615   5.950   3.116   8.036  1.3344 -1.6235  1.6850
   67SAPC  C214 5616   5.973   3.193   8.237  0.7368 -0.0902 -0.1516
   67SAPC  H14R 5617   6.072   3.211   8.283  0.8004 -1.1582  0.1722
   67SAPC  C215 5618   5.866   3.144   8.305  0.2084 -0.4051  0.3046
   67SAPC  H15R 5619   5.878   3.112   8.409 -0.6468 -0.0344  0.5221
   67SAPC  C216 5620   5.733   3.096   8.247  0.3423  0.6310 -0.1027
   67SAPC  H16R 5621   5.708   2.998   8.292 -0.5728  2.1902  3.0732
   67SAPC  H16S 5622   5.741   3.088   8.137  0.4764 -0.7278 -0.0016
   67SAPC  C217 5623   5.614   3.184   8.283  0.0059  0.0040 -0.0904
   67SAPC  H17R 5624   5.631   3.279   8.229  1.4080  0.1087  0.4908
   67SAPC  H17S 5625   5.602   3.214   8.390 -0.5388  1.2666 -0.4863
   67SAPC  C218 5626   5.486   3.126   8.220 -0.0668  0.0618 -0.4391
   67SAPC  H18R 5627   5.477   3.023   8.261  3.8692  0.3768  1.6363
   67SAPC  H18S 5628   5.497   3.139   8.110  1.2429  1.6631 -0.1352
   67SAPC  C219 5629   5.354   3.201   8.255 -0.1000  0.4818 -0.5948
   67SAPC  H19R 5630   5.355   3.300   8.206 -2.6602 -0.4327 -2.7224
   67SAPC  H19S 5631   5.360   3.225   8.364  1.0200  2.5887 -1.0742
   67SAPC  C220 5632   5.229   3.127   8.219  1.0034  0.3249 -0.4738
   67SAPC  H20R 5633   5.239   3.029   8.271  0.4691  1.5649  2.1761
   67SAPC  H20S 5634   5.208   3.109   8.112 -1.8024  0.8768 -0.1044
   67SAPC  H20T 5635   5.130   3.164   8.255 -0.1776  1.4168 -4.3695
   67SAPC   C33 5636   5.124   2.855   7.333 -0.4298 -0.1245  0.1305
   67SAPC   H3X 5637   5.218   2.914   7.339  0.8857 -1.8684 -1.8083
   67SAPC   H3Y 5638   5.155   2.752   7.361 -0.1911 -0.6775 -1.9530
   67SAPC   C34 5639   5.018   2.899   7.422  0.3377  0.3765 -0.1078
   67SAPC   H4X 5640   4.949   2.814   7.440 -0.0924  0.6403 -0.5006
   67SAPC   H4Y 5641   4.954   2.965   7.358 -0.3440 -1.8355 -1.8189
   67SAPC   C35 5642   5.051   2.960   7.551 -0.8303 -0.4131 -0.5289
   67SAPC   H5X 5643   4.967   3.010   7.603 -0.9884 -0.3986 -0.7974
   67SAPC   H5Y 5644   5.126   3.040   7.534  0.1500 -0.8023  1.6153
   67SAPC   C36 5645   5.117   2.863   7.642 -0.1384  0.4277  0.1339
   67SAPC   H6X 5646   5.198   2.806   7.591  1.0279 -0.4945  2.8639
   67SAPC   H6Y 5647   5.044   2.792   7.686  0.0721 -0.6226 -1.1364
   67SAPC   C37 5648   5.191   2.941   7.755  0.6301 -0.3381  0.1470
   67SAPC   H7X 5649   5.124   3.011   7.810 -1.1143 -3.1106  1.7595
   67SAPC   H7Y 5650   5.269   3.004   7.705  0.3518 -0.6506 -0.6978
   67SAPC   C38 5651   5.250   2.847   7.857 -0.0656 -0.3020  0.4739
   67SAPC   H8X 5652   5.344   2.895   7.890  0.8292 -0.2559 -1.9169
   67SAPC   H8Y 5653   5.285   2.752   7.809  0.3356  0.0487  0.0609
   67SAPC   C39 5654   5.154   2.821   7.982 -0.0434 -0.7202 -0.3144
   67SAPC   H9X 5655   5.051   2.816   7.942  0.0316 -2.1993 -0.3746
   67SAPC   H9Y 5656   5.164   2.904   8.055  1.4132 -0.7019 -0.4996
   67SAPC  C310 5657   5.167   2.681   8.038  0.6707  0.6085 -0.2553
   67SAPC  H10X 5658   5.273   2.654   8.057 -0.2147 -2.9498  0.2826
   67SAPC  H10Y 5659   5.153   2.608   7.956  2.8164  2.3393 -2.2897
   67SAPC  C311 5660   5.094   2.650   8.170  0.0877 -0.6323 -0.0570
   67SAPC  H11X 5661   5.133   2.721   8.246  2.7054 -0.4512 -1.4476
   67SAPC  H11Y 5662   5.124   2.546   8.195  0.7472 -0.1220  1.3888
   67SAPC  C312 5663   4.938   2.666   8.160  0.2290  0.1269  0.0347
   67SAPC  H12X 5664   4.903   2.673   8.054  0.7461  1.4019 -0.0720
   67SAPC  H12Y 5665   4.931   2.772   8.193  0.8395  0.5972 -1.2762
   67SAPC  C313 5666   4.861   2.559   8.237  0.1685  0.2558 -0.5106
   67SAPC  H13X 5667   4.874   2.460   8.188  0.6048 -0.9001  1.8172
   67SAPC  H13Y 5668   4.757   2.594   8.221  0.5840  1.8305  0.0745
   67SAPC  C314 5669   4.896   2.523   8.387 -0.5059 -0.5128  0.7345
   67SAPC  H14X 5670   4.992   2.465   8.390 -0.7293 -0.9988 -0.6792
   67SAPC  H14Y 5671   4.818   2.450   8.417  0.6588 -1.7584  0.8504
   67SAPC  C315 5672   4.891   2.646   8.486  0.3128 -0.2778 -0.1103
   67SAPC  H15X 5673   4.786   2.681   8.482  0.1397 -0.7543  0.0826
   67SAPC  H15Y 5674   4.947   2.733   8.446 -0.1220  0.0836  0.0682
   67SAPC  C316 5675   4.930   2.609   8.629 -0.2871 -0.6072 -0.2839
   67SAPC  H16X 5676   5.031   2.564   8.631  1.2646  2.6007 -0.7117
   67SAPC  H16Y 5677   4.859   2.530   8.662  2.7005 -2.6638  1.6987
   67SAPC  C317 5678   4.919   2.730   8.727  0.0503 -0.3225 -0.2554
   67SAPC  H17X 5679   4.811   2.752   8.740  0.2227 -0.1488  0.9647
   67SAPC  H17Y 5680   4.968   2.823   8.693 -2.2167  0.5459 -1.3402
   67SAPC  C318 5681   4.983   2.689   8.870 -0.5353  0.4795 -0.3645
   67SAPC  H18X 5682   4.924   2.612   8.922 -0.6444  2.3304  2.4581
   67SAPC  H18Y 5683   4.994   2.778   8.936 -0.5410 -0.1412  0.4816
   67SAPC  H18Z 5684   5.087   2.661   8.840 -0.0620  2.6537 -1.0079
   68SAPC     N 5685   1.089   2.000   6.174 -0.4787  0.2791 -0.1695
   68SAPC   C12 5686   1.091   2.127   6.261 -0.3588 -0.2912 -0.0275
   68SAPC  H12A 5687   1.189   2.173   6.257  0.1347 -1.3999 -1.9942
   68SAPC  H12B 5688   1.071   2.102   6.365 -1.0236  0.7403  0.1000
   68SAPC   C13 5689   1.133   2.038   6.036  0.1113  0.3222 -0.3346
   68SAPC  H13A 5690   1.232   2.079   6.050  0.5044 -1.2174  1.8382
   68SAPC  H13B 5691   1.140   1.952   5.972  0.7245 -0.1047  0.3002
   68SAPC  H13C 5692   1.049   2.094   5.997 -0.9095 -2.2523 -2.0715
   68SAPC   C14 5693   1.188   1.891   6.214 -0.3224  0.2969  0.2106
   68SAPC  H14A 5694   1.146   1.840   6.299  0.6566 -1.7090 -0.4336
   68SAPC  H14B 5695   1.198   1.822   6.131  0.2035 -0.7358  1.0947
   68SAPC  H14C 5696   1.284   1.932   6.240 -0.5165 -0.4976  2.3453
   68SAPC   C15 5697   0.949   1.947   6.165  0.2287  0.6742  0.0315
   68SAPC  H15A 5698   0.878   2.028   6.166 -0.4885  0.0624 -0.5510
   68SAPC  H15B 5699   0.934   1.890   6.075 -1.2032 -0.7806  1.1565
   68SAPC  H15C 5700   0.923   1.877   6.242 -0.6889  1.3490  0.3503
   68SAPC   C11 5701   1.000   2.245   6.211  0.1264 -0.4072 -0.3259
   68SAPC  H11A 5702   1.024   2.263   6.104 -1.3430  0.4703 -0.5280
   68SAPC  H11B 5703   1.032   2.338   6.264  1.7286 -0.7149 -0.7092
   68SAPC     P 5704   0.773   2.262   6.340 -0.1262 -0.0066 -0.3083
   68SAPC   O13 5705   0.741   2.409   6.335  0.1011 -0.0827 -0.1712
   68SAPC   O14 5706   0.664   2.162   6.334 -0.4027 -0.1133 -0.5338
   68SAPC   O12 5707   0.858   2.225   6.210 -0.0532  0.2984  0.1152
   68SAPC   O11 5708   0.864   2.233   6.465 -0.2572 -0.5395  0.2339
   68SAPC    C1 5709   0.893   2.115   6.544  0.4478  0.6188  0.2272
   68SAPC    HA 5710   0.889   2.027   6.476  1.0548  0.1099  0.8400
   68SAPC    HB 5711   0.998   2.121   6.579  1.8831 -1.2080 -3.2065
   68SAPC    C2 5712   0.809   2.103   6.677  0.1560  0.0919 -0.0109
   68SAPC    HS 5713   0.703   2.101   6.643 -0.1663  0.3584  0.9378
   68SAPC   O21 5714   0.838   2.201   6.770 -0.2024 -0.2752  0.2516
   68SAPC   C21 5715   0.731   2.255   6.826  0.1368 -0.0116 -0.0669
   68SAPC   O22 5716   0.614   2.233   6.786 -0.7677 -0.4479 -0.5974
   68SAPC   C22 5717   0.776   2.347   6.941  0.6468 -0.3082  1.0917
   68SAPC   H2R 5718   0.886   2.367   6.934  0.1674  2.1383 -1.9823
   68SAPC   H2S 5719   0.716   2.440   6.931 -0.1688 -0.6516  2.6333
   68SAPC    C3 5720   0.821   1.964   6.742 -0.4619 -0.3495  0.2044
   68SAPC    HX 5721   0.921   1.958   6.790 -0.6695 -0.4286  0.6349
   68SAPC    HY 5722   0.807   1.893   6.658 -1.6527  0.7075 -0.5257
   68SAPC   O31 5723   0.719   1.947   6.840 -0.1900 -0.4913 -0.2873
   68SAPC   C31 5724   0.750   1.855   6.930  0.2058  0.2481 -1.2475
   68SAPC   O32 5725   0.829   1.763   6.916 -0.1954 -0.5218 -0.1265
   68SAPC   C32 5726   0.659   1.872   7.054 -0.0768  0.1130 -0.1866
   68SAPC   H2X 5727   0.558   1.834   7.028 -1.1273  1.3613  1.7809
   68SAPC   H2Y 5728   0.647   1.981   7.074  2.6911  1.1337 -3.2464
   68SAPC   C23 5729   0.738   2.279   7.077  0.5651  0.0589 -0.1892
   68SAPC   H3R 5730   0.805   2.195   7.105  0.4096 -0.1359 -0.4032
   68SAPC   H3S 5731   0.637   2.232   7.066  1.4861 -1.9627 -0.3712
   68SAPC   C24 5732   0.744   2.376   7.202 -1.0147 -0.3510  0.2349
   68SAPC   H4R 5733   0.706   2.327   7.294  1.5034  0.1335  1.6353
   68SAPC   H4S 5734   0.684   2.466   7.176  0.1244 -0.0433 -1.5110
   68SAPC   C25 5735   0.885   2.416   7.241  0.2940 -0.0255  1.0107
   68SAPC   H5R 5736   0.944   2.446   7.153  0.9531 -2.8182  0.3776
   68SAPC   C26 5737   0.944   2.395   7.360  0.7247 -0.4732  0.2482
   68SAPC   H6R 5738   1.050   2.423   7.356  1.0468 -1.7469 -2.0204
   68SAPC   C27 5739   0.891   2.353   7.496 -0.4354  0.2889 -0.1824
   68SAPC   H7R 5740   0.782   2.366   7.507 -0.8293  0.7094 -3.6323
   68SAPC   H7S 5741   0.949   2.418   7.566  0.9529 -1.4536  0.3650
   68SAPC   C28 5742   0.925   2.209   7.519  0.6767 -0.1470 -0.9053
   68SAPC   H8R 5743   0.898   2.137   7.441  0.7586  0.3200 -1.3674
   68SAPC   C29 5744   0.978   2.162   7.630 -0.0324  0.9128  0.1874
   68SAPC   H9R 5745   1.003   2.056   7.623 -0.1263  0.7469  1.8976
   68SAPC  C210 5746   1.013   2.235   7.756  0.0291 -0.3194 -0.2115
   68SAPC  H10R 5747   1.055   2.330   7.716 -1.4667 -0.5752 -2.6078
   68SAPC  H10S 5748   1.099   2.185   7.806 -1.4754 -2.3793  0.4346
   68SAPC  C211 5749   0.917   2.267   7.859 -0.2465  0.1489 -0.3186
   68SAPC  H11R 5750   0.820   2.310   7.827 -0.5692  1.6948  2.4201
   68SAPC  C212 5751   0.915   2.243   7.995 -0.0361 -0.8666  0.0563
   68SAPC  H12R 5752   0.820   2.265   8.045 -1.8450 -1.8139 -2.7354
   68SAPC  C213 5753   1.020   2.174   8.080  0.0869  0.5331  0.0482
   68SAPC  H13R 5754   1.066   2.259   8.134 -3.7843  2.3506  0.8945
   68SAPC  H13S 5755   1.099   2.118   8.026  0.4679  2.5277 -1.5883
   68SAPC  C214 5756   0.963   2.082   8.181  0.1397  0.0412  0.5511
   68SAPC  H14R 5757   0.854   2.070   8.171  0.1290  0.6991 -0.2125
   68SAPC  C215 5758   1.026   2.008   8.270 -0.3810  0.0644 -0.3163
   68SAPC  H15R 5759   0.969   1.930   8.324  0.5685 -0.8487 -0.6011
   68SAPC  C216 5760   1.169   2.003   8.305  0.3931 -0.1644 -0.2501
   68SAPC  H16R 5761   1.168   1.989   8.415 -0.0102 -0.7381 -0.3254
   68SAPC  H16S 5762   1.213   2.104   8.289  1.5860 -0.7491 -0.7830
   68SAPC  C217 5763   1.253   1.893   8.241 -0.3251 -0.2892 -0.6355
   68SAPC  H17R 5764   1.286   1.938   8.146 -1.2309  0.7487 -0.4789
   68SAPC  H17S 5765   1.194   1.799   8.232  1.9490 -1.5515 -4.9154
   68SAPC  C218 5766   1.374   1.854   8.334 -1.0173  0.6522 -0.2172
   68SAPC  H18R 5767   1.330   1.825   8.432 -1.8651  0.4212 -0.6562
   68SAPC  H18S 5768   1.440   1.941   8.353 -1.3874  0.9717 -0.3761
   68SAPC  C219 5769   1.459   1.743   8.279  0.3577 -0.0066  0.1556
   68SAPC  H19R 5770   1.558   1.758   8.326  1.0325  0.8087 -1.4338
   68SAPC  H19S 5771   1.486   1.747   8.171 -0.2625 -1.8042 -0.1021
   68SAPC  C220 5772   1.407   1.600   8.324 -0.3502 -0.0955 -0.6246
   68SAPC  H20R 5773   1.405   1.606   8.434 -1.0712 -2.1481 -0.4868
   68SAPC  H20S 5774   1.481   1.524   8.292  0.5618 -0.3678  1.9861
   68SAPC  H20T 5775   1.307   1.584   8.278 -0.0387  0.5774 -1.5860
   68SAPC   C33 5776   0.712   1.789   7.177  0.2251  0.1756  0.0234
   68SAPC   H3X 5777   0.821   1.806   7.177 -0.0037  1.7237  0.5896
   68SAPC   H3Y 5778   0.681   1.682   7.168 -3.2463  1.0362  0.3118
   68SAPC   C34 5779   0.667   1.838   7.320 -0.0188  0.3589 -0.4390
   68SAPC   H4X 5780   0.556   1.847   7.315  0.0596  0.8286 -3.9848
   68SAPC   H4Y 5781   0.698   1.944   7.318 -0.2428  0.4378 -2.7412
   68SAPC   C35 5782   0.724   1.768   7.441 -0.0023  0.6148  0.1487
   68SAPC   H5X 5783   0.831   1.740   7.432 -0.3917 -1.3784  1.1196
   68SAPC   H5Y 5784   0.661   1.678   7.462  0.7471  0.5449  2.3894
   68SAPC   C36 5785   0.701   1.836   7.579  0.3985  0.3019 -0.5966
   68SAPC   H6X 5786   0.598   1.876   7.567  0.1785  0.0841  0.4639
   68SAPC   H6Y 5787   0.774   1.916   7.602 -0.0123  0.2921  0.8617
   68SAPC   C37 5788   0.708   1.738   7.688 -0.4047  0.4337 -0.3349
   68SAPC   H7X 5789   0.810   1.693   7.683 -0.6851 -0.4267  1.2501
   68SAPC   H7Y 5790   0.629   1.660   7.681  0.8941 -0.9397 -0.1474
   68SAPC   C38 5791   0.693   1.805   7.827 -0.1283 -0.7323  0.4999
   68SAPC   H8X 5792   0.598   1.861   7.828 -1.2764 -2.6087  0.7719
   68SAPC   H8Y 5793   0.773   1.881   7.845 -1.4502  0.9797 -0.5775
   68SAPC   C39 5794   0.701   1.699   7.948 -0.4667 -0.1190  0.7257
   68SAPC   H9X 5795   0.801   1.650   7.948  0.4919  1.7375  1.3985
   68SAPC   H9Y 5796   0.625   1.620   7.935  1.4163 -1.7980 -0.7047
   68SAPC  C310 5797   0.667   1.767   8.079  0.0968  0.7159 -0.1928
   68SAPC  H10X 5798   0.566   1.814   8.077 -0.1672  0.1457 -2.4364
   68SAPC  H10Y 5799   0.740   1.850   8.088 -0.2694  1.1160 -0.8229
   68SAPC  C311 5800   0.687   1.680   8.203  0.0919  0.1686 -0.3464
   68SAPC  H11X 5801   0.787   1.634   8.220 -0.6141 -1.0730  0.6704
   68SAPC  H11Y 5802   0.614   1.597   8.190 -1.0736  1.2113 -0.6340
   68SAPC  C312 5803   0.654   1.758   8.336 -0.1237  0.0823 -0.4104
   68SAPC  H12X 5804   0.550   1.795   8.329  0.3229  1.0526 -3.3275
   68SAPC  H12Y 5805   0.729   1.840   8.341  2.9335 -2.5495  0.6738
   68SAPC  C313 5806   0.671   1.669   8.457  0.0149  0.7680 -0.5384
   68SAPC  H13X 5807   0.781   1.657   8.465 -0.0162  0.3557 -0.7440
   68SAPC  H13Y 5808   0.616   1.577   8.429  2.5690 -0.4449 -1.9453
   68SAPC  C314 5809   0.617   1.722   8.597 -0.2792 -0.5009 -0.1266
   68SAPC  H14X 5810   0.511   1.752   8.579 -0.5990 -2.3820 -1.6986
   68SAPC  H14Y 5811   0.676   1.814   8.620 -1.5296  0.5821 -1.0595
   68SAPC  C315 5812   0.640   1.621   8.710  0.0805  0.0874  0.6523
   68SAPC  H15X 5813   0.747   1.599   8.728 -0.0644 -1.5129 -0.2058
   68SAPC  H15Y 5814   0.607   1.526   8.662  1.2718  0.2963 -0.6391
   68SAPC  C316 5815   0.567   1.644   8.844  0.2090  0.2527  0.3813
   68SAPC  H16X 5816   0.543   1.542   8.882  1.8696 -0.5921 -0.6959
   68SAPC  H16Y 5817   0.469   1.682   8.808  1.9012  1.6571 -3.2907
   68SAPC  C317 5818   0.642   1.729   8.946 -0.1527 -0.2309  0.2844
   68SAPC  H17X 5819   0.665   1.832   8.910 -1.7462  0.1391  0.2508
   68SAPC  H17Y 5820   0.745   1.689   8.952  0.2874  0.8923  0.4533
   68SAPC  C318 5821   0.576   1.740   9.078  0.1144 -0.6686 -0.9331
   68SAPC  H18X 5822   0.481   1.798   9.086  1.1286  0.8372  1.0404
   68SAPC  H18Y 5823   0.634   1.795   9.155 -0.0258  2.1098 -2.6634
   68SAPC  H18Z 5824   0.547   1.641   9.119 -0.2867  0.1583  0.8946
   69SLPC     N 5825   4.978   0.239  11.536 -0.0936  0.2533 -0.0125
   69SLPC   C13 5826   4.872   0.297  11.452 -1.0953 -0.8338 -0.6474
   69SLPC  H13A 5827   4.917   0.375  11.391  2.1335  1.6119  4.2159
   69SLPC  H13B 5828   4.818   0.232  11.384 -1.7509  0.3274 -1.2794
   69SLPC  H13C 5829   4.795   0.336  11.516  0.2245  1.3733 -0.2973
   69SLPC   C14 5830   4.910   0.145  11.632  0.1053 -0.5519  0.3407
   69SLPC  H14A 5831   4.842   0.082  11.576  0.7593  0.3374 -1.5507
   69SLPC  H14B 5832   4.984   0.090  11.689  1.9935  0.3028 -1.1886
   69SLPC  H14C 5833   4.853   0.209  11.698 -0.2507  1.3945 -1.7188
   69SLPC   C15 5834   5.057   0.343  11.609 -0.2663 -0.8469  0.1818
   69SLPC  H15A 5835   4.991   0.396  11.676 -1.2650 -2.8162  0.8198
   69SLPC  H15B 5836   5.136   0.305  11.671  0.7019  0.4168 -0.2281
   69SLPC  H15C 5837   5.109   0.409  11.541  0.3289  0.1831  1.5901
   69SLPC   C12 5838   5.070   0.158  11.446 -0.0474 -0.4616  0.7730
   69SLPC  H12A 5839   5.019   0.064  11.430 -2.4937  0.8304  0.4233
   69SLPC  H12B 5840   5.165   0.142  11.494 -0.2994  0.8354  1.7733
   69SLPC   C11 5841   5.093   0.219  11.307  0.5313  0.5819  1.1361
   69SLPC  H11A 5842   5.004   0.187  11.249  0.1178  0.3899  1.8619
   69SLPC  H11B 5843   5.174   0.157  11.263  0.0631  1.0056 -0.3945
   69SLPC     P 5844   5.080   0.454  11.194  0.2043  0.2464 -0.1264
   69SLPC   O13 5845   4.934   0.460  11.187 -0.1611 -0.5741 -0.4454
   69SLPC   O14 5846   5.153   0.581  11.212  0.2199 -0.3697  0.8441
   69SLPC   O12 5847   5.121   0.361  11.311 -0.4823 -0.1442  0.4728
   69SLPC   O11 5848   5.133   0.380  11.059 -0.5742  0.3060 -0.1130
   69SLPC    C1 5849   5.273   0.358  11.039  0.5828  0.0514 -0.3669
   69SLPC    HA 5850   5.334   0.391  11.126 -0.8586  0.0443  0.6827
   69SLPC    HB 5851   5.298   0.251  11.022  1.8264  0.7452 -3.7167
   69SLPC    C2 5852   5.312   0.435  10.906 -0.2027 -0.2782 -0.2447
   69SLPC    HS 5853   5.250   0.526  10.911 -0.7752 -0.7094  1.1857
   69SLPC   O21 5854   5.283   0.341  10.793 -0.2481 -0.4333  0.2020
   69SLPC   C21 5855   5.202   0.396  10.705  0.1924  0.3633 -0.7094
   69SLPC   O22 5856   5.130   0.489  10.731  0.0677  0.3140 -0.2392
   69SLPC   C22 5857   5.215   0.325  10.574  0.6649 -0.1587 -0.1443
   69SLPC   H2R 5858   5.306   0.262  10.581  0.2184 -0.7818  0.1931
   69SLPC   H2S 5859   5.130   0.254  10.564  2.1230 -2.0416  0.3564
   69SLPC    C3 5860   5.461   0.475  10.901 -0.0860  0.1318 -0.4708
   69SLPC    HX 5861   5.519   0.384  10.929 -1.5051 -1.2507 -1.8890
   69SLPC    HY 5862   5.489   0.540  10.986  2.0655 -1.3075  0.0146
   69SLPC   O31 5863   5.496   0.537  10.782 -1.0660 -0.2438 -0.5069
   69SLPC   C31 5864   5.567   0.467  10.688 -0.1050 -0.2017  0.5266
   69SLPC   O32 5865   5.582   0.343  10.694  0.9208 -0.7606  0.7098
   69SLPC   C32 5866   5.603   0.556  10.566  0.0400  0.5081  0.0097
   69SLPC   H2X 5867   5.697   0.608  10.592  0.0122  0.6921 -0.2563
   69SLPC   H2Y 5868   5.516   0.622  10.544 -1.0156 -1.3592 -1.8037
   69SLPC   C23 5869   5.226   0.420  10.452  0.0262 -0.0498  0.0581
   69SLPC   H3R 5870   5.328   0.465  10.452 -0.1098  0.4762  3.1128
   69SLPC   H3S 5871   5.159   0.508  10.453  1.4248  1.0709 -0.3873
   69SLPC   C24 5872   5.225   0.356  10.315 -0.1653 -0.0524 -0.4282
   69SLPC   H4R 5873   5.123   0.313  10.310 -0.7722  1.1488  0.7301
   69SLPC   H4S 5874   5.305   0.280  10.308  1.2563  1.0965  1.9210
   69SLPC   C25 5875   5.249   0.460  10.204  0.2155  0.2552  0.7858
   69SLPC   H5R 5876   5.353   0.495  10.217  0.2826  0.8294 -0.9645
   69SLPC   H5S 5877   5.166   0.534  10.212  0.3688  0.3747  1.2521
   69SLPC   C26 5878   5.253   0.403  10.055 -0.2050 -0.0077  0.1777
   69SLPC   H6R 5879   5.153   0.370  10.020 -1.6043  2.2046  1.8335
   69SLPC   H6S 5880   5.325   0.319  10.061  2.3477  2.1351  1.1896
   69SLPC   C27 5881   5.322   0.508   9.971 -0.0564  0.3613 -0.0027
   69SLPC   H7R 5882   5.408   0.547  10.031  0.6996 -0.5509 -0.4775
   69SLPC   H7S 5883   5.259   0.598   9.955  1.6943  1.8872  1.2298
   69SLPC   C28 5884   5.374   0.456   9.839  0.0874  0.4696 -0.0820
   69SLPC   H8R 5885   5.290   0.412   9.781  0.7625 -1.3217  0.2570
   69SLPC   H8S 5886   5.445   0.372   9.851  1.2604  1.6115  1.3720
   69SLPC   C29 5887   5.441   0.564   9.754  0.1681 -0.6900 -0.1344
   69SLPC   H9R 5888   5.534   0.597   9.803 -0.3932 -1.0711  1.2642
   69SLPC  C210 5889   5.401   0.621   9.637  0.2268  0.4860 -0.0650
   69SLPC  H10R 5890   5.462   0.703   9.596  2.6743 -0.2980  1.7444
   69SLPC  C211 5891   5.280   0.581   9.561 -0.3449  1.0662 -0.0672
   69SLPC  H11R 5892   5.264   0.667   9.493  1.4824  1.2958 -0.2538
   69SLPC  H11S 5893   5.190   0.573   9.625 -1.5438  0.2640 -1.7538
   69SLPC  C212 5894   5.297   0.452   9.484 -0.8217  0.2864  0.9995
   69SLPC  H12R 5895   5.257   0.364   9.537 -0.6717 -0.2067  0.3010
   69SLPC  C213 5896   5.369   0.440   9.377 -0.4912 -0.3859 -0.2604
   69SLPC  H13R 5897   5.364   0.342   9.327 -1.2754 -0.8268  0.6532
   69SLPC  C214 5898   5.438   0.550   9.308 -1.1787 -0.4710  0.2210
   69SLPC  H14R 5899   5.544   0.545   9.341 -0.5830  1.5546 -1.1914
   69SLPC  H14S 5900   5.399   0.652   9.329 -0.7167 -0.3468  0.4921
   69SLPC  C215 5901   5.436   0.535   9.153 -0.8326  0.1788 -1.2034
   69SLPC  H15R 5902   5.458   0.428   9.132  1.5683  0.3656 -0.0685
   69SLPC  H15S 5903   5.519   0.595   9.110 -1.4651  1.5391 -0.5552
   69SLPC  C216 5904   5.300   0.573   9.088  0.4048  0.5989 -0.2559
   69SLPC  H16R 5905   5.269   0.665   9.143  2.7005  2.0026 -1.1335
   69SLPC  H16S 5906   5.223   0.497   9.111  1.0983 -0.6987 -2.0748
   69SLPC  C217 5907   5.296   0.595   8.942  0.2689 -0.3346 -0.1529
   69SLPC  H17R 5908   5.359   0.528   8.879  1.5550  0.5667  0.1231
   69SLPC  H17S 5909   5.346   0.690   8.913  2.6747 -1.2582  0.6711
   69SLPC  C218 5910   5.150   0.610   8.894 -0.1746 -0.3735 -0.3062
   69SLPC  H18R 5911   5.102   0.511   8.892  0.1759 -0.5399 -0.6855
   69SLPC  H18S 5912   5.134   0.660   8.795 -1.0805 -0.1346 -0.0472
   69SLPC  H18T 5913   5.098   0.671   8.971  1.6797 -1.6322  2.0741
   69SLPC   C33 5914   5.637   0.462  10.442  0.1488 -0.0803  0.1864
   69SLPC   H3X 5915   5.555   0.390  10.421  0.8052 -0.7185 -0.2216
   69SLPC   H3Y 5916   5.731   0.412  10.472  1.1400  0.8629 -1.2585
   69SLPC   C34 5917   5.673   0.534  10.315  0.7583  0.7601 -0.1935
   69SLPC   H4X 5918   5.761   0.597  10.338 -0.6614  2.5084  0.7326
   69SLPC   H4Y 5919   5.590   0.603  10.289 -0.4633 -0.7022 -0.3788
   69SLPC   C35 5920   5.691   0.432  10.197  0.2779 -0.4003 -0.6199
   69SLPC   H5X 5921   5.592   0.398  10.157 -0.7325  0.6597  0.8941
   69SLPC   H5Y 5922   5.757   0.350  10.231  0.4287  0.1805  0.5088
   69SLPC   C36 5923   5.747   0.481  10.063  0.3351 -0.6475 -0.1339
   69SLPC   H6X 5924   5.828   0.554  10.085  1.3493 -1.8900  0.4063
   69SLPC   H6Y 5925   5.671   0.534  10.001  2.5547  0.5996 -1.9279
   69SLPC   C37 5926   5.803   0.372   9.983 -0.9581 -0.3951 -0.0056
   69SLPC   H7X 5927   5.738   0.282   9.985 -1.1614 -0.2458  1.7015
   69SLPC   H7Y 5928   5.902   0.342  10.023  0.1334  1.2356 -1.3416
   69SLPC   C38 5929   5.828   0.401   9.834  0.6470 -0.1692  0.6089
   69SLPC   H8X 5930   5.850   0.509   9.825 -2.1147  0.3819 -0.6770
   69SLPC   H8Y 5931   5.738   0.393   9.769  0.1059 -2.6154  1.5357
   69SLPC   C39 5932   5.945   0.311   9.777  0.4531 -0.4323  0.2254
   69SLPC   H9X 5933   5.934   0.203   9.800  2.9300 -0.4227  1.8408
   69SLPC   H9Y 5934   6.034   0.337   9.838 -0.0656  1.7174  0.1742
   69SLPC  C310 5935   5.973   0.325   9.628 -0.3922  0.3297 -0.7953
   69SLPC  H10X 5936   6.057   0.257   9.602 -0.1512  1.1626 -2.3278
   69SLPC  H10Y 5937   6.009   0.429   9.613  1.3272 -0.2458 -0.8827
   69SLPC  C311 5938   5.855   0.303   9.538  0.1461  0.3100 -0.0360
   69SLPC  H11X 5939   5.783   0.389   9.539  0.1028  0.3672 -2.5728
   69SLPC  H11Y 5940   5.801   0.216   9.581 -0.2285  0.1289 -0.8549
   69SLPC  C312 5941   5.880   0.259   9.393  0.0750 -0.6258  0.1410
   69SLPC  H12X 5942   5.930   0.161   9.386 -0.5076 -1.0701  1.6344
   69SLPC  H12Y 5943   5.947   0.326   9.336 -2.1932  1.0074 -0.7605
   69SLPC  C313 5944   5.750   0.248   9.310 -0.0101  0.2772 -0.0789
   69SLPC  H13X 5945   5.705   0.350   9.318 -2.1251 -0.5373 -0.7659
   69SLPC  H13Y 5946   5.683   0.188   9.376  2.2472  0.2807  2.4023
   69SLPC  C314 5947   5.770   0.202   9.173 -0.4509 -0.0595 -0.0932
   69SLPC  H14X 5948   5.834   0.111   9.175 -0.5109 -0.0933  0.6336
   69SLPC  H14Y 5949   5.834   0.277   9.121  1.5270 -1.4531  0.1980
   69SLPC  C315 5950   5.639   0.179   9.098  0.0386  0.0874 -0.3069
   69SLPC  H15X 5951   5.555   0.231   9.148 -0.9062 -0.8871 -0.8429
   69SLPC  H15Y 5952   5.618   0.071   9.107 -1.0557  0.3007 -0.1207
   69SLPC  C316 5953   5.634   0.223   8.952  0.1498  0.6350  0.1501
   69SLPC  H16X 5954   5.737   0.201   8.917  0.5733 -0.8041  2.1393
   69SLPC  H16Y 5955   5.607   0.331   8.954  0.6499  0.7920 -0.7077
   69SLPC  C317 5956   5.522   0.155   8.871  0.6521 -0.2087 -0.0226
   69SLPC  H17X 5957   5.518   0.045   8.890  0.8678  0.0135  1.4484
   69SLPC  H17Y 5958   5.554   0.174   8.767 -0.9785  0.2549 -0.4644
   69SLPC  C318 5959   5.383   0.210   8.900 -0.0416  0.6829  0.5818
   69SLPC  H18X 5960   5.303   0.155   8.847  0.7284 -0.1087  0.2071
   69SLPC  H18Y 5961   5.370   0.316   8.872 -0.9568  0.5016  0.2918
   69SLPC  H18Z 5962   5.355   0.194   9.006  1.9269 -0.1472  1.0362
   70SLPC     N 5963   5.566   5.386  11.475 -0.1853  0.1260  0.3331
   70SLPC   C13 5964   5.635   5.319  11.585  0.0955 -0.6199  0.4022
   70SLPC  H13A 5965   5.632   5.213  11.562  1.5697 -1.2458  2.7223
   70SLPC  H13B 5966   5.737   5.349  11.599  1.1553 -3.0030 -1.4808
   70SLPC  H13C 5967   5.598   5.345  11.683  0.9317 -0.7089  0.7514
   70SLPC   C14 5968   5.537   5.528  11.508  0.2175  0.1999  0.4314
   70SLPC  H14A 5969   5.463   5.563  11.439  0.5605 -0.6963 -0.4140
   70SLPC  H14B 5970   5.509   5.538  11.612  2.4689  0.2605  1.0946
   70SLPC  H14C 5971   5.625   5.587  11.488 -0.9489  1.5762 -0.8387
   70SLPC   C15 5972   5.442   5.308  11.454 -0.1431 -0.0678  0.0840
   70SLPC  H15A 5973   5.458   5.202  11.448 -0.2190 -0.2741  2.5378
   70SLPC  H15B 5974   5.369   5.318  11.533 -0.9859 -0.8758 -0.5662
   70SLPC  H15C 5975   5.396   5.322  11.357 -1.4348 -2.3859  0.2925
   70SLPC   C12 5976   5.652   5.382  11.348 -0.1060 -0.1594  0.3863
   70SLPC  H12A 5977   5.719   5.298  11.349  0.3293  0.0816 -2.1679
   70SLPC  H12B 5978   5.720   5.464  11.366 -1.8722  0.7776  3.6713
   70SLPC   C11 5979   5.580   5.395  11.215 -0.5617 -0.0148  0.2872
   70SLPC  H11A 5980   5.519   5.304  11.197  0.2690 -0.2778 -1.4904
   70SLPC  H11B 5981   5.648   5.382  11.128 -3.0821  1.0962 -1.9915
   70SLPC     P 5982   5.560   5.648  11.149  0.0399 -0.4776  0.3872
   70SLPC   O13 5983   5.481   5.759  11.208  1.0190 -0.4299 -0.0406
   70SLPC   O14 5984   5.708   5.651  11.164 -0.4565 -0.2221  0.1802
   70SLPC   O12 5985   5.498   5.515  11.203  0.1774 -0.1545  0.0286
   70SLPC   O11 5986   5.539   5.634  10.991 -0.0900 -0.1661  0.2924
   70SLPC    C1 5987   5.416   5.581  10.936 -0.0770 -0.1522  0.6417
   70SLPC    HA 5988   5.385   5.495  10.999 -1.0987  0.6616  1.3000
   70SLPC    HB 5989   5.340   5.661  10.949  0.8264  0.5520  1.7807
   70SLPC    C2 5990   5.427   5.558  10.787 -0.2966  0.1873 -0.6050
   70SLPC    HS 5991   5.522   5.504  10.767 -0.3363 -0.4627  0.8295
   70SLPC   O21 5992   5.413   5.686  10.725 -0.2420  0.2828  0.2847
   70SLPC   C21 5993   5.508   5.717  10.638 -0.3117 -0.2915 -0.1441
   70SLPC   O22 5994   5.607   5.653  10.610  0.8167  0.0551 -0.7144
   70SLPC   C22 5995   5.467   5.853  10.572  0.5701 -0.1454  0.1480
   70SLPC   H2R 5996   5.365   5.879  10.608  0.3017 -0.0756 -0.6337
   70SLPC   H2S 5997   5.539   5.925  10.615 -0.1381  1.2536 -0.9287
   70SLPC    C3 5998   5.316   5.463  10.737  0.3455 -0.6478  0.4398
   70SLPC    HX 5999   5.224   5.515  10.772  0.4038  0.1645 -0.5553
   70SLPC    HY 6000   5.323   5.363  10.783 -1.8863 -1.4822 -0.8637
   70SLPC   O31 6001   5.318   5.459  10.595 -0.0842  0.1709 -0.1647
   70SLPC   C31 6002   5.411   5.384  10.538 -0.2281 -0.3705  0.1476
   70SLPC   O32 6003   5.492   5.307  10.586  0.4190 -0.3237  0.1879
   70SLPC   C32 6004   5.393   5.404  10.388  0.0477 -0.4082 -0.5624
   70SLPC   H2X 6005   5.343   5.498  10.357 -0.4893  0.1212  1.7351
   70SLPC   H2Y 6006   5.350   5.307  10.352  2.1788 -2.3073  1.6625
   70SLPC   C23 6007   5.457   5.862  10.424  0.5558  0.6111  0.5336
   70SLPC   H3R 6008   5.424   5.966  10.402 -0.9408  0.9765  3.8910
   70SLPC   H3S 6009   5.373   5.803  10.381  0.6420  0.7169  0.2200
   70SLPC   C24 6010   5.582   5.838  10.347 -0.2751  0.8147  0.3585
   70SLPC   H4R 6011   5.621   5.734  10.352 -0.0490  0.8350 -0.8479
   70SLPC   H4S 6012   5.659   5.901  10.397 -1.4041  0.6717  2.4245
   70SLPC   C25 6013   5.568   5.877  10.201 -0.4091  0.8760  0.8164
   70SLPC   H5R 6014   5.544   5.986  10.197 -0.8979  0.7654  0.5958
   70SLPC   H5S 6015   5.481   5.825  10.154  0.4171  0.2687 -0.0839
   70SLPC   C26 6016   5.691   5.845  10.115  0.0463  0.0085  0.4520
   70SLPC   H6R 6017   5.718   5.737  10.115 -0.4162 -0.1696 -2.2003
   70SLPC   H6S 6018   5.774   5.905  10.159  0.3011  0.3638 -0.4869
   70SLPC   C27 6019   5.676   5.884   9.967 -0.4347  0.1808 -0.1038
   70SLPC   H7R 6020   5.776   5.889   9.921 -0.2504 -2.4407 -0.1150
   70SLPC   H7S 6021   5.638   5.988   9.960 -2.1763 -0.4368 -0.5209
   70SLPC   C28 6022   5.584   5.786   9.892  0.1301 -0.0000 -0.2557
   70SLPC   H8R 6023   5.545   5.851   9.810 -0.3844  1.9759  1.4807
   70SLPC   H8S 6024   5.497   5.765   9.957 -0.2725  0.2469 -0.7057
   70SLPC   C29 6025   5.653   5.655   9.849 -0.4420 -0.2546 -0.1975
   70SLPC   H9R 6026   5.703   5.604   9.932  0.3125  0.3227 -0.2869
   70SLPC  C210 6027   5.653   5.603   9.723  0.7104 -0.3850 -0.4826
   70SLPC  H10R 6028   5.712   5.515   9.693 -1.3938 -1.1357 -2.7949
   70SLPC  C211 6029   5.573   5.669   9.603  0.7975  0.3818  0.1690
   70SLPC  H11R 6030   5.522   5.762   9.636 -2.1160 -1.1436  0.2536
   70SLPC  H11S 6031   5.497   5.605   9.554 -0.4078  1.4281  0.6112
   70SLPC  C212 6032   5.681   5.696   9.497  0.0765  0.1272  0.6593
   70SLPC  H12R 6033   5.744   5.784   9.515 -2.4498  2.0587  0.5551
   70SLPC  C213 6034   5.696   5.632   9.379 -0.4676  0.0936  1.0150
   70SLPC  H13R 6035   5.771   5.671   9.308 -1.4678 -0.3090 -0.2960
   70SLPC  C214 6036   5.621   5.519   9.312  0.0147 -0.0336  0.3841
   70SLPC  H14R 6037   5.537   5.571   9.263  1.5822 -0.2550 -2.7596
   70SLPC  H14S 6038   5.596   5.446   9.392  1.7482 -0.3995  0.6409
   70SLPC  C215 6039   5.709   5.442   9.205  0.2398  0.1027 -0.8938
   70SLPC  H15R 6040   5.778   5.377   9.263 -3.1699 -1.0646  2.2908
   70SLPC  H15S 6041   5.766   5.523   9.155  0.6928 -0.5818 -1.5218
   70SLPC  C216 6042   5.621   5.365   9.102  0.4658  0.4862 -0.1030
   70SLPC  H16R 6043   5.529   5.418   9.069 -0.5229 -1.2375 -0.2594
   70SLPC  H16S 6044   5.579   5.280   9.159  0.5290  0.5829  0.0895
   70SLPC  C217 6045   5.703   5.303   8.992  0.0727  0.7248 -0.5744
   70SLPC  H17R 6046   5.786   5.248   9.040  0.1622  2.1749  1.0408
   70SLPC  H17S 6047   5.732   5.369   8.908  0.4531  0.4943 -0.6270
   70SLPC  C218 6048   5.612   5.184   8.934  0.0337  0.3366  0.4198
   70SLPC  H18R 6049   5.506   5.213   8.919 -0.1158 -1.3717 -2.4497
   70SLPC  H18S 6050   5.619   5.094   8.999 -1.9252  0.2772  0.6115
   70SLPC  H18T 6051   5.635   5.152   8.830  1.3061  0.4505  0.6559
   70SLPC   C33 6052   5.531   5.421  10.317  0.1628 -0.2454  0.8226
   70SLPC   H3X 6053   5.586   5.324  10.314 -0.7053 -0.8276 -3.6423
   70SLPC   H3Y 6054   5.587   5.507  10.360  1.4407  0.1200 -1.3938
   70SLPC   C34 6055   5.517   5.469  10.169 -0.4165  0.1366 -0.3347
   70SLPC   H4X 6056   5.616   5.463  10.119  0.2453 -1.7357  1.0705
   70SLPC   H4Y 6057   5.463   5.564  10.150  0.5936  0.5636 -1.1286
   70SLPC   C35 6058   5.442   5.359  10.090  0.5891  0.2082  0.5423
   70SLPC   H5X 6059   5.335   5.385  10.106  0.6641 -0.6608  2.6847
   70SLPC   H5Y 6060   5.467   5.255  10.121  1.3814  0.0994 -0.3994
   70SLPC   C36 6061   5.470   5.365   9.942 -0.1643  0.4025 -0.1737
   70SLPC   H6X 6062   5.575   5.352   9.909  0.6964  4.0692  0.6892
   70SLPC   H6Y 6063   5.445   5.467   9.905 -1.3716  0.2358  0.1088
   70SLPC   C37 6064   5.378   5.274   9.866 -0.3340 -0.5047  0.1210
   70SLPC   H7X 6065   5.272   5.282   9.899 -0.6103  0.3297 -0.9132
   70SLPC   H7Y 6066   5.403   5.168   9.886 -2.3276 -1.1513 -0.4854
   70SLPC   C38 6067   5.400   5.295   9.714  0.8419 -0.2594  0.3847
   70SLPC   H8X 6068   5.498   5.247   9.691 -0.4708 -1.9623 -2.1452
   70SLPC   H8Y 6069   5.397   5.402   9.685  2.6025 -0.3967 -0.4855
   70SLPC   C39 6070   5.311   5.211   9.630 -0.6414  0.4217  0.0039
   70SLPC   H9X 6071   5.213   5.263   9.636 -0.9809 -0.0986 -0.8302
   70SLPC   H9Y 6072   5.293   5.108   9.666  0.6162 -0.4948 -1.8104
   70SLPC  C310 6073   5.360   5.206   9.488 -0.2704 -0.4879  0.1163
   70SLPC  H10X 6074   5.456   5.153   9.479  1.6188  2.0233  3.1936
   70SLPC  H10Y 6075   5.368   5.314   9.460 -2.3737 -0.0360  1.0290
   70SLPC  C311 6076   5.250   5.143   9.398 -0.2311  0.6687  1.0849
   70SLPC  H11X 6077   5.164   5.214   9.391  0.7579  1.7314 -2.7330
   70SLPC  H11Y 6078   5.220   5.046   9.442 -0.5941  0.8028  1.1378
   70SLPC  C312 6079   5.284   5.117   9.250 -0.7664 -0.0619  0.1048
   70SLPC  H12X 6080   5.360   5.036   9.249  0.0689  0.5871  2.7727
   70SLPC  H12Y 6081   5.331   5.213   9.218 -0.6110  0.3070  1.3762
   70SLPC  C313 6082   5.164   5.102   9.155  0.0878  0.2998  0.5450
   70SLPC  H13X 6083   5.083   5.170   9.187 -1.8181 -2.2861  1.5814
   70SLPC  H13Y 6084   5.131   4.996   9.166 -1.0231  0.6367  0.5437
   70SLPC  C314 6085   5.203   5.140   9.017 -0.4293  0.5316 -0.2663
   70SLPC  H14X 6086   5.295   5.089   8.982 -1.0073  0.4057 -1.6462
   70SLPC  H14Y 6087   5.210   5.251   9.008 -2.3279  0.7146  0.0704
   70SLPC  C315 6088   5.110   5.077   8.916  0.4199  0.2694  0.7557
   70SLPC  H15X 6089   5.081   4.979   8.960 -0.3793  0.2429  0.2016
   70SLPC  H15Y 6090   5.155   5.057   8.816  0.9239 -2.1742  1.3874
   70SLPC  C316 6091   4.989   5.168   8.882  0.0247  0.1320 -0.7437
   70SLPC  H16X 6092   5.030   5.257   8.828  0.2584  0.8979  0.6498
   70SLPC  H16Y 6093   4.932   5.197   8.973 -0.9551  0.5767 -1.4833
   70SLPC  C317 6094   4.901   5.100   8.785 -0.0235 -0.6591  0.4191
   70SLPC  H17X 6095   4.846   5.015   8.829  1.9152 -1.5155  1.3202
   70SLPC  H17Y 6096   4.961   5.057   8.701  0.1737  1.6032 -0.6761
   70SLPC  C318 6097   4.790   5.193   8.729  0.5655 -0.8056  0.4145
   70SLPC  H18X 6098   4.834   5.275   8.669 -2.3842 -0.1655 -1.0671
   70SLPC  H18Y 6099   4.714   5.230   8.801 -0.9623 -1.3519 -0.8489
   70SLPC  H18Z 6100   4.726   5.141   8.654 -1.1116  0.4763  0.8860
   71SLPC     N 6101   3.363   2.881  10.996  0.0848  0.0741 -0.1799
   71SLPC   C13 6102   3.381   2.846  10.851 -0.2033  0.1638  0.6260
   71SLPC  H13A 6103   3.286   2.816  10.811 -0.0674  1.1171 -0.4808
   71SLPC  H13B 6104   3.415   2.929  10.790  1.2963  0.8557  2.3035
   71SLPC  H13C 6105   3.444   2.759  10.837 -0.5744 -0.2083  1.2584
   71SLPC   C14 6106   3.496   2.906  11.063 -0.6168 -0.0235 -0.3697
   71SLPC  H14A 6107   3.562   2.969  11.005 -0.6862  0.7636  0.4048
   71SLPC  H14B 6108   3.475   2.962  11.153  0.6908 -0.2239  0.0873
   71SLPC  H14C 6109   3.550   2.816  11.089  1.1730  0.9246 -0.6728
   71SLPC   C15 6110   3.290   2.768  11.062 -0.1981 -0.1180  0.1250
   71SLPC  H15A 6111   3.190   2.742  11.030 -0.2004 -0.5412  0.4764
   71SLPC  H15B 6112   3.348   2.678  11.055  0.0692 -0.0341  1.1731
   71SLPC  H15C 6113   3.290   2.795  11.167  1.0138  1.0687 -0.1442
   71SLPC   C12 6114   3.285   3.013  11.012  0.0949 -0.0538 -0.2072
   71SLPC  H12A 6115   3.273   3.026  11.119 -3.2080 -0.5379 -0.4028
   71SLPC  H12B 6116   3.185   2.996  10.975 -0.9632  1.3008  1.8357
   71SLPC   C11 6117   3.334   3.144  10.943 -0.7103 -1.0738 -0.1513
   71SLPC  H11A 6118   3.441   3.154  10.969 -0.8477  1.4415 -0.3027
   71SLPC  H11B 6119   3.285   3.229  10.994  1.6035  1.3202 -1.6876
   71SLPC     P 6120   3.161   3.173  10.740 -0.0567 -0.3255 -0.1151
   71SLPC   O13 6121   3.065   3.091  10.820  0.1694 -0.7885  0.2356
   71SLPC   O14 6122   3.136   3.319  10.729  0.5728 -0.1015 -0.1531
   71SLPC   O12 6123   3.309   3.152  10.796  0.1539  0.2706 -0.9214
   71SLPC   O11 6124   3.166   3.106  10.599 -0.4042  0.0273  0.1474
   71SLPC    C1 6125   3.291   3.064  10.541  0.6404 -1.0223 -0.3906
   71SLPC    HA 6126   3.364   3.024  10.614 -0.9491 -1.5866  0.9370
   71SLPC    HB 6127   3.265   2.991  10.461 -0.9984  0.6644 -1.4972
   71SLPC    C2 6128   3.354   3.189  10.457 -0.5281  0.6116  0.0168
   71SLPC    HS 6129   3.434   3.242  10.513  0.9675  2.3880 -3.4892
   71SLPC   O21 6130   3.248   3.280  10.415  0.0020  0.0422  0.0023
   71SLPC   C21 6131   3.273   3.408  10.449 -0.3641  0.1562 -0.3788
   71SLPC   O22 6132   3.365   3.450  10.512  0.0035  0.4701 -0.7766
   71SLPC   C22 6133   3.178   3.493  10.366  0.0339 -0.3289 -0.0128
   71SLPC   H2R 6134   3.168   3.461  10.260 -0.1903 -0.1822 -0.0367
   71SLPC   H2S 6135   3.083   3.465  10.417  0.9034 -0.3071  1.6694
   71SLPC    C3 6136   3.429   3.133  10.330 -0.0707 -0.7365 -0.0418
   71SLPC    HX 6137   3.349   3.082  10.273 -0.9722 -0.0638  0.5945
   71SLPC    HY 6138   3.506   3.062  10.368 -1.0661 -1.0580  1.4884
   71SLPC   O31 6139   3.476   3.240  10.242 -0.1489 -0.0399  0.0849
   71SLPC   C31 6140   3.582   3.299  10.293  0.3135 -0.5224 -0.0793
   71SLPC   O32 6141   3.660   3.250  10.370 -0.8106 -0.4371 -0.0781
   71SLPC   C32 6142   3.608   3.436  10.220  1.2689 -0.1655 -0.9979
   71SLPC   H2X 6143   3.570   3.518  10.285 -0.0088  0.3514 -2.3277
   71SLPC   H2Y 6144   3.541   3.444  10.131  0.6895  0.6709 -0.4994
   71SLPC   C23 6145   3.204   3.644  10.374  0.1608 -0.0596  0.0117
   71SLPC   H3R 6146   3.214   3.687  10.476 -1.0866  1.3067 -0.4127
   71SLPC   H3S 6147   3.117   3.693  10.326 -0.2514 -0.9353 -0.1621
   71SLPC   C24 6148   3.323   3.696  10.291  0.7704  0.1235 -0.1467
   71SLPC   H4R 6149   3.404   3.672  10.363 -2.0178  2.1208  4.0968
   71SLPC   H4S 6150   3.319   3.807  10.296  0.1430  0.0507  2.7256
   71SLPC   C25 6151   3.319   3.634  10.158 -0.2354 -0.0467  0.3755
   71SLPC   H5R 6152   3.216   3.631  10.116  0.3556 -1.0381 -1.0985
   71SLPC   H5S 6153   3.340   3.525  10.159  0.6743  0.0201 -2.3680
   71SLPC   C26 6154   3.416   3.684  10.050 -0.5103 -0.0824  0.7107
   71SLPC   H6R 6155   3.522   3.681  10.084 -0.5774 -0.7535  0.8719
   71SLPC   H6S 6156   3.390   3.792  10.040  1.9051  0.6048  1.1704
   71SLPC   C27 6157   3.407   3.605   9.923  0.5378 -0.4856 -0.2795
   71SLPC   H7R 6158   3.300   3.600   9.892 -0.0513  4.2770  0.1943
   71SLPC   H7S 6159   3.440   3.500   9.933 -0.4609 -0.7111  0.8066
   71SLPC   C28 6160   3.480   3.682   9.814  0.4971 -0.1827  0.0257
   71SLPC   H8R 6161   3.589   3.670   9.830  0.8239  2.0608 -0.1874
   71SLPC   H8S 6162   3.464   3.792   9.816  0.5493 -0.1171 -1.6541
   71SLPC   C29 6163   3.436   3.616   9.684 -0.1656 -0.4265  0.3869
   71SLPC   H9R 6164   3.490   3.528   9.645  2.1191  1.3554 -0.7229
   71SLPC  C210 6165   3.332   3.668   9.614 -0.5982 -0.5022  0.4277
   71SLPC  H10R 6166   3.324   3.627   9.512 -0.0929 -0.0884  0.2121
   71SLPC  C211 6167   3.252   3.782   9.656  0.3451 -0.4161  0.3383
   71SLPC  H11R 6168   3.303   3.864   9.602  0.8042 -0.9693 -0.0778
   71SLPC  H11S 6169   3.269   3.816   9.761  0.1184  0.3467  0.1297
   71SLPC  C212 6170   3.106   3.766   9.619 -0.3773  0.1770 -0.3983
   71SLPC  H12R 6171   3.079   3.744   9.515 -0.7405  1.8053 -0.6705
   71SLPC  C213 6172   3.012   3.754   9.716  0.8674 -0.8567 -0.7060
   71SLPC  H13R 6173   2.913   3.730   9.675  0.1552  0.1765  0.3122
   71SLPC  C214 6174   3.018   3.770   9.865  0.1601  0.0154  0.5111
   71SLPC  H14R 6175   3.007   3.877   9.892 -0.4874  0.0560  0.1061
   71SLPC  H14S 6176   3.115   3.732   9.905 -0.0100  0.0121  0.9243
   71SLPC  C215 6177   2.905   3.685   9.933  0.2433 -0.9921  0.1038
   71SLPC  H15R 6178   2.919   3.578   9.907 -0.2298 -1.3473  1.2343
   71SLPC  H15S 6179   2.805   3.724   9.903  0.2711  0.6796  1.9766
   71SLPC  C216 6180   2.911   3.691  10.085  0.5133 -0.1531 -0.3762
   71SLPC  H16R 6181   2.916   3.797  10.117  0.8548  0.0828 -1.2011
   71SLPC  H16S 6182   3.006   3.648  10.124 -0.0770  0.2188  1.5767
   71SLPC  C217 6183   2.786   3.629  10.152  0.0983 -0.0438  0.0919
   71SLPC  H17R 6184   2.804   3.521  10.136 -0.5874 -0.2416  0.6039
   71SLPC  H17S 6185   2.699   3.671  10.098 -0.3319 -0.4664  0.4462
   71SLPC  C218 6186   2.778   3.651  10.305  0.1243 -0.4099  0.5568
   71SLPC  H18R 6187   2.772   3.760  10.327  1.0249 -0.1620 -0.3640
   71SLPC  H18S 6188   2.859   3.593  10.354 -0.3861 -2.3734 -0.7762
   71SLPC  H18T 6189   2.685   3.607  10.348 -0.1213  1.4165  2.0416
   71SLPC   C33 6190   3.752   3.473  10.195  1.0262 -0.5631 -0.3704
   71SLPC   H3X 6191   3.797   3.483  10.296  0.8378 -0.8178 -0.2607
   71SLPC   H3Y 6192   3.771   3.570  10.144 -0.3137  0.1099  0.3574
   71SLPC   C34 6193   3.840   3.372  10.110 -0.0203  0.5897  0.0466
   71SLPC   H4X 6194   3.802   3.360  10.006 -0.8397  0.5336  0.3505
   71SLPC   H4Y 6195   3.827   3.274  10.161  0.8130  0.3383 -0.2065
   71SLPC   C35 6196   3.988   3.406  10.104  0.0306  0.2543  0.0399
   71SLPC   H5X 6197   4.015   3.438  10.207 -0.6638  0.9045  0.0319
   71SLPC   H5Y 6198   4.013   3.494  10.041 -1.7473  1.5788  1.0798
   71SLPC   C36 6199   4.077   3.285  10.062 -0.0161 -0.0856 -0.3575
   71SLPC   H6X 6200   4.047   3.195  10.121  0.9621 -1.2597 -1.5707
   71SLPC   H6Y 6201   4.182   3.313  10.088 -0.3049  0.5100  0.1840
   71SLPC   C37 6202   4.067   3.250   9.913  0.0849  0.5026  0.2991
   71SLPC   H7X 6203   4.120   3.332   9.859 -1.5951  0.9660 -0.7214
   71SLPC   H7Y 6204   3.965   3.235   9.870  0.3293 -2.5442  0.5621
   71SLPC   C38 6205   4.126   3.113   9.889 -0.5827 -0.2346  0.2363
   71SLPC   H8X 6206   4.077   3.033   9.949 -0.0068  0.5279  1.7789
   71SLPC   H8Y 6207   4.233   3.115   9.918 -0.7570 -0.7922  0.9542
   71SLPC   C39 6208   4.134   3.052   9.743  0.5828  0.6326  0.1787
   71SLPC   H9X 6209   4.032   3.048   9.700 -0.5758  1.5985  2.6872
   71SLPC   H9Y 6210   4.172   2.948   9.749  0.3233  0.4805 -0.7194
   71SLPC  C310 6211   4.225   3.126   9.643 -0.2436 -0.0519 -0.1305
   71SLPC  H10X 6212   4.329   3.100   9.670  0.9692  0.6416 -3.5966
   71SLPC  H10Y 6213   4.215   3.236   9.651  1.5061  0.0178  2.1022
   71SLPC  C311 6214   4.208   3.079   9.498  0.3811  0.3763 -0.0904
   71SLPC  H11X 6215   4.103   3.088   9.464  0.0930 -0.6702  0.4985
   71SLPC  H11Y 6216   4.220   2.969   9.497  1.5621  0.3118  3.6340
   71SLPC  C312 6217   4.302   3.146   9.403 -0.0542 -0.2646 -0.2117
   71SLPC  H12X 6218   4.410   3.123   9.414  0.1846 -0.3646 -2.3049
   71SLPC  H12Y 6219   4.296   3.256   9.420 -3.4756 -0.0005 -2.1506
   71SLPC  C313 6220   4.257   3.135   9.256  0.5150 -0.3331  0.0108
   71SLPC  H13X 6221   4.177   3.209   9.241 -1.2102 -1.7859  1.5089
   71SLPC  H13Y 6222   4.217   3.032   9.246 -0.7568  0.0692  0.7426
   71SLPC  C314 6223   4.379   3.155   9.157 -0.0503  0.1981 -0.2237
   71SLPC  H14X 6224   4.433   3.248   9.182  1.4398  0.1370 -2.8342
   71SLPC  H14Y 6225   4.338   3.181   9.057 -1.0787  0.4220  0.2447
   71SLPC  C315 6226   4.480   3.035   9.149  0.5146  0.3341 -0.0255
   71SLPC  H15X 6227   4.414   2.946   9.147  0.1053  0.6463 -1.3963
   71SLPC  H15Y 6228   4.540   3.028   9.242 -1.5872  1.9018  1.5509
   71SLPC  C316 6229   4.563   3.031   9.017 -0.2708 -0.3385 -0.2609
   71SLPC  H16X 6230   4.633   2.946   9.032 -1.8077 -1.1900  2.7531
   71SLPC  H16Y 6231   4.621   3.125   9.002  0.7526 -0.8578  0.3054
   71SLPC  C317 6232   4.489   3.008   8.888  0.1240 -0.4003 -0.0666
   71SLPC  H17X 6233   4.422   3.095   8.872  1.3846  0.4914 -0.7130
   71SLPC  H17Y 6234   4.430   2.915   8.892  0.4440 -0.9387 -3.9934
   71SLPC  C318 6235   4.574   2.989   8.768 -0.0353  0.1486  0.3972
   71SLPC  H18X 6236   4.520   2.984   8.671  1.7774 -1.0832 -0.6201
   71SLPC  H18Y 6237   4.636   2.898   8.787 -2.8523 -2.1193 -0.5606
   71SLPC  H18Z 6238   4.647   3.073   8.764 -1.1100  1.0926 -2.7552
   72SLPC     N 6239   4.089   2.548  11.103  0.0200 -0.6209  0.0574
   72SLPC   C13 6240   4.141   2.665  11.184 -0.1685 -0.2929 -0.4225
   72SLPC  H13A 6241   4.241   2.651  11.222  0.7779  2.3872 -1.5971
   72SLPC  H13B 6242   4.145   2.756  11.125  1.7095  1.1120  1.7084
   72SLPC  H13C 6243   4.086   2.688  11.274 -0.4707  0.3491 -0.7632
   72SLPC   C14 6244   4.064   2.434  11.188  0.2081  0.2742  0.3650
   72SLPC  H14A 6245   3.984   2.461  11.254  0.4124  2.8353 -0.3535
   72SLPC  H14B 6246   4.051   2.346  11.126  1.2300  1.2887 -1.3614
   72SLPC  H14C 6247   4.152   2.411  11.247  1.5006  0.2290 -1.4683
   72SLPC   C15 6248   4.196   2.512  10.997  0.2098 -0.0140  0.7853
   72SLPC  H15A 6249   4.209   2.599  10.936  0.1714 -1.1465 -0.9059
   72SLPC  H15B 6250   4.283   2.489  11.056 -0.4693  1.0674  2.2807
   72SLPC  H15C 6251   4.164   2.438  10.926 -2.1484 -1.4484  3.1174
   72SLPC   C12 6252   3.963   2.602  11.034 -0.6501 -0.5190  0.4518
   72SLPC  H12A 6253   3.977   2.694  10.980  0.7887 -1.6243 -1.1514
   72SLPC  H12B 6254   3.894   2.627  11.113  1.2999 -1.2982  2.5077
   72SLPC   C11 6255   3.886   2.507  10.935 -0.2503 -0.2669  0.2163
   72SLPC  H11A 6256   3.952   2.502  10.846  1.2857 -0.8526  1.3515
   72SLPC  H11B 6257   3.793   2.565  10.912  0.7518  2.2811  2.1634
   72SLPC     P 6258   3.872   2.244  10.931  0.1038 -0.0641  0.3927
   72SLPC   O13 6259   3.992   2.181  10.986  0.1067 -0.1864  0.4027
   72SLPC   O14 6260   3.745   2.173  10.946  0.3966  0.3781  0.2133
   72SLPC   O12 6261   3.850   2.385  11.004 -0.0911  0.4598 -0.7708
   72SLPC   O11 6262   3.894   2.285  10.778  0.0810  0.6001 -0.2141
   72SLPC    C1 6263   4.019   2.273  10.709  0.8625  0.0316 -0.1696
   72SLPC    HA 6264   4.103   2.317  10.768 -0.0648 -0.6442  1.7173
   72SLPC    HB 6265   4.038   2.165  10.694 -1.0399 -0.1150 -1.9716
   72SLPC    C2 6266   4.017   2.325  10.558 -0.2020  0.7202 -0.2234
   72SLPC    HS 6267   3.970   2.425  10.569 -1.7278 -0.1688  2.0011
   72SLPC   O21 6268   3.944   2.235  10.480  0.2795  0.1196 -0.5055
   72SLPC   C21 6269   3.837   2.290  10.426 -0.5967  0.0692  1.0438
   72SLPC   O22 6270   3.795   2.398  10.450  0.8572  0.3356  0.1964
   72SLPC   C22 6271   3.777   2.198  10.319 -0.4266 -0.1311 -0.1002
   72SLPC   H2R 6272   3.804   2.093  10.344 -0.2299 -0.8810 -3.1184
   72SLPC   H2S 6273   3.666   2.201  10.328 -0.3680 -0.2860  0.7719
   72SLPC    C3 6274   4.165   2.335  10.505 -0.8378  0.1738  0.9724
   72SLPC    HX 6275   4.218   2.245  10.543  0.2011  0.0546 -0.6659
   72SLPC    HY 6276   4.231   2.416  10.542  0.2935 -0.2073 -0.1345
   72SLPC   O31 6277   4.170   2.340  10.345  0.0398  0.3307 -0.1425
   72SLPC   C31 6278   4.192   2.227  10.286 -0.1950 -0.0909 -0.1519
   72SLPC   O32 6279   4.192   2.117  10.339  0.1137  0.3289  0.6258
   72SLPC   C32 6280   4.221   2.256  10.141 -0.9184  0.1345  0.3175
   72SLPC   H2X 6281   4.310   2.322  10.152 -0.5894 -0.2166 -0.2145
   72SLPC   H2Y 6282   4.133   2.308  10.096 -1.4612 -1.5280 -0.6080
   72SLPC   C23 6283   3.824   2.248  10.177 -0.1046 -0.2743  0.4799
   72SLPC   H3R 6284   3.934   2.255  10.188 -0.2652  1.4941  1.3785
   72SLPC   H3S 6285   3.782   2.347  10.150 -0.9801 -0.4933  0.9901
   72SLPC   C24 6286   3.790   2.157  10.064 -0.2091 -0.1874 -0.3379
   72SLPC   H4R 6287   3.681   2.135  10.058 -1.0282  3.1218  0.5713
   72SLPC   H4S 6288   3.830   2.060  10.100 -3.0314 -0.7942  1.4809
   72SLPC   C25 6289   3.848   2.199   9.933 -0.0708  0.8637  0.5709
   72SLPC   H5R 6290   3.956   2.222   9.940 -0.3242  1.7834  2.2027
   72SLPC   H5S 6291   3.797   2.292   9.899  0.4495 -0.2729 -3.8065
   72SLPC   C26 6292   3.807   2.094   9.828 -0.6713 -0.2800  0.2281
   72SLPC   H6R 6293   3.697   2.082   9.826 -0.6601 -0.9450  2.1455
   72SLPC   H6S 6294   3.841   1.996   9.867  0.2218  0.4742  1.4391
   72SLPC   C27 6295   3.858   2.115   9.683 -0.0096  0.6724 -0.0611
   72SLPC   H7R 6296   3.808   2.034   9.627 -0.5609 -0.2326  1.6764
   72SLPC   H7S 6297   3.968   2.103   9.692 -0.2435 -1.0607  1.0023
   72SLPC   C28 6298   3.831   2.246   9.612 -0.0446 -0.2302  0.7338
   72SLPC   H8R 6299   3.879   2.232   9.513  2.9355 -1.3390  2.1894
   72SLPC   H8S 6300   3.904   2.314   9.661  0.3108  1.3337 -1.8045
   72SLPC   C29 6301   3.687   2.294   9.621 -0.5272  0.2098  0.6490
   72SLPC   H9R 6302   3.649   2.294   9.724  1.0697 -0.1440  1.2647
   72SLPC  C210 6303   3.612   2.331   9.515  0.0397  0.4014  0.5774
   72SLPC  H10R 6304   3.511   2.373   9.527 -0.4386  0.0452 -1.6995
   72SLPC  C211 6305   3.657   2.330   9.372 -0.5353  0.0651 -0.3786
   72SLPC  H11R 6306   3.760   2.373   9.367 -0.8825  0.7845 -1.6359
   72SLPC  H11S 6307   3.596   2.409   9.324 -1.3275 -0.2997  0.0253
   72SLPC  C212 6308   3.635   2.199   9.301 -0.8095  0.5076 -0.1289
   72SLPC  H12R 6309   3.679   2.116   9.360 -0.9750  0.8429  0.4762
   72SLPC  C213 6310   3.565   2.177   9.188  0.1190 -0.3073  0.1264
   72SLPC  H13R 6311   3.548   2.071   9.165 -3.0100  0.1457 -0.0924
   72SLPC  C214 6312   3.484   2.282   9.109 -1.2691 -0.4369 -0.6561
   72SLPC  H14R 6313   3.544   2.331   9.029 -1.8893  0.6806 -0.4552
   72SLPC  H14S 6314   3.464   2.366   9.179 -1.3351  0.9285 -2.2430
   72SLPC  C215 6315   3.354   2.239   9.054 -0.0271  0.4222  0.5348
   72SLPC  H15R 6316   3.301   2.329   9.017 -0.5884  0.1610  0.6995
   72SLPC  H15S 6317   3.294   2.190   9.134  0.1493 -1.2885 -0.3333
   72SLPC  C216 6318   3.357   2.139   8.937 -0.1094 -0.1552 -1.1411
   72SLPC  H16R 6319   3.251   2.116   8.912 -1.0982  1.6396  1.0737
   72SLPC  H16S 6320   3.407   2.048   8.976 -0.4737 -0.4067 -1.2545
   72SLPC  C217 6321   3.428   2.184   8.809  0.3774 -0.2438  0.2773
   72SLPC  H17R 6322   3.431   2.093   8.746  2.0716  1.1510 -1.8058
   72SLPC  H17S 6323   3.529   2.225   8.832 -0.6305  1.5807  1.7173
   72SLPC  C218 6324   3.361   2.307   8.742 -0.1348  0.2675  0.1933
   72SLPC  H18R 6325   3.395   2.325   8.638  1.0429 -0.3970  0.4354
   72SLPC  H18S 6326   3.369   2.400   8.802 -0.0881  1.2217 -1.2528
   72SLPC  H18T 6327   3.253   2.293   8.722 -0.2619  0.9047  0.4071
   72SLPC   C33 6328   4.261   2.130  10.059  0.5883 -0.4609 -0.4899
   72SLPC   H3X 6329   4.186   2.054  10.088 -0.6468  2.3419  4.9068
   72SLPC   H3Y 6330   4.364   2.098  10.086  0.9912  0.8168 -0.4299
   72SLPC   C34 6331   4.252   2.147   9.906  0.3794 -0.2742  0.5028
   72SLPC   H4X 6332   4.153   2.189   9.876 -0.4412 -2.7902 -0.5477
   72SLPC   H4Y 6333   4.246   2.047   9.858  0.0377 -1.1909  2.3519
   72SLPC   C35 6334   4.363   2.229   9.852  0.0282 -0.5063 -0.4739
   72SLPC   H5X 6335   4.459   2.192   9.893  0.2079  1.2595  0.7932
   72SLPC   H5Y 6336   4.339   2.335   9.875  0.3972 -0.8042  1.4262
   72SLPC   C36 6337   4.384   2.215   9.700  0.7933 -0.0186 -0.0490
   72SLPC   H6X 6338   4.430   2.118   9.671 -1.0780 -2.3177  3.7481
   72SLPC   H6Y 6339   4.451   2.289   9.652  1.5559 -1.5459 -1.4483
   72SLPC   C37 6340   4.252   2.235   9.622 -0.3444 -0.9863 -0.0377
   72SLPC   H7X 6341   4.214   2.334   9.655  0.2572  0.2970 -2.9303
   72SLPC   H7Y 6342   4.186   2.150   9.647  0.4962 -1.3171  1.1755
   72SLPC   C38 6343   4.275   2.249   9.470  0.4093  0.6794  0.1572
   72SLPC   H8X 6344   4.337   2.338   9.445 -0.1632  0.6245 -1.6032
   72SLPC   H8Y 6345   4.172   2.268   9.431 -0.6473 -3.4442  0.4532
   72SLPC   C39 6346   4.318   2.119   9.409  0.1797  0.7232 -0.0818
   72SLPC   H9X 6347   4.238   2.044   9.428  1.3587 -0.8525 -1.0154
   72SLPC   H9Y 6348   4.414   2.092   9.458 -0.4682  0.0636  0.8605
   72SLPC  C310 6349   4.329   2.121   9.253  0.3731  0.8109 -0.3788
   72SLPC  H10X 6350   4.348   2.226   9.222  0.5570  0.3814 -1.7942
   72SLPC  H10Y 6351   4.235   2.097   9.199 -0.1517  0.3126  0.7225
   72SLPC  C311 6352   4.442   2.041   9.193 -0.0894  0.2645  0.3683
   72SLPC  H11X 6353   4.427   1.931   9.194  0.6077  0.1700  1.1079
   72SLPC  H11Y 6354   4.527   2.051   9.264 -0.9022  0.5324  1.3461
   72SLPC  C312 6355   4.482   2.078   9.049  0.0869 -0.2707  0.1179
   72SLPC  H12X 6356   4.523   2.181   9.036  0.9784 -0.4591  1.2874
   72SLPC  H12Y 6357   4.385   2.080   8.995 -0.4355 -1.5950  0.9648
   72SLPC  C313 6358   4.601   1.995   9.002 -0.0194 -0.3138  0.6934
   72SLPC  H13X 6359   4.555   1.894   8.998 -2.8736  0.8071  2.1196
   72SLPC  H13Y 6360   4.677   1.996   9.083 -2.0117  0.5210  2.6471
   72SLPC  C314 6361   4.667   2.038   8.871  0.1294 -0.2205  0.3673
   72SLPC  H14X 6362   4.745   1.973   8.825 -0.3261 -0.2986 -0.3134
   72SLPC  H14Y 6363   4.714   2.136   8.892 -0.4241  0.1457 -0.0808
   72SLPC  C315 6364   4.570   2.051   8.738 -0.1749  0.1436 -1.3162
   72SLPC  H15X 6365   4.534   2.155   8.751  2.4061  0.7794  1.6883
   72SLPC  H15Y 6366   4.487   1.977   8.751 -0.2659  0.4920  0.2477
   72SLPC  C316 6367   4.649   2.040   8.608  0.1894 -0.4898 -0.6525
   72SLPC  H16X 6368   4.575   2.046   8.526 -0.3584  0.9632 -0.0943
   72SLPC  H16Y 6369   4.703   1.943   8.609  0.8585 -0.1388  0.8024
   72SLPC  C317 6370   4.761   2.143   8.593 -0.2354  0.3658  0.0538
   72SLPC  H17X 6371   4.845   2.114   8.660  0.5735  1.7785 -0.3067
   72SLPC  H17Y 6372   4.727   2.243   8.625 -1.0906 -0.1462  0.7757
   72SLPC  C318 6373   4.829   2.147   8.457  0.8592 -0.1120  0.0378
   72SLPC  H18X 6374   4.766   2.202   8.384  0.9951  1.1523  0.8502
   72SLPC  H18Y 6375   4.831   2.044   8.415 -1.2444  0.0173 -0.5178
   72SLPC  H18Z 6376   4.926   2.200   8.461  0.9712 -0.2600 -0.5180
   73SLPC     N 6377   1.274   1.074  11.115  1.0106  0.1727  0.1459
   73SLPC   C13 6378   1.227   0.950  11.185  0.5762  0.0211 -0.0739
   73SLPC  H13A 6379   1.240   0.861  11.125  0.4616 -0.7212  0.9756
   73SLPC  H13B 6380   1.283   0.948  11.277 -0.2557  0.8104  0.4601
   73SLPC  H13C 6381   1.124   0.942  11.214  0.4005 -1.5256 -0.9922
   73SLPC   C14 6382   1.424   1.061  11.090  0.2241  0.7956 -0.0394
   73SLPC  H14A 6383   1.468   1.041  11.187  2.0180  0.2828 -0.9368
   73SLPC  H14B 6384   1.439   0.978  11.023  1.5640  0.2259  0.9148
   73SLPC  H14C 6385   1.459   1.152  11.044  0.4019  0.2813 -0.9486
   73SLPC   C15 6386   1.235   1.203  11.194 -0.3638  0.7134  0.1783
   73SLPC  H15A 6387   1.276   1.202  11.294 -2.7472  2.0258  1.2453
   73SLPC  H15B 6388   1.273   1.288  11.141 -2.4164  1.7707  0.2930
   73SLPC  H15C 6389   1.129   1.206  11.216  0.0248 -0.8515  2.7430
   73SLPC   C12 6390   1.196   1.092  10.990 -0.5593  0.2582  0.4904
   73SLPC  H12A 6391   1.244   1.032  10.914 -0.4706  0.1851  0.6032
   73SLPC  H12B 6392   1.229   1.189  10.956 -0.0530 -0.3712 -0.8969
   73SLPC   C11 6393   1.045   1.076  10.977  0.3343 -0.1750  0.1574
   73SLPC  H11A 6394   1.005   1.122  10.884 -2.2672  1.5679  1.9957
   73SLPC  H11B 6395   0.995   1.136  11.056 -0.8114 -0.0792 -0.6206
   73SLPC     P 6396   1.025   0.840  10.867 -0.3182 -0.0081 -0.0198
   73SLPC   O13 6397   1.159   0.858  10.804  0.0972  0.1021  0.1391
   73SLPC   O14 6398   0.975   0.708  10.901 -0.5992  0.4262 -0.0099
   73SLPC   O12 6399   1.013   0.939  10.992 -0.0505  0.1759  0.4980
   73SLPC   O11 6400   0.920   0.910  10.778 -0.1836 -0.1492  0.7559
   73SLPC    C1 6401   0.780   0.895  10.811  0.4002  0.4262  0.8486
   73SLPC    HA 6402   0.763   0.785  10.804 -0.1654  0.4829  1.2377
   73SLPC    HB 6403   0.752   0.929  10.913  1.3148  0.1715  1.1881
   73SLPC    C2 6404   0.688   0.965  10.714  0.0183 -0.2290  0.5080
   73SLPC    HS 6405   0.589   0.978  10.762  0.6332  0.7507  1.5475
   73SLPC   O21 6406   0.691   0.892  10.589 -0.6750 -0.2141 -0.3750
   73SLPC   C21 6407   0.611   0.799  10.582  0.4398  0.0088 -0.3449
   73SLPC   O22 6408   0.522   0.775  10.660  0.1900 -0.1083 -0.1230
   73SLPC   C22 6409   0.658   0.714  10.463  0.2252  0.1567  0.1533
   73SLPC   H2R 6410   0.677   0.780  10.377 -0.3591 -0.8456 -0.7703
   73SLPC   H2S 6411   0.762   0.685  10.488  0.4754  0.0849 -0.9384
   73SLPC    C3 6412   0.728   1.115  10.701  0.7613 -0.0527 -0.1541
   73SLPC    HX 6413   0.837   1.127  10.682  1.0969  0.0367  1.7050
   73SLPC    HY 6414   0.712   1.156  10.803  0.9132  1.5332 -0.7349
   73SLPC   O31 6415   0.643   1.196  10.616  0.2619 -0.2426  0.6401
   73SLPC   C31 6416   0.679   1.191  10.485 -0.2764 -0.5162 -0.2554
   73SLPC   O32 6417   0.766   1.120  10.439  0.3381 -0.5346  0.5418
   73SLPC   C32 6418   0.600   1.303  10.418 -1.0359  0.7491  0.4622
   73SLPC   H2X 6419   0.615   1.396  10.477  0.7551  0.4715  0.4796
   73SLPC   H2Y 6420   0.497   1.261  10.427  0.4692 -2.9666  2.6366
   73SLPC   C23 6421   0.568   0.595  10.433 -0.1205 -0.4560 -1.0712
   73SLPC   H3R 6422   0.579   0.535  10.526  0.9904  0.5618 -0.5149
   73SLPC   H3S 6423   0.620   0.557  10.343  0.8046  0.3842 -0.9011
   73SLPC   C24 6424   0.426   0.637  10.395  0.1363  0.3178  0.2333
   73SLPC   H4R 6425   0.432   0.686  10.296 -0.0270  0.3329  0.2306
   73SLPC   H4S 6426   0.371   0.706  10.463 -2.4467 -0.9739 -0.4072
   73SLPC   C25 6427   0.334   0.518  10.376 -0.1946  0.4419 -0.3474
   73SLPC   H5R 6428   0.234   0.566  10.371 -0.5461 -0.1554  0.6623
   73SLPC   H5S 6429   0.329   0.448  10.462 -1.7164 -2.2276 -2.4452
   73SLPC   C26 6430   0.355   0.442  10.242 -0.3529  0.3615  0.5624
   73SLPC   H6R 6431   0.459   0.401  10.248 -0.2099  0.4386 -1.0403
   73SLPC   H6S 6432   0.332   0.513  10.160 -1.9336 -2.1571 -1.3168
   73SLPC   C27 6433   0.253   0.326  10.232  0.8627  0.6316  0.6902
   73SLPC   H7R 6434   0.151   0.369  10.232  0.7972  0.4875  1.2205
   73SLPC   H7S 6435   0.265   0.250  10.313  1.1658 -0.4318 -0.3238
   73SLPC   C28 6436   0.272   0.245  10.103  0.2578  0.4552  0.7121
   73SLPC   H8R 6437   0.268   0.317  10.019  3.7632  0.3525  0.3033
   73SLPC   H8S 6438   0.179   0.185  10.097 -0.9408  2.3613 -1.2409
   73SLPC   C29 6439   0.402   0.166  10.090  0.1124 -0.7262 -0.3496
   73SLPC   H9R 6440   0.406   0.081  10.161 -0.5491 -1.3853 -1.0822
   73SLPC  C210 6441   0.507   0.188  10.013 -0.0223 -0.6678  0.0444
   73SLPC  H10R 6442   0.598   0.129  10.031 -0.1853 -1.0407 -0.3384
   73SLPC  C211 6443   0.545   0.294   9.912  0.2170  0.3451 -0.0480
   73SLPC  H11R 6444   0.462   0.363   9.884 -0.9817 -1.0294  0.0474
   73SLPC  H11S 6445   0.567   0.256   9.809 -0.7894  0.4833 -0.3253
   73SLPC  C212 6446   0.662   0.365   9.980 -0.0474  0.4222 -0.9563
   73SLPC  H12R 6447   0.657   0.375  10.089 -0.1565 -0.8198 -0.8304
   73SLPC  C213 6448   0.760   0.424   9.910  0.5266 -0.4868 -0.5346
   73SLPC  H13R 6449   0.836   0.482   9.964 -0.4980 -1.6610  2.4248
   73SLPC  C214 6450   0.777   0.419   9.759 -0.2758  0.3134 -0.5872
   73SLPC  H14R 6451   0.703   0.356   9.705 -0.2220  2.2841 -3.2040
   73SLPC  H14S 6452   0.870   0.364   9.735 -1.0923 -2.2875  1.7576
   73SLPC  C215 6453   0.784   0.557   9.696  0.3618 -0.1322  0.1411
   73SLPC  H15R 6454   0.885   0.598   9.715  0.6539 -0.6148 -0.3163
   73SLPC  H15S 6455   0.709   0.626   9.739 -0.6992  0.4944 -2.5007
   73SLPC  C216 6456   0.758   0.548   9.545 -0.9484 -0.6374 -0.1945
   73SLPC  H16R 6457   0.664   0.495   9.518 -2.1614  0.8905  0.8844
   73SLPC  H16S 6458   0.843   0.495   9.495  0.2807  2.1702 -1.3038
   73SLPC  C217 6459   0.773   0.682   9.479  0.0306  0.2165  0.9724
   73SLPC  H17R 6460   0.879   0.711   9.490 -0.1681  1.6872 -0.5202
   73SLPC  H17S 6461   0.713   0.759   9.531 -0.9602  1.4410 -1.7802
   73SLPC  C218 6462   0.748   0.686   9.329  0.3888  0.1548 -0.1500
   73SLPC  H18R 6463   0.735   0.787   9.285 -2.2338 -0.4841 -1.0346
   73SLPC  H18S 6464   0.668   0.616   9.299 -0.1728  1.1264 -0.9720
   73SLPC  H18T 6465   0.834   0.642   9.274  1.1995 -2.2825  2.7717
   73SLPC   C33 6466   0.643   1.324  10.266  0.1458  0.0092 -0.1098
   73SLPC   H3X 6467   0.647   1.225  10.216  3.5711 -0.1243  0.1621
   73SLPC   H3Y 6468   0.743   1.373  10.272  0.0452  0.1278  0.7544
   73SLPC   C34 6469   0.550   1.418  10.196  0.1221 -0.3777  0.3677
   73SLPC   H4X 6470   0.498   1.482  10.270  0.1535 -2.0412  1.9154
   73SLPC   H4Y 6471   0.474   1.364  10.137 -0.8163  1.5349 -0.2385
   73SLPC   C35 6472   0.608   1.506  10.083 -0.2820 -0.0298  0.1712
   73SLPC   H5X 6473   0.696   1.550  10.134  0.2408 -2.0923  1.1373
   73SLPC   H5Y 6474   0.540   1.585  10.045 -1.1285 -1.0776 -0.5423
   73SLPC   C36 6475   0.661   1.430   9.962  0.0351  0.0159 -0.3310
   73SLPC   H6X 6476   0.577   1.369   9.921 -0.5883  0.7042 -0.0948
   73SLPC   H6Y 6477   0.743   1.366  10.000 -2.0178 -2.5932  0.0314
   73SLPC   C37 6478   0.727   1.530   9.859  0.1675  0.5263 -0.1468
   73SLPC   H7X 6479   0.761   1.463   9.778 -1.3470  0.7757 -1.0373
   73SLPC   H7Y 6480   0.815   1.576   9.908  0.6156  1.5292 -1.7981
   73SLPC   C38 6481   0.635   1.632   9.797  0.4905  0.5052 -0.0624
   73SLPC   H8X 6482   0.646   1.738   9.828 -2.4618  0.8604  0.0700
   73SLPC   H8Y 6483   0.536   1.603   9.840  0.7463 -1.9241 -0.9720
   73SLPC   C39 6484   0.618   1.611   9.643  0.1161 -0.6000  0.3510
   73SLPC   H9X 6485   0.538   1.678   9.605  0.5652  0.2469  0.8756
   73SLPC   H9Y 6486   0.577   1.509   9.627 -0.1544 -0.2533 -1.3210
   73SLPC  C310 6487   0.738   1.645   9.559  0.6294  0.5151  0.0721
   73SLPC  H10X 6488   0.819   1.582   9.600 -0.5734 -0.9667  0.2254
   73SLPC  H10Y 6489   0.776   1.750   9.563  2.1727 -0.0240  0.1446
   73SLPC  C311 6490   0.716   1.608   9.407  0.6611  0.0590  0.1672
   73SLPC  H11X 6491   0.788   1.652   9.335  0.9135 -1.4844 -0.5759
   73SLPC  H11Y 6492   0.609   1.632   9.390  0.3728 -0.1347  1.5768
   73SLPC  C312 6493   0.729   1.460   9.373 -0.3732  0.0545 -0.5162
   73SLPC  H12X 6494   0.654   1.404   9.432  0.7204 -1.5025 -0.5369
   73SLPC  H12Y 6495   0.830   1.429   9.409  0.3417  2.9047  0.1792
   73SLPC  C313 6496   0.702   1.416   9.223 -0.2970  0.5720  0.5152
   73SLPC  H13X 6497   0.773   1.479   9.165 -0.6868 -1.1488 -1.9884
   73SLPC  H13Y 6498   0.598   1.428   9.189 -0.2333  1.4412  0.6224
   73SLPC  C314 6499   0.756   1.272   9.206  0.2973  0.8597  0.6125
   73SLPC  H14X 6500   0.680   1.197   9.237  0.8008  0.9429  2.1499
   73SLPC  H14Y 6501   0.847   1.256   9.268  1.9506 -0.4985 -1.9799
   73SLPC  C315 6502   0.803   1.258   9.060  0.3874 -0.1581 -0.2997
   73SLPC  H15X 6503   0.888   1.328   9.048 -0.0761  0.3925 -0.4434
   73SLPC  H15Y 6504   0.722   1.300   8.996  0.0643 -0.9055 -0.3947
   73SLPC  C316 6505   0.842   1.117   9.016 -0.0885  1.0234  0.1851
   73SLPC  H16X 6506   0.926   1.095   9.086  0.9646  2.0109 -0.7278
   73SLPC  H16Y 6507   0.871   1.108   8.909  1.2189 -1.6475  0.6638
   73SLPC  C317 6508   0.725   1.017   9.048  0.2472 -0.5425  0.5550
   73SLPC  H17X 6509   0.633   1.046   8.993  0.4420 -1.1278 -0.0951
   73SLPC  H17Y 6510   0.707   1.017   9.157 -1.2161  1.9523  0.4030
   73SLPC  C318 6511   0.747   0.872   9.003  0.2802  0.3742  0.1168
   73SLPC  H18X 6512   0.656   0.822   9.043  0.6711  1.3645  2.4149
   73SLPC  H18Y 6513   0.840   0.835   9.050  1.0900  0.0474 -1.6612
   73SLPC  H18Z 6514   0.749   0.864   8.892  0.1712 -1.4397  0.2162
   74SLPC     N 6515   1.293   0.358  10.773  0.7801 -0.3153  0.6786
   74SLPC   C13 6516   1.320   0.509  10.765 -0.2543 -0.1787 -0.1887
   74SLPC  H13A 6517   1.314   0.550  10.864 -0.3450  1.7767 -0.9498
   74SLPC  H13B 6518   1.420   0.529  10.728  0.0550 -2.3588 -0.6330
   74SLPC  H13C 6519   1.244   0.551  10.700 -0.0134 -1.2059 -1.1538
   74SLPC   C14 6520   1.159   0.342  10.827 -0.2172  0.3599  0.4784
   74SLPC  H14A 6521   1.083   0.369  10.756 -0.4839 -0.7404  0.3251
   74SLPC  H14B 6522   1.143   0.237  10.849  1.2376  0.5051  2.5187
   74SLPC  H14C 6523   1.133   0.393  10.918 -0.2909  0.2801  0.5024
   74SLPC   C15 6524   1.403   0.306  10.855 -0.6517  0.3598 -0.6330
   74SLPC  H15A 6525   1.385   0.205  10.888  2.7353 -0.4104 -0.7722
   74SLPC  H15B 6526   1.499   0.305  10.807 -1.4303 -0.2196 -2.2535
   74SLPC  H15C 6527   1.410   0.371  10.941 -1.4544 -1.2458  0.7168
   74SLPC   C12 6528   1.297   0.303  10.633 -0.6258 -0.0697  0.4266
   74SLPC  H12A 6529   1.291   0.197  10.651 -1.6043  0.2412  2.1247
   74SLPC  H12B 6530   1.396   0.328  10.597 -0.5512  0.6873  1.1128
   74SLPC   C11 6531   1.191   0.340  10.514 -0.5625 -0.0185  0.1166
   74SLPC  H11A 6532   1.097   0.328  10.571 -0.4727 -1.1813  0.0424
   74SLPC  H11B 6533   1.202   0.272  10.428 -0.1010  1.1247 -0.7616
   74SLPC     P 6534   1.320   0.533  10.384 -0.2128  0.2594 -0.3062
   74SLPC   O13 6535   1.302   0.674  10.368 -0.1399  0.1836  0.0336
   74SLPC   O14 6536   1.456   0.484  10.425 -0.5801 -0.2026  0.2876
   74SLPC   O12 6537   1.206   0.479  10.480  0.1650  0.7171 -0.1255
   74SLPC   O11 6538   1.279   0.461  10.247 -0.5259 -0.0486 -0.6385
   74SLPC    C1 6539   1.141   0.472  10.203 -0.5201  0.4930  0.4286
   74SLPC    HA 6540   1.098   0.369  10.197  2.0256 -0.6246 -0.0891
   74SLPC    HB 6541   1.082   0.549  10.255 -0.7978  0.6198 -0.0623
   74SLPC    C2 6542   1.128   0.537  10.061 -0.4515  0.1993  0.3216
   74SLPC    HS 6543   1.022   0.527  10.030  0.1238 -1.2652 -1.3737
   74SLPC   O21 6544   1.210   0.487   9.955 -0.1328 -0.8484 -0.0629
   74SLPC   C21 6545   1.161   0.377   9.890 -0.8263 -0.8995 -0.0802
   74SLPC   O22 6546   1.057   0.325   9.920  0.4176  0.3026  0.4871
   74SLPC   C22 6547   1.261   0.345   9.781 -0.7497 -0.6832  0.1086
   74SLPC   H2R 6548   1.319   0.437   9.758  0.9060 -1.6555  0.2444
   74SLPC   H2S 6549   1.338   0.272   9.814 -0.3417 -0.7860 -1.0204
   74SLPC    C3 6550   1.168   0.687  10.088 -0.3578 -0.2699 -0.1289
   74SLPC    HX 6551   1.276   0.687  10.113 -0.4863  0.8154  0.4797
   74SLPC    HY 6552   1.118   0.739  10.173  0.6760 -0.5922  0.6934
   74SLPC   O31 6553   1.135   0.754   9.965 -0.1547  0.3983 -0.2939
   74SLPC   C31 6554   1.233   0.833   9.917 -0.4757 -0.6741  0.5726
   74SLPC   O32 6555   1.321   0.881   9.988  0.0666  0.3590  0.3819
   74SLPC   C32 6556   1.188   0.880   9.774  0.0268  0.4309 -0.7339
   74SLPC   H2X 6557   1.276   0.932   9.731  1.0432 -1.6708 -1.3464
   74SLPC   H2Y 6558   1.096   0.939   9.791  0.4287  1.1621 -1.0509
   74SLPC   C23 6559   1.190   0.290   9.652  0.1024 -0.3530  0.2364
   74SLPC   H3R 6560   1.102   0.230   9.685 -1.7240  0.4724 -2.7285
   74SLPC   H3S 6561   1.258   0.223   9.596  0.3005 -0.4227  0.5576
   74SLPC   C24 6562   1.154   0.403   9.563 -0.1847  0.2458 -0.3638
   74SLPC   H4R 6563   1.224   0.489   9.564 -0.1817  0.2512  0.7917
   74SLPC   H4S 6564   1.057   0.449   9.592 -0.6295  0.5757 -2.2533
   74SLPC   C25 6565   1.159   0.354   9.425  0.0907  0.1348  1.0433
   74SLPC   H5R 6566   1.079   0.278   9.411 -2.8383  3.3406 -1.1913
   74SLPC   H5S 6567   1.246   0.289   9.400  0.2772  0.6390  0.3427
   74SLPC   C26 6568   1.155   0.473   9.317  0.5097  0.4899 -0.6718
   74SLPC   H6R 6569   1.244   0.533   9.343 -1.3433  2.3261  1.9616
   74SLPC   H6S 6570   1.068   0.534   9.350 -0.0292 -1.9279  2.8319
   74SLPC   C27 6571   1.154   0.425   9.173  0.1891 -0.1537  0.9683
   74SLPC   H7R 6572   1.051   0.388   9.154 -0.0936  0.3243  1.5521
   74SLPC   H7S 6573   1.215   0.333   9.159 -1.6208 -1.3933  0.8796
   74SLPC   C28 6574   1.208   0.529   9.081 -0.7546  0.3755 -0.1602
   74SLPC   H8R 6575   1.208   0.483   8.980  2.1776 -1.3852  0.5047
   74SLPC   H8S 6576   1.318   0.536   9.097 -0.7138 -1.5615  0.6773
   74SLPC   C29 6577   1.137   0.665   9.076  0.5141  0.1438 -0.8923
   74SLPC   H9R 6578   1.094   0.700   9.171  0.9299 -0.2499 -0.5525
   74SLPC  C210 6579   1.133   0.746   8.969  0.6748  0.3312  0.2580
   74SLPC  H10R 6580   1.065   0.832   8.973 -0.4088 -0.4900  0.0229
   74SLPC  C211 6581   1.182   0.726   8.829  0.0891  1.1418 -0.5068
   74SLPC  H11R 6582   1.225   0.624   8.818 -0.1067  1.0192 -0.1522
   74SLPC  H11S 6583   1.249   0.812   8.805  1.0198  0.7870  0.7227
   74SLPC  C212 6584   1.056   0.722   8.737 -1.0446 -1.0676  0.1269
   74SLPC  H12R 6585   0.998   0.815   8.731  2.2712  1.1220 -0.4180
   74SLPC  C213 6586   1.020   0.614   8.658  0.1833 -0.2136  0.4209
   74SLPC  H13R 6587   0.937   0.639   8.590 -0.5400 -0.3973  1.2186
   74SLPC  C214 6588   1.084   0.478   8.647 -0.3471  0.7154  0.8481
   74SLPC  H14R 6589   1.166   0.444   8.714 -1.0606  1.6242  2.2302
   74SLPC  H14S 6590   1.125   0.466   8.545  0.4152 -0.6096  1.2883
   74SLPC  C215 6591   0.975   0.373   8.654  0.1342  0.2817 -0.3789
   74SLPC  H15R 6592   0.905   0.405   8.573 -1.2202 -0.0882  0.6002
   74SLPC  H15S 6593   0.918   0.385   8.749  0.4598  0.1737 -0.1717
   74SLPC  C216 6594   1.017   0.225   8.635  0.1338 -0.2745  0.0068
   74SLPC  H16R 6595   1.098   0.204   8.708  0.4341  0.8249  0.0061
   74SLPC  H16S 6596   1.044   0.213   8.528  2.5473  3.3082  0.0269
   74SLPC  C217 6597   0.896   0.138   8.675  0.1675  0.3483 -0.4246
   74SLPC  H17R 6598   0.863   0.174   8.775 -1.7549  1.7870 -1.5144
   74SLPC  H17S 6599   0.929   0.032   8.681 -1.5725 -0.1414  1.1798
   74SLPC  C218 6600   0.780   0.143   8.568  0.2346 -1.0535 -0.2274
   74SLPC  H18R 6601   0.829   0.132   8.469  2.0127 -4.0243  0.8542
   74SLPC  H18S 6602   0.735   0.243   8.582  2.1777 -0.1309 -0.3668
   74SLPC  H18T 6603   0.706   0.061   8.584 -1.7370  0.8401  0.8323
   74SLPC   C33 6604   1.156   0.763   9.675  0.2305 -0.2029 -0.4119
   74SLPC   H3X 6605   1.052   0.734   9.702 -0.0138  1.5668  0.6636
   74SLPC   H3Y 6606   1.220   0.674   9.691  0.9237  0.7181  2.5316
   74SLPC   C34 6607   1.153   0.808   9.524  0.0184 -0.1243  0.0047
   74SLPC   H4X 6608   1.118   0.713   9.478 -1.7992 -0.2522  1.5438
   74SLPC   H4Y 6609   1.259   0.826   9.494  0.6533  0.5349  2.3784
   74SLPC   C35 6610   1.067   0.932   9.497 -0.5150 -0.2224  0.1343
   74SLPC   H5X 6611   1.119   1.015   9.550  1.7222  0.7081 -3.2006
   74SLPC   H5Y 6612   0.969   0.907   9.544 -0.6123  1.2458  0.7628
   74SLPC   C36 6613   1.027   0.958   9.354  0.5193 -0.3078  0.2912
   74SLPC   H6X 6614   0.977   1.057   9.350 -0.0004 -0.6001 -0.6682
   74SLPC   H6Y 6615   0.960   0.887   9.302  2.0515 -1.8312  0.3125
   74SLPC   C37 6616   1.145   0.972   9.255 -0.1538 -0.0879 -0.0364
   74SLPC   H7X 6617   1.104   0.977   9.152 -0.6348  1.0818  0.1866
   74SLPC   H7Y 6618   1.199   0.876   9.263 -0.0812  0.0204  1.0169
   74SLPC   C38 6619   1.250   1.085   9.294  0.1695  0.8278  0.8492
   74SLPC   H8X 6620   1.279   1.080   9.401  0.6695  1.5599  0.7569
   74SLPC   H8Y 6621   1.201   1.185   9.289  1.4609  1.4521 -0.1132
   74SLPC   C39 6622   1.371   1.083   9.197  0.5098 -0.2789 -0.4767
   74SLPC   H9X 6623   1.409   0.978   9.197 -1.2150 -0.9365  0.2193
   74SLPC   H9Y 6624   1.454   1.150   9.228  1.1382 -1.9679  1.7238
   74SLPC  C310 6625   1.329   1.094   9.049 -0.7089 -0.4017 -0.2052
   74SLPC  H10X 6626   1.268   1.185   9.030 -1.0500 -0.4377  0.7007
   74SLPC  H10Y 6627   1.273   1.005   9.013 -1.2443 -0.3609  0.5072
   74SLPC  C311 6628   1.450   1.098   8.951 -0.2641 -0.1816  0.5178
   74SLPC  H11X 6629   1.489   1.001   8.913  0.2639  0.5102 -0.7726
   74SLPC  H11Y 6630   1.539   1.140   9.002  3.0518 -4.1151 -1.3660
   74SLPC  C312 6631   1.411   1.165   8.811  0.3900 -0.2934 -0.2798
   74SLPC  H12X 6632   1.321   1.230   8.827  0.2756  0.1215 -2.3450
   74SLPC  H12Y 6633   1.369   1.090   8.741 -0.6506  1.1648 -1.2857
   74SLPC  C313 6634   1.526   1.242   8.742 -0.2520 -0.0467 -0.4109
   74SLPC  H13X 6635   1.612   1.172   8.741 -0.4867 -0.3818  1.1741
   74SLPC  H13Y 6636   1.551   1.333   8.802  1.5189  0.1564 -1.3696
   74SLPC  C314 6637   1.487   1.299   8.607  0.2916  0.5077  0.3112
   74SLPC  H14X 6638   1.437   1.398   8.609 -1.1239 -0.1181 -1.6084
   74SLPC  H14Y 6639   1.421   1.225   8.557 -1.6472  1.3982  1.4545
   74SLPC  C315 6640   1.596   1.315   8.504  0.3164  0.1803 -0.1204
   74SLPC  H15X 6641   1.679   1.383   8.531  1.5735 -1.1257 -0.5312
   74SLPC  H15Y 6642   1.550   1.353   8.410 -1.0189  0.6535  0.7015
   74SLPC  C316 6643   1.661   1.185   8.468  0.1414 -0.0945  0.5739
   74SLPC  H16X 6644   1.576   1.118   8.443 -0.3387  0.9772 -0.7275
   74SLPC  H16Y 6645   1.719   1.157   8.559 -0.6275  1.3998  1.5639
   74SLPC  C317 6646   1.766   1.186   8.357 -0.1860 -0.3709  0.2857
   74SLPC  H17X 6647   1.715   1.220   8.264 -1.2223 -1.2479  0.5139
   74SLPC  H17Y 6648   1.805   1.082   8.353  1.9847  0.4018  0.5701
   74SLPC  C318 6649   1.884   1.286   8.387  0.6699  0.5489 -0.2990
   74SLPC  H18X 6650   1.906   1.276   8.496 -1.0815 -1.2364 -0.0509
   74SLPC  H18Y 6651   1.865   1.392   8.363  1.4718  1.1148  1.3776
   74SLPC  H18Z 6652   1.972   1.245   8.334  0.7999 -1.1067  1.1022
   75SLPC     N 6653   2.062   3.658   6.564 -1.2700  0.5124 -0.6325
   75SLPC   C13 6654   2.010   3.743   6.451  0.1539 -0.0312 -1.0565
   75SLPC  H13A 6655   2.077   3.828   6.455  1.3016 -0.9000 -1.3709
   75SLPC  H13B 6656   2.003   3.697   6.353 -1.6483 -1.1838 -0.4301
   75SLPC  H13C 6657   1.912   3.784   6.473  0.4442 -0.2384  0.7107
   75SLPC   C14 6658   2.002   3.692   6.700 -0.0018 -0.3280 -0.1794
   75SLPC  H14A 6659   2.013   3.799   6.707  0.6524  0.1539 -5.0114
   75SLPC  H14B 6660   1.900   3.664   6.720 -0.0721  0.3061  0.3930
   75SLPC  H14C 6661   2.066   3.661   6.781 -1.8047 -0.8147  1.1210
   75SLPC   C15 6662   2.207   3.675   6.574 -0.6921  0.5340  0.1612
   75SLPC  H15A 6663   2.241   3.777   6.562 -2.7584  1.3914  1.0771
   75SLPC  H15B 6664   2.249   3.635   6.665 -0.0620  4.0339  1.5358
   75SLPC  H15C 6665   2.249   3.625   6.488  0.7474  0.4266  0.9070
   75SLPC   C12 6666   2.020   3.512   6.544 -0.3602 -0.3413 -0.7221
   75SLPC  H12A 6667   2.056   3.489   6.444 -2.2836  4.2254 -2.7609
   75SLPC  H12B 6668   1.913   3.495   6.551 -1.1407  2.6789 -3.0179
   75SLPC   C11 6669   2.099   3.419   6.635 -0.6915 -0.2231  0.2888
   75SLPC  H11A 6670   2.095   3.448   6.742 -0.4109 -0.8500  0.4790
   75SLPC  H11B 6671   2.206   3.413   6.607 -0.4952  0.5599  0.8516
   75SLPC     P 6672   1.955   3.202   6.707 -0.2193  0.0552  0.3128
   75SLPC   O13 6673   1.809   3.194   6.662 -0.6766 -0.1438  0.1348
   75SLPC   O14 6674   2.021   3.071   6.729 -0.4602  0.3758  0.0198
   75SLPC   O12 6675   2.044   3.291   6.609  0.3138  0.5092 -0.1318
   75SLPC   O11 6676   1.951   3.283   6.844 -0.2847  0.4072  0.2568
   75SLPC    C1 6677   2.014   3.228   6.964  1.5126  0.0913 -0.3539
   75SLPC    HA 6678   2.094   3.153   6.950  1.9979  0.8387 -1.7736
   75SLPC    HB 6679   2.066   3.307   7.023 -0.1463  0.1995  1.0477
   75SLPC    C2 6680   1.907   3.161   7.066  0.2295  0.2235 -0.3793
   75SLPC    HS 6681   1.860   3.086   6.998  4.1563 -0.3663 -2.8085
   75SLPC   O21 6682   1.813   3.267   7.099 -0.0677 -0.0191 -0.4098
   75SLPC   C21 6683   1.712   3.210   7.162 -0.7049 -0.3518  0.6102
   75SLPC   O22 6684   1.690   3.091   7.172  0.1580 -0.2247 -0.3951
   75SLPC   C22 6685   1.620   3.319   7.206  0.1255  0.3343 -0.0092
   75SLPC   H2R 6686   1.658   3.421   7.184 -4.1105  2.7426  2.4857
   75SLPC   H2S 6687   1.528   3.307   7.144  0.1863 -3.8965  0.4090
   75SLPC    C3 6688   1.980   3.091   7.188 -0.3977 -0.1579  0.0614
   75SLPC    HX 6689   2.033   3.012   7.132 -0.8469  0.1269 -0.7840
   75SLPC    HY 6690   1.912   3.039   7.259 -0.7325  2.7717  2.0811
   75SLPC   O31 6691   2.078   3.174   7.253  0.3409 -0.2961  0.2670
   75SLPC   C31 6692   2.048   3.226   7.373  0.5614  0.3278 -0.9541
   75SLPC   O32 6693   1.936   3.226   7.416  0.4008 -0.4235  0.9174
   75SLPC   C32 6694   2.175   3.277   7.438  0.8253  0.5220 -0.1583
   75SLPC   H2X 6695   2.219   3.365   7.386  2.5503 -0.8473 -1.1377
   75SLPC   H2Y 6696   2.245   3.191   7.425 -0.1806 -0.6918  1.9089
   75SLPC   C23 6697   1.592   3.299   7.354 -0.2427 -0.8252 -0.2817
   75SLPC   H3R 6698   1.688   3.314   7.409  0.3071 -2.3046 -0.7989
   75SLPC   H3S 6699   1.563   3.193   7.365  1.8164 -1.7728 -2.8066
   75SLPC   C24 6700   1.490   3.398   7.399 -0.1940  0.3658  0.2565
   75SLPC   H4R 6701   1.420   3.409   7.313 -2.2995  0.2767  1.8699
   75SLPC   H4S 6702   1.535   3.496   7.428 -0.0365 -0.2127  2.0898
   75SLPC   C25 6703   1.403   3.372   7.517 -0.7640  0.1040 -0.5080
   75SLPC   H5R 6704   1.384   3.263   7.528  0.3550 -0.0089  0.5885
   75SLPC   H5S 6705   1.315   3.438   7.510 -1.0466 -0.3058 -0.8839
   75SLPC   C26 6706   1.477   3.419   7.638  0.2101 -0.2038 -0.7640
   75SLPC   H6R 6707   1.477   3.530   7.637 -0.6418 -0.0932  2.3828
   75SLPC   H6S 6708   1.580   3.377   7.635  0.5826  0.7208 -1.6002
   75SLPC   C27 6709   1.407   3.372   7.759 -0.6861 -0.0934  0.0392
   75SLPC   H7R 6710   1.420   3.262   7.766 -0.4108 -0.0951 -0.4391
   75SLPC   H7S 6711   1.304   3.411   7.770 -0.4155  0.5644  0.3166
   75SLPC   C28 6712   1.477   3.430   7.883 -0.2026  0.2292 -0.5760
   75SLPC   H8R 6713   1.398   3.403   7.957 -0.4770  2.0389 -0.1619
   75SLPC   H8S 6714   1.475   3.541   7.893  0.8547  0.2472 -0.5402
   75SLPC   C29 6715   1.614   3.375   7.921  0.3887 -0.4385  0.6527
   75SLPC   H9R 6716   1.679   3.359   7.834 -1.1800  4.0354 -1.6172
   75SLPC  C210 6717   1.661   3.371   8.044  0.2189  1.1540  0.6861
   75SLPC  H10R 6718   1.757   3.321   8.064 -1.1129 -2.3360 -0.7510
   75SLPC  C211 6719   1.587   3.415   8.166  0.2702  0.2645  0.1599
   75SLPC  H11R 6720   1.531   3.508   8.143  0.4625  0.2969 -0.1819
   75SLPC  H11S 6721   1.668   3.446   8.234  0.5036  1.7029 -0.7307
   75SLPC  C212 6722   1.490   3.311   8.213 -0.3255  0.8858  0.4871
   75SLPC  H12R 6723   1.470   3.220   8.155 -0.3207  0.3779  1.2713
   75SLPC  C213 6724   1.439   3.306   8.338 -0.4070 -0.2498 -0.1168
   75SLPC  H13R 6725   1.372   3.223   8.365  0.3970 -1.1943 -0.9312
   75SLPC  C214 6726   1.471   3.399   8.448  0.0618  0.6606  0.3597
   75SLPC  H14R 6727   1.389   3.408   8.523  0.0950  0.7592  0.3846
   75SLPC  H14S 6728   1.473   3.502   8.406  0.2392 -0.1748 -1.8466
   75SLPC  C215 6729   1.601   3.377   8.534  0.0679 -0.1116 -0.5908
   75SLPC  H15R 6730   1.685   3.426   8.480 -0.0413  1.6600  0.7563
   75SLPC  H15S 6731   1.625   3.270   8.551 -1.1278 -0.1336  1.2140
   75SLPC  C216 6732   1.602   3.433   8.679  0.2120  0.0274 -0.6220
   75SLPC  H16R 6733   1.506   3.408   8.730  1.2188  0.1533  1.4253
   75SLPC  H16S 6734   1.605   3.544   8.681  1.6530  0.0236  1.8344
   75SLPC  C217 6735   1.718   3.384   8.770  0.4408 -0.7940  0.4613
   75SLPC  H17R 6736   1.812   3.396   8.712  0.6080 -1.6109  0.5611
   75SLPC  H17S 6737   1.697   3.276   8.780 -0.3833 -1.0444 -2.8538
   75SLPC  C218 6738   1.715   3.460   8.902  0.5465  0.3921  0.0717
   75SLPC  H18R 6739   1.790   3.541   8.912 -1.1672  2.0378  0.1539
   75SLPC  H18S 6740   1.727   3.383   8.982  1.3150  2.5742  2.1636
   75SLPC  H18T 6741   1.616   3.506   8.922  0.3047  0.4243 -1.1062
   75SLPC   C33 6742   2.163   3.298   7.592  0.2422 -0.7233  0.0822
   75SLPC   H3X 6743   2.119   3.399   7.605 -0.9946 -1.3659  1.0207
   75SLPC   H3Y 6744   2.102   3.221   7.643  0.6423 -0.7448  0.5385
   75SLPC   C34 6745   2.304   3.301   7.663 -0.3446  0.5839 -0.5951
   75SLPC   H4X 6746   2.364   3.390   7.634  1.1929 -0.1969  0.0638
   75SLPC   H4Y 6747   2.362   3.217   7.621 -0.3203  1.9161 -3.4402
   75SLPC   C35 6748   2.285   3.311   7.809 -0.0208  0.7711  0.1579
   75SLPC   H5X 6749   2.238   3.219   7.849 -1.3692  2.0381  1.5857
   75SLPC   H5Y 6750   2.217   3.392   7.841  0.5782  1.7324 -0.9273
   75SLPC   C36 6751   2.411   3.341   7.881  0.1834  0.6958 -0.1002
   75SLPC   H6X 6752   2.442   3.444   7.856  0.2676  0.5926 -0.4198
   75SLPC   H6Y 6753   2.492   3.274   7.843 -2.5030 -2.7221 -0.3262
   75SLPC   C37 6754   2.384   3.308   8.031 -0.2427  0.2958 -0.5866
   75SLPC   H7X 6755   2.326   3.214   8.038 -0.0532  0.2412  0.4546
   75SLPC   H7Y 6756   2.316   3.390   8.064 -0.9832  0.0416 -1.4321
   75SLPC   C38 6757   2.517   3.305   8.112  0.1234  0.2980  0.2350
   75SLPC   H8X 6758   2.579   3.387   8.069 -3.3879  1.9227 -2.2161
   75SLPC   H8Y 6759   2.578   3.219   8.077 -1.9558 -0.0350 -3.0310
   75SLPC   C39 6760   2.499   3.314   8.264  0.0247  0.5911 -0.4546
   75SLPC   H9X 6761   2.424   3.238   8.294 -1.6764  1.6133 -1.9397
   75SLPC   H9Y 6762   2.447   3.412   8.273 -0.0157  0.5503 -0.2456
   75SLPC  C310 6763   2.632   3.306   8.338 -0.8184 -0.0567 -0.2774
   75SLPC  H10X 6764   2.699   3.387   8.302  3.5209 -1.7066  3.1929
   75SLPC  H10Y 6765   2.689   3.212   8.324  0.4578  0.0406  3.2214
   75SLPC  C311 6766   2.609   3.323   8.486  0.0298  0.2932 -0.1747
   75SLPC  H11X 6767   2.544   3.251   8.540 -0.8599  1.8069  0.8308
   75SLPC  H11Y 6768   2.563   3.423   8.504 -0.6704  0.1981 -1.3099
   75SLPC  C312 6769   2.746   3.314   8.564 -0.2859 -0.6894  0.1180
   75SLPC  H12X 6770   2.806   3.382   8.501  0.4144 -1.0352  0.4079
   75SLPC  H12Y 6771   2.782   3.211   8.545  0.2838 -0.3187 -0.9110
   75SLPC  C313 6772   2.734   3.348   8.714 -0.1064  0.6387  1.4641
   75SLPC  H13X 6773   2.712   3.249   8.760  0.0661 -0.3352 -0.4552
   75SLPC  H13Y 6774   2.652   3.420   8.732 -0.7625  0.3663 -0.3308
   75SLPC  C314 6775   2.855   3.409   8.775 -0.2933 -0.0663  0.0849
   75SLPC  H14X 6776   2.874   3.507   8.727 -0.2379  0.0377  0.3160
   75SLPC  H14Y 6777   2.947   3.347   8.773  0.1900  0.5528  1.4458
   75SLPC  C315 6778   2.837   3.425   8.930  0.2327  0.1889  0.2074
   75SLPC  H15X 6779   2.834   3.325   8.980  2.5804  0.0480  0.2085
   75SLPC  H15Y 6780   2.742   3.479   8.945 -1.7076 -2.4505 -1.6002
   75SLPC  C316 6781   2.945   3.516   8.984  0.2980  0.7337  0.1786
   75SLPC  H16X 6782   2.930   3.528   9.094  1.1746  1.7562  0.2042
   75SLPC  H16Y 6783   2.946   3.613   8.930 -1.1806 -0.0151 -1.2941
   75SLPC  C317 6784   3.086   3.452   8.974 -0.0646  0.2532  0.0750
   75SLPC  H17X 6785   3.108   3.418   8.870 -0.3901  0.9689 -0.2356
   75SLPC  H17Y 6786   3.080   3.366   9.044  0.7176  1.1329  1.2498
   75SLPC  C318 6787   3.189   3.550   9.029 -0.2823  0.3657  0.9550
   75SLPC  H18X 6788   3.292   3.511   9.011 -0.7037 -0.4328  0.1712
   75SLPC  H18Y 6789   3.166   3.572   9.135  0.0945  1.4014  0.8286
   75SLPC  H18Z 6790   3.186   3.650   8.981 -1.6910 -0.9929 -1.9761
   76SLPC     N 6791   3.259   2.424   6.186 -0.1562 -0.0147  0.1864
   76SLPC   C13 6792   3.306   2.477   6.052 -0.9284 -0.2363 -0.3386
   76SLPC  H13A 6793   3.305   2.403   5.974  1.0444 -2.1486  1.3041
   76SLPC  H13B 6794   3.249   2.563   6.022 -0.8214 -0.5668 -1.5062
   76SLPC  H13C 6795   3.411   2.502   6.059 -0.6475 -1.6877  4.1929
   76SLPC   C14 6796   3.112   2.432   6.190 -0.6506 -0.4973  0.3021
   76SLPC  H14A 6797   3.074   2.378   6.104 -2.8955  1.5520 -0.0911
   76SLPC  H14B 6798   3.062   2.390   6.276 -0.8117  0.7141  0.8254
   76SLPC  H14C 6799   3.076   2.531   6.168  0.9493  0.1903  0.6579
   76SLPC   C15 6800   3.309   2.518   6.296  0.2504 -0.0120  0.2627
   76SLPC  H15A 6801   3.278   2.491   6.396 -2.8340 -1.5474 -0.9638
   76SLPC  H15B 6802   3.417   2.513   6.295  0.5166  3.0087  1.9438
   76SLPC  H15C 6803   3.281   2.618   6.268 -0.0578  0.2047  1.3072
   76SLPC   C12 6804   3.312   2.287   6.216  0.1807  0.1484 -0.4793
   76SLPC  H12A 6805   3.419   2.284   6.207  0.0337 -0.5865 -2.2271
   76SLPC  H12B 6806   3.283   2.219   6.138  0.3653 -1.5175  0.8544
   76SLPC   C11 6807   3.277   2.210   6.353 -0.1116 -0.1990 -0.1781
   76SLPC  H11A 6808   3.305   2.281   6.434  0.9003  2.6991 -2.8681
   76SLPC  H11B 6809   3.344   2.122   6.352  0.6351  0.2382  2.5714
   76SLPC     P 6810   3.071   2.049   6.333 -0.2359 -0.2897  0.2367
   76SLPC   O13 6811   2.929   2.066   6.351  0.2275 -0.3827  0.5990
   76SLPC   O14 6812   3.115   1.997   6.199  0.5013 -0.7686 -0.8026
   76SLPC   O12 6813   3.140   2.186   6.373  0.8234 -0.2068  0.3490
   76SLPC   O11 6814   3.105   1.940   6.433 -0.3546 -0.1300 -0.4195
   76SLPC    C1 6815   3.170   1.972   6.557  0.1726  0.2162  0.1318
   76SLPC    HA 6816   3.277   1.941   6.556  0.0685 -0.2199  1.2981
   76SLPC    HB 6817   3.194   2.080   6.566 -1.0215  0.4356  0.8617
   76SLPC    C2 6818   3.095   1.920   6.683  0.6979 -0.2039  0.6242
   76SLPC    HS 6819   2.997   1.971   6.695 -0.0251 -1.0960 -1.1513
   76SLPC   O21 6820   3.171   1.941   6.799  0.0074 -0.2605  0.1587
   76SLPC   C21 6821   3.158   2.054   6.863 -0.5116 -1.0447 -0.3692
   76SLPC   O22 6822   3.065   2.131   6.855 -0.6608  0.5534 -0.0847
   76SLPC   C22 6823   3.275   2.068   6.965 -0.2907 -0.4631  0.2164
   76SLPC   H2R 6824   3.371   2.062   6.910 -1.1286  0.6885 -1.4524
   76SLPC   H2S 6825   3.278   2.174   7.000 -0.2716 -0.4006  0.0259
   76SLPC    C3 6826   3.059   1.763   6.674 -0.0978  0.7444 -0.2093
   76SLPC    HX 6827   3.156   1.709   6.683 -0.1417  0.7372  0.2494
   76SLPC    HY 6828   3.024   1.739   6.571  2.5177 -0.3987 -0.9309
   76SLPC   O31 6829   2.958   1.727   6.780  0.0182  0.4096 -0.3477
   76SLPC   C31 6830   2.913   1.599   6.771 -0.8462  0.6682 -0.6640
   76SLPC   O32 6831   2.955   1.519   6.687  0.5037 -0.3918 -0.1445
   76SLPC   C32 6832   2.803   1.569   6.879 -0.7477 -0.2830 -0.0700
   76SLPC   H2X 6833   2.708   1.623   6.855 -1.5369 -2.0904 -1.2197
   76SLPC   H2Y 6834   2.842   1.596   6.979  0.7165  1.6611 -1.0747
   76SLPC   C23 6835   3.267   1.965   7.085  0.1779  0.4310  0.2777
   76SLPC   H3R 6836   3.360   1.968   7.146 -1.5536  1.1906  3.0889
   76SLPC   H3S 6837   3.255   1.863   7.044 -0.8259  0.3406  0.7805
   76SLPC   C24 6838   3.162   2.006   7.187 -0.9423  0.6523 -0.2111
   76SLPC   H4R 6839   3.177   2.111   7.220  0.7096  1.1624 -2.3782
   76SLPC   H4S 6840   3.193   1.953   7.279  0.7396  0.7832 -0.6773
   76SLPC   C25 6841   3.023   1.960   7.162 -0.2255  0.9249  0.4694
   76SLPC   H5R 6842   3.037   1.856   7.123  3.2966  2.1279 -1.9630
   76SLPC   H5S 6843   2.971   2.020   7.084  1.1507 -0.2607 -1.4614
   76SLPC   C26 6844   2.945   1.973   7.287  0.9246 -0.0578  0.0591
   76SLPC   H6R 6845   2.919   2.077   7.319 -0.0965 -0.3311  0.1664
   76SLPC   H6S 6846   2.992   1.919   7.372 -0.7232 -0.4205  0.7794
   76SLPC   C27 6847   2.803   1.908   7.262  0.8145 -0.0442 -0.5572
   76SLPC   H7R 6848   2.804   1.800   7.239 -0.6110 -0.3963  0.8588
   76SLPC   H7S 6849   2.753   1.964   7.180 -1.3764  1.1472  1.4660
   76SLPC   C28 6850   2.717   1.917   7.394  0.1328 -0.0057 -0.0219
   76SLPC   H8R 6851   2.708   2.023   7.425 -0.2386 -0.1899  0.5145
   76SLPC   H8S 6852   2.616   1.873   7.380  0.1811 -0.5649  1.2268
   76SLPC   C29 6853   2.785   1.839   7.500 -0.3887  0.3044 -0.2862
   76SLPC   H9R 6854   2.805   1.738   7.462  1.2560  0.4089  0.2121
   76SLPC  C210 6855   2.833   1.868   7.623  0.5912 -0.9228  0.1736
   76SLPC  H10R 6856   2.889   1.784   7.668 -1.8779 -3.3257 -0.9485
   76SLPC  C211 6857   2.830   2.000   7.703  0.4823  0.7969  0.1394
   76SLPC  H11R 6858   2.786   1.972   7.801 -0.0871 -0.5371 -0.4811
   76SLPC  H11S 6859   2.759   2.077   7.665 -0.5776  0.3341  1.1435
   76SLPC  C212 6860   2.967   2.059   7.712  1.0456 -0.2821  0.1697
   76SLPC  H12R 6861   3.023   2.062   7.618 -0.2223 -3.2679 -0.8061
   76SLPC  C213 6862   3.015   2.101   7.832  0.5234  0.3826  0.5059
   76SLPC  H13R 6863   3.118   2.136   7.844  1.8214 -3.5686  2.8401
   76SLPC  C214 6864   2.951   2.088   7.974 -0.1903  0.2924 -0.1149
   76SLPC  H14R 6865   2.842   2.110   7.969 -0.0138  1.8622  1.8639
   76SLPC  H14S 6866   2.990   2.173   8.034  0.2784 -0.9852  1.4701
   76SLPC  C215 6867   2.979   1.948   8.045 -0.5685 -0.5712  0.0885
   76SLPC  H15R 6868   3.088   1.931   8.032 -0.2734  1.7898 -1.2412
   76SLPC  H15S 6869   2.914   1.871   7.998 -0.9029  0.1365 -0.6322
   76SLPC  C216 6870   2.930   1.953   8.195  0.0567 -0.3629 -0.0101
   76SLPC  H16R 6871   2.827   1.993   8.201  0.9633  2.6166 -1.9839
   76SLPC  H16S 6872   2.995   2.022   8.252 -1.9598 -0.1456  2.1635
   76SLPC  C217 6873   2.948   1.811   8.256  0.3860 -0.0021 -0.8046
   76SLPC  H17R 6874   3.050   1.769   8.268  0.6473  0.3632 -1.6661
   76SLPC  H17S 6875   2.901   1.744   8.181 -2.7644  0.7877  0.3073
   76SLPC  C218 6876   2.871   1.794   8.388 -0.6022 -0.9276 -0.1436
   76SLPC  H18R 6877   2.830   1.692   8.405 -1.2066 -0.5092  0.9935
   76SLPC  H18S 6878   2.787   1.866   8.398  0.2190  0.2264 -1.2033
   76SLPC  H18T 6879   2.939   1.816   8.473  1.1530  0.2492 -1.7822
   76SLPC   C33 6880   2.760   1.425   6.889 -0.1545  0.2340  0.0085
   76SLPC   H3X 6881   2.848   1.359   6.903 -0.7057 -0.4705  0.2554
   76SLPC   H3Y 6882   2.711   1.388   6.796 -0.8354  0.4104  0.2932
   76SLPC   C34 6883   2.670   1.396   7.001 -0.2484  0.9556 -0.3903
   76SLPC   H4X 6884   2.706   1.436   7.098 -1.6407  0.3542  0.4186
   76SLPC   H4Y 6885   2.666   1.286   7.017 -0.5329  0.3272 -3.9198
   76SLPC   C35 6886   2.522   1.447   6.982  0.1935  0.1887  0.4760
   76SLPC   H5X 6887   2.492   1.415   6.880 -0.1457 -1.1647  0.9769
   76SLPC   H5Y 6888   2.529   1.557   6.991 -0.7473  0.1742  1.5517
   76SLPC   C36 6889   2.424   1.384   7.079 -0.2824  0.1087  0.4246
   76SLPC   H6X 6890   2.454   1.282   7.110  3.2982  0.5968 -0.9977
   76SLPC   H6Y 6891   2.333   1.366   7.017 -0.1606 -2.3378  0.8760
   76SLPC   C37 6892   2.397   1.474   7.197  0.4836  0.1036 -0.3941
   76SLPC   H7X 6893   2.312   1.441   7.260 -1.1049  1.1945 -1.8884
   76SLPC   H7Y 6894   2.367   1.570   7.150 -0.7366 -0.0903 -0.0364
   76SLPC   C38 6895   2.509   1.502   7.297 -0.1877 -0.4016  0.0643
   76SLPC   H8X 6896   2.468   1.581   7.364  1.6366  1.0384 -0.4179
   76SLPC   H8Y 6897   2.596   1.556   7.254 -1.4528  0.8674 -1.0180
   76SLPC   C39 6898   2.552   1.380   7.373  0.1826  0.1643  0.4299
   76SLPC   H9X 6899   2.601   1.319   7.295 -1.8472 -0.5811 -0.3302
   76SLPC   H9Y 6900   2.463   1.323   7.407  1.0210 -1.0471  0.6521
   76SLPC  C310 6901   2.655   1.405   7.491  0.2406 -0.3421 -0.3625
   76SLPC  H10X 6902   2.596   1.442   7.577  0.8464 -1.7135  0.6937
   76SLPC  H10Y 6903   2.715   1.490   7.453 -0.7278  0.8283  0.6300
   76SLPC  C311 6904   2.736   1.284   7.521 -0.5461 -0.1397 -0.8791
   76SLPC  H11X 6905   2.786   1.254   7.426 -1.2525  1.4810 -1.7953
   76SLPC  H11Y 6906   2.674   1.199   7.557 -1.9140  1.7982  1.6702
   76SLPC  C312 6907   2.850   1.317   7.632  0.4620 -0.7955  0.2894
   76SLPC  H12X 6908   2.907   1.406   7.599 -2.0324  0.8658  0.1999
   76SLPC  H12Y 6909   2.923   1.233   7.622  3.4923  1.7644 -0.6279
   76SLPC  C313 6910   2.792   1.322   7.775  0.1132 -0.0675  0.1697
   76SLPC  H13X 6911   2.726   1.235   7.795 -0.8010  0.3421 -0.9777
   76SLPC  H13Y 6912   2.731   1.414   7.789  0.4062 -0.0133  1.2044
   76SLPC  C314 6913   2.903   1.323   7.885  0.7216  0.2065 -0.3883
   76SLPC  H14X 6914   2.967   1.414   7.879  1.4912 -0.2793  0.1875
   76SLPC  H14Y 6915   2.976   1.242   7.864 -2.3575 -2.7835 -0.3205
   76SLPC  C315 6916   2.859   1.293   8.032  0.4294 -0.3198  0.0313
   76SLPC  H15X 6917   2.948   1.282   8.097  0.2092  0.2082  0.4296
   76SLPC  H15Y 6918   2.800   1.199   8.028  0.7873 -0.5205 -0.8446
   76SLPC  C316 6919   2.758   1.399   8.068 -0.0786 -0.3306  0.5753
   76SLPC  H16X 6920   2.656   1.362   8.043 -0.3371  1.1077 -0.5675
   76SLPC  H16Y 6921   2.770   1.491   8.008 -2.5227  0.9515  1.9121
   76SLPC  C317 6922   2.762   1.437   8.217 -0.1666 -0.1801  0.3751
   76SLPC  H17X 6923   2.687   1.515   8.241 -2.2448 -1.7569 -0.6539
   76SLPC  H17Y 6924   2.860   1.488   8.232  0.9039 -1.8407 -0.6160
   76SLPC  C318 6925   2.758   1.319   8.324 -0.2327 -0.0158  0.1269
   76SLPC  H18X 6926   2.753   1.346   8.431 -1.7750 -1.5224  0.4770
   76SLPC  H18Y 6927   2.852   1.261   8.316 -1.1516 -1.3031 -2.8977
   76SLPC  H18Z 6928   2.683   1.243   8.294 -1.4046  0.1116  2.5144
   77SLPC     N 6929   4.890   1.548   6.410 -0.3174  0.6661  0.8829
   77SLPC   C13 6930   4.931   1.418   6.347  0.3328 -0.3723 -0.0141
   77SLPC  H13A 6931   4.946   1.334   6.413 -0.3053 -0.9906 -0.6473
   77SLPC  H13B 6932   4.854   1.381   6.281 -1.1417  0.4909  1.1529
   77SLPC  H13C 6933   5.029   1.429   6.304  1.1706 -1.0700  1.6310
   77SLPC   C14 6934   4.752   1.533   6.464  0.9099  0.0673  0.5495
   77SLPC  H14A 6935   4.685   1.515   6.381  2.3442 -0.6882 -0.4818
   77SLPC  H14B 6936   4.740   1.456   6.538  3.6676 -0.0193  1.0272
   77SLPC  H14C 6937   4.719   1.627   6.506 -0.5266  0.7466 -1.8955
   77SLPC   C15 6938   4.912   1.659   6.311 -0.7741 -0.3982  0.0498
   77SLPC  H15A 6939   4.887   1.751   6.362 -1.0468 -1.4517  1.8977
   77SLPC  H15B 6940   5.017   1.659   6.283 -0.8668  1.9520 -0.5736
   77SLPC  H15C 6941   4.846   1.654   6.226 -1.0233 -0.9895  0.2811
   77SLPC   C12 6942   4.983   1.565   6.526  0.1815 -0.0167  0.4722
   77SLPC  H12A 6943   4.984   1.477   6.589 -0.7022  0.1489  0.7231
   77SLPC  H12B 6944   4.946   1.636   6.599 -2.0839  0.6046 -1.1609
   77SLPC   C11 6945   5.130   1.604   6.499 -0.1626 -0.1373  0.4071
   77SLPC  H11A 6946   5.170   1.641   6.596  1.2960 -4.1765  1.5608
   77SLPC  H11B 6947   5.135   1.687   6.425 -0.4261 -1.2427 -0.8868
   77SLPC     P 6948   5.260   1.385   6.546 -0.3092 -0.2091 -0.0049
   77SLPC   O13 6949   5.241   1.251   6.488  0.5091 -0.6777 -0.3171
   77SLPC   O14 6950   5.393   1.429   6.585 -0.4184 -0.9167 -0.2910
   77SLPC   O12 6951   5.202   1.493   6.446 -0.3388 -0.4012 -0.5039
   77SLPC   O11 6952   5.159   1.394   6.663  0.1735  0.1906  0.2763
   77SLPC    C1 6953   5.185   1.371   6.800  0.0062  0.0105 -0.1444
   77SLPC    HA 6954   5.098   1.327   6.853  1.5339 -0.0474  2.4541
   77SLPC    HB 6955   5.265   1.296   6.819 -0.5338 -0.4908  0.1552
   77SLPC    C2 6956   5.236   1.491   6.880 -0.7367 -0.8369 -0.0078
   77SLPC    HS 6957   5.309   1.529   6.805 -2.3311  0.4861 -0.9491
   77SLPC   O21 6958   5.309   1.446   7.000  0.1403 -0.0797  0.5061
   77SLPC   C21 6959   5.413   1.523   7.034 -0.0389 -0.3610  0.6297
   77SLPC   O22 6960   5.451   1.621   6.973 -0.3782 -0.2249 -0.0217
   77SLPC   C22 6961   5.476   1.458   7.158 -0.3290  0.3311 -0.6087
   77SLPC   H2R 6962   5.398   1.421   7.228  1.1970 -1.9767  0.0132
   77SLPC   H2S 6963   5.538   1.371   7.128  1.2596  0.8292  1.0346
   77SLPC    C3 6964   5.123   1.602   6.898  0.0161 -0.9659 -0.2854
   77SLPC    HX 6965   5.047   1.553   6.962  1.0594 -1.4848  0.5882
   77SLPC    HY 6966   5.081   1.620   6.797  2.3209 -0.5152 -1.2310
   77SLPC   O31 6967   5.169   1.713   6.976 -0.8929 -0.7434  0.0844
   77SLPC   C31 6968   5.227   1.812   6.913 -0.3290 -0.2559 -0.1483
   77SLPC   O32 6969   5.223   1.837   6.793 -0.5805 -0.0484  0.3710
   77SLPC   C32 6970   5.294   1.903   7.016 -0.1897  0.3784 -0.4397
   77SLPC   H2X 6971   5.359   1.843   7.085 -1.1174 -1.9822 -1.5089
   77SLPC   H2Y 6972   5.212   1.948   7.077  0.8707 -2.2326  3.3042
   77SLPC   C23 6973   5.562   1.565   7.228 -0.2326  0.0450 -0.3702
   77SLPC   H3R 6974   5.489   1.641   7.264 -1.2866 -0.2358 -1.7870
   77SLPC   H3S 6975   5.643   1.610   7.167  0.4140 -0.2329  0.2841
   77SLPC   C24 6976   5.643   1.495   7.342 -0.4409  0.1976 -0.3721
   77SLPC   H4R 6977   5.563   1.454   7.407  1.7337 -1.4585  1.4232
   77SLPC   H4S 6978   5.699   1.572   7.399  0.5260 -0.4383 -0.4491
   77SLPC   C25 6979   5.733   1.382   7.298  0.2621 -1.3901 -0.0062
   77SLPC   H5R 6980   5.806   1.419   7.223  0.3367  0.0528  0.7439
   77SLPC   H5S 6981   5.667   1.308   7.248 -1.4136 -0.6928  1.1022
   77SLPC   C26 6982   5.806   1.317   7.415 -0.1670 -0.0717  0.0822
   77SLPC   H6R 6983   5.867   1.387   7.475 -1.6919  1.7421 -0.3987
   77SLPC   H6S 6984   5.877   1.240   7.377  0.0140  0.0201  0.2334
   77SLPC   C27 6985   5.702   1.241   7.502  0.0898  1.2938  0.2198
   77SLPC   H7R 6986   5.672   1.161   7.431  1.0016  2.4499 -1.5316
   77SLPC   H7S 6987   5.610   1.297   7.527  1.6784  3.5742  1.3165
   77SLPC   C28 6988   5.767   1.177   7.625 -0.6723  0.2825  0.4515
   77SLPC   H8R 6989   5.876   1.166   7.603 -0.9964 -0.6186 -0.7368
   77SLPC   H8S 6990   5.720   1.082   7.655  0.7420 -0.9173 -0.9476
   77SLPC   C29 6991   5.778   1.269   7.743  0.6701  0.1427  0.1570
   77SLPC   H9R 6992   5.808   1.373   7.725  0.5982  0.5354  2.0793
   77SLPC  C210 6993   5.753   1.239   7.870  0.4565  0.3445 -0.3117
   77SLPC  H10R 6994   5.773   1.308   7.953 -0.2859 -1.1805  1.1996
   77SLPC  C211 6995   5.727   1.103   7.932  0.0493  0.2696  0.3136
   77SLPC  H11R 6996   5.820   1.052   7.966  0.5507  1.0750  0.2007
   77SLPC  H11S 6997   5.682   1.032   7.860 -2.0468  0.2778  1.5570
   77SLPC  C212 6998   5.625   1.119   8.044  0.0768 -0.0735  0.0528
   77SLPC  H12R 6999   5.529   1.162   8.012  1.8827  2.2173 -2.8827
   77SLPC  C213 7000   5.641   1.090   8.177 -0.7287 -0.4893 -0.0846
   77SLPC  H13R 7001   5.560   1.130   8.240 -0.9101  1.3400 -1.3983
   77SLPC  C214 7002   5.762   1.039   8.260 -0.0991  0.0522  0.3645
   77SLPC  H14R 7003   5.784   1.126   8.325 -2.5811  0.4996  0.7077
   77SLPC  H14S 7004   5.848   1.017   8.193 -1.3221 -1.3434 -0.8375
   77SLPC  C215 7005   5.729   0.921   8.355  0.4770  0.9426 -0.6597
   77SLPC  H15R 7006   5.727   0.827   8.297  0.1588  1.1451 -0.9833
   77SLPC  H15S 7007   5.628   0.933   8.401  1.3318  1.4319  1.2296
   77SLPC  C216 7008   5.844   0.903   8.448 -0.1445 -0.2420 -0.2374
   77SLPC  H16R 7009   5.938   0.915   8.390 -0.9727  1.0096 -1.3851
   77SLPC  H16S 7010   5.842   0.802   8.494  0.5641 -1.1378 -2.0924
   77SLPC  C217 7011   5.856   1.009   8.560 -0.0522 -0.7740  0.6861
   77SLPC  H17R 7012   5.849   1.114   8.523 -0.9196  0.1960  3.3093
   77SLPC  H17S 7013   5.955   1.012   8.611  0.8599  0.0591 -1.0431
   77SLPC  C218 7014   5.749   0.997   8.677 -0.1151  0.2891 -0.4207
   77SLPC  H18R 7015   5.646   0.980   8.640 -0.0573  0.6957 -0.7727
   77SLPC  H18S 7016   5.738   1.086   8.743  1.2383 -1.0592  1.7713
   77SLPC  H18T 7017   5.774   0.915   8.748 -0.6900 -0.5183 -1.1353
   77SLPC   C33 7018   5.369   2.020   6.954  0.4886 -0.1439  0.0440
   77SLPC   H3X 7019   5.300   2.098   6.918  0.7155  0.9058  1.7868
   77SLPC   H3Y 7020   5.439   1.994   6.871 -0.1921  1.3932 -1.0595
   77SLPC   C34 7021   5.452   2.090   7.060 -0.4325  0.4771  0.1681
   77SLPC   H4X 7022   5.523   2.157   7.007  0.9124  1.8438  3.4296
   77SLPC   H4Y 7023   5.514   2.013   7.111  0.0765  0.0053 -1.1257
   77SLPC   C35 7024   5.373   2.171   7.165 -0.7219 -0.6597 -0.5411
   77SLPC   H5X 7025   5.317   2.122   7.247  0.0271 -2.6073 -1.1322
   77SLPC   H5Y 7026   5.298   2.219   7.099  1.3050 -0.5094 -2.9086
   77SLPC   C36 7027   5.465   2.272   7.222  0.1959  0.5498  0.1561
   77SLPC   H6X 7028   5.417   2.333   7.302  0.7372 -0.7817  1.5422
   77SLPC   H6Y 7029   5.495   2.355   7.154 -0.0359  0.2113 -0.3654
   77SLPC   C37 7030   5.595   2.216   7.285  1.1403 -0.4501 -0.3201
   77SLPC   H7X 7031   5.661   2.186   7.200  1.4142 -0.2246 -0.1904
   77SLPC   H7Y 7032   5.585   2.124   7.347  1.0433 -1.4094 -1.6878
   77SLPC   C38 7033   5.672   2.316   7.372 -0.1121  0.3585 -0.7666
   77SLPC   H8X 7034   5.611   2.348   7.459  2.0375  2.5136  0.0669
   77SLPC   H8Y 7035   5.694   2.409   7.316  1.1516  1.2314  1.0925
   77SLPC   C39 7036   5.798   2.258   7.442 -0.2687  0.5912 -0.4225
   77SLPC   H9X 7037   5.879   2.252   7.366  0.5731  0.8730  0.4331
   77SLPC   H9Y 7038   5.778   2.157   7.483  4.3330 -0.6168 -0.5245
   77SLPC  C310 7039   5.835   2.356   7.559 -0.0265  0.3957  1.0616
   77SLPC  H10X 7040   5.746   2.382   7.621 -0.0018  1.9903  0.4607
   77SLPC  H10Y 7041   5.872   2.452   7.517 -0.8844 -0.9357 -3.1462
   77SLPC  C311 7042   5.948   2.301   7.657  0.9058  0.1241 -0.1292
   77SLPC  H11X 7043   6.045   2.271   7.612 -0.1943 -1.0634 -1.8276
   77SLPC  H11Y 7044   5.912   2.200   7.689  2.5567 -0.2441  0.6843
   77SLPC  C312 7045   5.972   2.393   7.772  0.8412 -0.0166  0.0287
   77SLPC  H12X 7046   5.870   2.425   7.804 -0.9946 -2.8419 -2.4586
   77SLPC  H12Y 7047   6.020   2.481   7.724 -1.5775  1.7340  0.6575
   77SLPC  C313 7048   6.055   2.328   7.882 -0.5944 -0.7360 -0.2550
   77SLPC  H13X 7049   6.030   2.221   7.902 -1.5863 -0.6478 -0.9288
   77SLPC  H13Y 7050   6.041   2.397   7.968  0.9452  0.0770 -0.6239
   77SLPC  C314 7051   6.208   2.333   7.858  0.1939  0.4936  0.0544
   77SLPC  H14X 7052   6.216   2.301   7.752 -0.6233  0.0024  0.1290
   77SLPC  H14Y 7053   6.252   2.265   7.934  0.3779 -1.3064 -1.5837
   77SLPC  C315 7054   6.274   2.473   7.894  0.2912  0.4677  0.0197
   77SLPC  H15X 7055   6.250   2.512   7.995  1.0128 -2.2640  1.3559
   77SLPC  H15Y 7056   6.232   2.552   7.828 -2.4365  2.7310  4.0362
   77SLPC  C316 7057   6.427   2.465   7.873 -0.7204  0.0836  0.1955
   77SLPC  H16X 7058   6.458   2.571   7.862 -1.6168  0.2158 -1.4086
   77SLPC  H16Y 7059   6.455   2.415   7.778 -0.1196 -0.1353  0.4854
   77SLPC  C317 7060   6.509   2.411   7.996  0.2405 -0.0305  0.7372
   77SLPC  H17X 7061   6.458   2.319   8.030 -0.8791 -0.0420 -0.8919
   77SLPC  H17Y 7062   6.492   2.484   8.078 -0.5062  0.9704 -0.2877
   77SLPC  C318 7063   6.661   2.378   7.963  0.4058 -0.1388 -0.6265
   77SLPC  H18X 7064   6.666   2.301   7.883 -0.1100  0.1831 -0.9759
   77SLPC  H18Y 7065   6.709   2.335   8.054  0.1037 -0.8414 -0.7856
   77SLPC  H18Z 7066   6.711   2.469   7.925  0.1565  0.8001  1.1906
   78SLPC     N 7067   4.379   2.200   6.293 -0.2206  0.0010 -0.4212
   78SLPC   C13 7068   4.406   2.115   6.172  0.0452  0.1753  0.3522
   78SLPC  H13A 7069   4.473   2.034   6.199 -0.8515 -0.6735  0.0776
   78SLPC  H13B 7070   4.311   2.074   6.142 -0.5242 -0.8723  3.2968
   78SLPC  H13C 7071   4.459   2.165   6.092  0.6035  1.1460  1.3038
   78SLPC   C14 7072   4.299   2.129   6.393 -0.0525 -0.5686  0.5687
   78SLPC  H14A 7073   4.213   2.078   6.351 -1.3104  0.3520  1.9116
   78SLPC  H14B 7074   4.348   2.044   6.437  0.3435 -0.8062 -0.3055
   78SLPC  H14C 7075   4.254   2.200   6.462 -2.9235 -0.7564 -0.9401
   78SLPC   C15 7076   4.286   2.305   6.239 -0.1114  0.2008 -1.0585
   78SLPC  H15A 7077   4.268   2.374   6.320  1.3008 -0.6255 -0.0021
   78SLPC  H15B 7078   4.333   2.364   6.162  0.3961  1.3667  0.1062
   78SLPC  H15C 7079   4.198   2.255   6.199 -0.8087 -0.8322  1.5602
   78SLPC   C12 7080   4.499   2.260   6.363  0.1421  0.4467 -0.0618
   78SLPC  H12A 7081   4.554   2.312   6.286  0.6298 -1.1393 -0.8409
   78SLPC  H12B 7082   4.555   2.183   6.414  0.8113  1.5916  0.9737
   78SLPC   C11 7083   4.467   2.365   6.476  0.2158  0.1843 -0.6959
   78SLPC  H11A 7084   4.557   2.372   6.541 -0.5643 -2.2425  0.7961
   78SLPC  H11B 7085   4.396   2.329   6.554  0.2196  0.6934 -0.4480
   78SLPC     P 7086   4.340   2.599   6.493 -0.3558 -0.0488  0.1061
   78SLPC   O13 7087   4.420   2.722   6.500  0.6647  0.2904 -0.7986
   78SLPC   O14 7088   4.220   2.622   6.408  0.1468 -0.4509  0.3236
   78SLPC   O12 7089   4.427   2.488   6.412  0.4416  0.0756 -0.6000
   78SLPC   O11 7090   4.306   2.533   6.622  0.0250 -0.0396 -0.9308
   78SLPC    C1 7091   4.176   2.488   6.669 -0.3371  0.0942  0.2970
   78SLPC    HA 7092   4.112   2.474   6.579  0.4611 -0.6439 -0.1723
   78SLPC    HB 7093   4.207   2.391   6.712  1.6213  0.1527 -0.8413
   78SLPC    C2 7094   4.111   2.579   6.781  0.2145 -0.0277  0.8383
   78SLPC    HS 7095   4.116   2.685   6.749 -2.7310  0.2263  0.9398
   78SLPC   O21 7096   4.192   2.561   6.901  0.5469  0.3889 -0.2117
   78SLPC   C21 7097   4.285   2.651   6.922 -0.4475  0.4336  0.2087
   78SLPC   O22 7098   4.294   2.756   6.865  0.4251  0.5166  0.7278
   78SLPC   C22 7099   4.385   2.606   7.027 -0.2599 -0.6329 -0.8225
   78SLPC   H2R 7100   4.427   2.503   7.020 -0.7929 -1.0977  1.6237
   78SLPC   H2S 7101   4.474   2.669   7.009 -0.7694  0.6476  0.8552
   78SLPC    C3 7102   3.966   2.555   6.815  0.3778  0.6204  0.4909
   78SLPC    HX 7103   3.949   2.446   6.824  0.7725  0.4979 -0.1618
   78SLPC    HY 7104   3.905   2.586   6.728 -0.1406  0.1591  0.6835
   78SLPC   O31 7105   3.929   2.613   6.940 -0.1406 -0.0511  0.7575
   78SLPC   C31 7106   3.883   2.740   6.929  0.7314 -0.5644 -0.0709
   78SLPC   O32 7107   3.890   2.805   6.826 -0.3075 -0.5696 -0.0996
   78SLPC   C32 7108   3.824   2.780   7.064 -0.3466  0.0245 -0.3719
   78SLPC   H2X 7109   3.743   2.706   7.084  0.6038 -1.0767 -0.4942
   78SLPC   H2Y 7110   3.782   2.883   7.057 -0.1344  0.0513 -1.2748
   78SLPC   C23 7111   4.345   2.634   7.177  0.3257  0.6335 -0.6232
   78SLPC   H3R 7112   4.264   2.564   7.207  0.1381  0.8481 -0.6222
   78SLPC   H3S 7113   4.304   2.737   7.186  1.9301  1.0945  2.6038
   78SLPC   C24 7114   4.461   2.618   7.279  0.5666  0.1825 -0.0721
   78SLPC   H4R 7115   4.533   2.703   7.278  1.8121 -0.8350 -0.1320
   78SLPC   H4S 7116   4.519   2.527   7.254  0.8291 -0.3548  2.2216
   78SLPC   C25 7117   4.410   2.608   7.421  0.7692 -0.3129 -0.4943
   78SLPC   H5R 7118   4.344   2.520   7.435  0.4516 -0.3319 -1.9201
   78SLPC   H5S 7119   4.347   2.698   7.439 -1.4370 -2.2235  2.0341
   78SLPC   C26 7120   4.523   2.595   7.526  0.2299  0.6489 -0.8609
   78SLPC   H6R 7121   4.603   2.667   7.501 -1.0248  2.0249 -1.0544
   78SLPC   H6S 7122   4.573   2.497   7.512 -0.1525 -0.1538  2.4913
   78SLPC   C27 7123   4.472   2.612   7.668  0.3719  0.1154  1.3443
   78SLPC   H7R 7124   4.399   2.534   7.696 -1.0402  0.9862  0.2361
   78SLPC   H7S 7125   4.421   2.710   7.661  0.9453  0.3456 -0.0433
   78SLPC   C28 7126   4.581   2.617   7.770  0.6220  0.0713  0.4741
   78SLPC   H8R 7127   4.641   2.707   7.746 -0.7943  0.9709  0.1970
   78SLPC   H8S 7128   4.640   2.523   7.763 -0.8015 -0.8497  0.3240
   78SLPC   C29 7129   4.537   2.612   7.913 -0.2338 -0.8092 -0.4156
   78SLPC   H9R 7130   4.492   2.518   7.948 -1.9489  0.9221  2.3964
   78SLPC  C210 7131   4.520   2.710   7.999  0.0723 -0.5367 -0.1751
   78SLPC  H10R 7132   4.506   2.692   8.107  2.3668  0.3602  0.3343
   78SLPC  C211 7133   4.552   2.856   7.966  1.0316  0.3324  0.3288
   78SLPC  H11R 7134   4.467   2.912   8.012 -0.0806 -0.8786 -0.1781
   78SLPC  H11S 7135   4.532   2.869   7.858 -0.1478 -2.2745  0.1382
   78SLPC  C212 7136   4.683   2.906   8.003 -0.2208  0.5867 -0.0969
   78SLPC  H12R 7137   4.727   2.847   8.084 -1.5819  1.4461  1.3289
   78SLPC  C213 7138   4.752   3.002   7.938 -0.0155  0.7544 -0.0278
   78SLPC  H13R 7139   4.852   3.008   7.985 -0.0559 -2.8165  0.8033
   78SLPC  C214 7140   4.722   3.091   7.823 -0.4528 -0.5444 -0.1853
   78SLPC  H14R 7141   4.615   3.084   7.795 -0.2204  1.7098 -1.8781
   78SLPC  H14S 7142   4.778   3.069   7.730 -0.6250  1.2046 -0.7289
   78SLPC  C215 7143   4.760   3.241   7.846 -0.0134  0.2728 -0.0560
   78SLPC  H15R 7144   4.871   3.241   7.836 -0.1942 -2.4203 -3.9328
   78SLPC  H15S 7145   4.726   3.279   7.945 -1.6440 -0.1638 -0.4182
   78SLPC  C216 7146   4.698   3.328   7.735  0.1679 -0.1035  0.5943
   78SLPC  H16R 7147   4.720   3.436   7.748  1.0193  0.0064 -1.3975
   78SLPC  H16S 7148   4.588   3.324   7.744 -0.0250  0.2949 -1.2039
   78SLPC  C217 7149   4.723   3.291   7.585  0.0761 -0.0918 -0.3117
   78SLPC  H17R 7150   4.686   3.186   7.583  0.3337 -0.2251  1.0203
   78SLPC  H17S 7151   4.831   3.284   7.561 -0.0568 -1.1266 -0.6711
   78SLPC  C218 7152   4.648   3.374   7.480 -0.3093 -0.4437 -0.4324
   78SLPC  H18R 7153   4.681   3.352   7.376 -0.6711  2.0616 -1.1441
   78SLPC  H18S 7154   4.662   3.483   7.497  1.5869 -1.0312  2.5615
   78SLPC  H18T 7155   4.538   3.355   7.484 -0.2356 -1.4377 -2.2778
   78SLPC   C33 7156   3.925   2.761   7.187 -0.3298  0.1925  0.3261
   78SLPC   H3X 7157   4.016   2.815   7.153 -0.4815 -0.3933 -1.0760
   78SLPC   H3Y 7158   3.948   2.653   7.184 -0.5548  0.1637 -2.0653
   78SLPC   C34 7159   3.869   2.799   7.326  0.3347  0.7011 -0.1310
   78SLPC   H4X 7160   3.790   2.722   7.340  1.8758 -1.1528 -1.0043
   78SLPC   H4Y 7161   3.820   2.898   7.317 -0.9846  0.2452  1.5377
   78SLPC   C35 7162   3.965   2.782   7.440  0.2579 -0.4619  0.0982
   78SLPC   H5X 7163   4.017   2.880   7.451 -2.2967  0.8485  1.3446
   78SLPC   H5Y 7164   4.040   2.708   7.406  0.7192  0.0448 -0.0081
   78SLPC   C36 7165   3.893   2.765   7.571  0.8359  0.8338 -0.2152
   78SLPC   H6X 7166   3.811   2.690   7.566  0.4437  1.2621 -0.2476
   78SLPC   H6Y 7167   3.852   2.865   7.596 -1.8824  1.0922 -4.6359
   78SLPC   C37 7168   3.976   2.712   7.684 -0.3967 -0.2421 -0.6149
   78SLPC   H7X 7169   4.006   2.607   7.663  1.7332 -0.0059  0.9794
   78SLPC   H7Y 7170   3.904   2.704   7.768 -2.0356  0.9494 -1.8422
   78SLPC   C38 7171   4.091   2.800   7.719  0.0170  0.6120  0.4161
   78SLPC   H8X 7172   4.039   2.895   7.744 -0.5360  0.2220  0.7614
   78SLPC   H8Y 7173   4.164   2.816   7.637  1.8667 -0.2767  1.8113
   78SLPC   C39 7174   4.163   2.764   7.847 -0.2078  0.0662  0.3560
   78SLPC   H9X 7175   4.258   2.821   7.861  1.2435 -2.1207 -0.2253
   78SLPC   H9Y 7176   4.188   2.656   7.843 -2.0110 -0.4047  0.6457
   78SLPC  C310 7177   4.081   2.790   7.973 -0.5871  0.1264  0.1618
   78SLPC  H10X 7178   3.998   2.715   7.966 -1.7416  1.4488 -1.0163
   78SLPC  H10Y 7179   4.045   2.894   7.982 -0.5688  0.1434  0.0430
   78SLPC  C311 7180   4.163   2.764   8.103 -0.1789  0.8889  0.2387
   78SLPC  H11X 7181   4.263   2.811   8.087  0.2186 -0.4875 -1.8227
   78SLPC  H11Y 7182   4.177   2.654   8.112 -2.7412  0.0351 -3.5507
   78SLPC  C312 7183   4.111   2.818   8.235  0.1087 -0.3394 -0.5483
   78SLPC  H12X 7184   4.044   2.750   8.292 -1.1138  0.4630 -0.9644
   78SLPC  H12Y 7185   4.065   2.919   8.222  0.8663 -0.0863 -1.3711
   78SLPC  C313 7186   4.230   2.846   8.329 -0.5208  0.1791  0.2599
   78SLPC  H13X 7187   4.295   2.920   8.276  1.0858 -1.2319  0.1767
   78SLPC  H13Y 7188   4.305   2.767   8.349  1.2961  1.6584 -0.3466
   78SLPC  C314 7189   4.179   2.901   8.468 -0.0482  0.2713 -1.3457
   78SLPC  H14X 7190   4.097   2.976   8.459 -0.8053  0.1604  2.7375
   78SLPC  H14Y 7191   4.263   2.956   8.514 -1.1665  0.2744  0.7925
   78SLPC  C315 7192   4.146   2.785   8.554 -0.2911 -0.3923 -0.7716
   78SLPC  H15X 7193   4.235   2.761   8.616  0.9681  1.5133 -1.7368
   78SLPC  H15Y 7194   4.118   2.692   8.500 -2.0527 -0.8737  0.8732
   78SLPC  C316 7195   4.025   2.826   8.647  0.1129 -0.3151 -0.3456
   78SLPC  H16X 7196   3.938   2.831   8.579 -0.4545  2.7487  0.4718
   78SLPC  H16Y 7197   4.035   2.932   8.677  0.0290  0.4617 -2.8692
   78SLPC  C317 7198   4.005   2.734   8.766 -1.1291  0.0486 -0.0447
   78SLPC  H17X 7199   4.083   2.759   8.842 -2.2768 -0.7869  1.4612
   78SLPC  H17Y 7200   4.030   2.630   8.738 -1.9500  0.5467 -2.8693
   78SLPC  C318 7201   3.866   2.756   8.822  0.9713  0.1015 -0.1297
   78SLPC  H18X 7202   3.838   2.711   8.920 -0.5593  1.3028  0.0415
   78SLPC  H18Y 7203   3.794   2.713   8.749  2.5931 -0.0314 -1.7096
   78SLPC  H18Z 7204   3.839   2.864   8.827 -0.1716 -0.1883  0.3249
   79SLPC     N 7205   4.642   5.888   5.915 -0.2462 -0.0457  0.7522
   79SLPC   C13 7206   4.563   5.769   5.882 -0.5623 -0.0225 -0.2749
   79SLPC  H13A 7207   4.466   5.798   5.844 -0.1402  1.0416 -0.5713
   79SLPC  H13B 7208   4.599   5.723   5.791 -0.5704  2.4967 -1.6456
   79SLPC  H13C 7209   4.560   5.703   5.967  3.3258  0.0980  0.1216
   79SLPC   C14 7210   4.662   5.967   5.785 -0.3122 -0.2387 -0.1287
   79SLPC  H14A 7211   4.674   5.890   5.711  0.0834 -1.0192  0.7311
   79SLPC  H14B 7212   4.580   6.037   5.771 -0.9985 -0.8837  0.5210
   79SLPC  H14C 7213   4.745   6.036   5.778  1.4534 -2.1937  0.7193
   79SLPC   C15 7214   4.764   5.841   5.978 -0.2987 -0.1912  0.6276
   79SLPC  H15A 7215   4.804   5.764   5.913 -2.2215  2.4088 -4.1453
   79SLPC  H15B 7216   4.837   5.920   5.992  0.4006 -0.8009  0.4547
   79SLPC  H15C 7217   4.753   5.792   6.073  0.8745 -2.2182 -0.2231
   79SLPC   C12 7218   4.571   5.974   6.015 -0.1168 -0.3419 -0.2327
   79SLPC  H12A 7219   4.485   6.025   5.973  0.9400  3.3618  1.7287
   79SLPC  H12B 7220   4.643   6.052   6.031 -1.4509  1.1290 -1.0268
   79SLPC   C11 7221   4.525   5.909   6.151 -0.5695  0.7561 -0.4805
   79SLPC  H11A 7222   4.453   5.833   6.111 -0.2513 -0.1926  0.7017
   79SLPC  H11B 7223   4.457   5.978   6.205 -0.7645  0.7692 -0.7396
   79SLPC     P 7224   4.608   5.718   6.293  0.0732 -0.1338  0.1701
   79SLPC   O13 7225   4.568   5.631   6.182  0.3369 -0.1325 -0.1505
   79SLPC   O14 7226   4.736   5.678   6.360 -0.4256  0.0937 -0.8830
   79SLPC   O12 7227   4.629   5.862   6.237 -0.0002 -0.3843  0.3901
   79SLPC   O11 7228   4.486   5.731   6.394  0.2105 -0.2134  0.5626
   79SLPC    C1 7229   4.461   5.856   6.453 -0.2334  0.1838  0.5383
   79SLPC    HA 7230   4.511   5.942   6.403  1.8350 -0.9063  0.6354
   79SLPC    HB 7231   4.352   5.876   6.458 -0.1442  0.6169  0.8391
   79SLPC    C2 7232   4.524   5.852   6.597  0.5035  0.7305 -0.1126
   79SLPC    HS 7233   4.633   5.844   6.580  0.3561 -0.5618 -0.5431
   79SLPC   O21 7234   4.473   5.741   6.673 -0.0749  0.7284  0.0954
   79SLPC   C21 7235   4.569   5.679   6.749  0.5565  0.1512  1.1717
   79SLPC   O22 7236   4.683   5.709   6.754 -0.1777  0.0554  0.2972
   79SLPC   C22 7237   4.494   5.558   6.823  0.0002 -0.0754  0.6107
   79SLPC   H2R 7238   4.384   5.566   6.819 -0.1270 -1.9554 -0.8897
   79SLPC   H2S 7239   4.528   5.481   6.750 -2.3338  1.3270 -2.1401
   79SLPC    C3 7240   4.502   5.984   6.677 -0.5216  1.0721  0.5400
   79SLPC    HX 7241   4.392   5.995   6.685 -0.5891  1.1224 -0.3549
   79SLPC    HY 7242   4.549   6.056   6.606 -0.5619 -0.3214 -0.9863
   79SLPC   O31 7243   4.570   6.001   6.803  0.6693 -0.1957 -0.0806
   79SLPC   C31 7244   4.524   6.111   6.865 -0.3397  0.5650 -0.9032
   79SLPC   O32 7245   4.432   6.175   6.824 -0.1968  0.2086  0.2626
   79SLPC   C32 7246   4.601   6.162   6.988  0.0592  0.2752  0.1281
   79SLPC   H2X 7247   4.572   6.269   6.997 -2.1137 -0.2927  0.5201
   79SLPC   H2Y 7248   4.711   6.155   6.974  0.2733 -1.0480  2.0249
   79SLPC   C23 7249   4.543   5.548   6.973  0.3930 -0.3099  0.5088
   79SLPC   H3R 7250   4.652   5.529   6.972  0.4706 -0.4226 -2.9887
   79SLPC   H3S 7251   4.495   5.456   7.013 -0.0266 -1.3630 -2.1910
   79SLPC   C24 7252   4.490   5.669   7.057 -0.1878 -0.6341  0.1826
   79SLPC   H4R 7253   4.381   5.665   7.074 -0.1319  0.8134  1.0963
   79SLPC   H4S 7254   4.513   5.755   6.991 -0.8953 -0.7658 -0.2418
   79SLPC   C25 7255   4.569   5.677   7.185 -0.0823  0.0712  0.0308
   79SLPC   H5R 7256   4.514   5.760   7.234 -0.8758  0.9706 -2.2485
   79SLPC   H5S 7257   4.674   5.711   7.169  0.1820 -0.5601  0.3724
   79SLPC   C26 7258   4.560   5.552   7.273 -0.0583 -0.0458  0.3285
   79SLPC   H6R 7259   4.616   5.467   7.227 -1.0193 -1.0679  1.0092
   79SLPC   H6S 7260   4.458   5.509   7.284 -0.7438  0.4374 -2.9310
   79SLPC   C27 7261   4.630   5.571   7.414  0.4436 -0.0048  0.6456
   79SLPC   H7R 7262   4.603   5.665   7.466 -0.2354 -0.6081  1.3998
   79SLPC   H7S 7263   4.739   5.572   7.392  0.3128 -3.7033 -1.0395
   79SLPC   C28 7264   4.610   5.458   7.513 -0.3611  0.3391  0.3320
   79SLPC   H8R 7265   4.630   5.363   7.458 -0.8320 -0.0520  0.8189
   79SLPC   H8S 7266   4.501   5.450   7.528 -0.7918  2.3119 -1.3599
   79SLPC   C29 7267   4.696   5.461   7.636  0.4615 -0.0170 -0.4825
   79SLPC   H9R 7268   4.798   5.427   7.611  1.4481  0.2175  2.7499
   79SLPC  C210 7269   4.669   5.457   7.767  0.2062 -0.0493  0.3491
   79SLPC  H10R 7270   4.751   5.457   7.840  0.9166 -0.4426 -0.4361
   79SLPC  C211 7271   4.534   5.449   7.829  0.0702  0.0208  0.7765
   79SLPC  H11R 7272   4.451   5.462   7.756  1.1167  2.0938 -0.1381
   79SLPC  H11S 7273   4.531   5.545   7.885 -1.3319  1.2083 -1.2133
   79SLPC  C212 7274   4.511   5.329   7.916  0.5149  0.1437 -0.5784
   79SLPC  H12R 7275   4.479   5.237   7.865  3.3821 -1.1867 -0.2434
   79SLPC  C213 7276   4.535   5.324   8.050 -0.3174  0.0661 -0.1299
   79SLPC  H13R 7277   4.528   5.224   8.093  0.2696 -0.6860 -1.7106
   79SLPC  C214 7278   4.587   5.434   8.141 -0.1188 -0.5826  0.3012
   79SLPC  H14R 7279   4.572   5.536   8.100 -0.4233  0.1572  2.1672
   79SLPC  H14S 7280   4.697   5.428   8.154 -0.2281  0.3078  1.8112
   79SLPC  C215 7281   4.503   5.440   8.265  0.4599  0.1987 -0.8994
   79SLPC  H15R 7282   4.406   5.489   8.243  0.2950  1.2883  1.7809
   79SLPC  H15S 7283   4.549   5.513   8.336  0.1216  0.4819 -0.9676
   79SLPC  C216 7284   4.496   5.310   8.351  0.8015 -0.1452  0.3857
   79SLPC  H16R 7285   4.600   5.273   8.360  0.3208 -1.6140  0.2662
   79SLPC  H16S 7286   4.434   5.239   8.292  0.4581 -1.1248  1.8729
   79SLPC  C217 7287   4.420   5.341   8.480  0.0872 -0.0212 -0.6959
   79SLPC  H17R 7288   4.387   5.248   8.532 -1.6663  1.0915  0.2836
   79SLPC  H17S 7289   4.321   5.387   8.459 -0.9489 -1.2056  1.2001
   79SLPC  C218 7290   4.502   5.427   8.580 -0.4046  0.5586  0.3040
   79SLPC  H18R 7291   4.466   5.422   8.685  0.4561 -0.5743  0.5607
   79SLPC  H18S 7292   4.502   5.533   8.547 -2.3163  0.1635 -1.1218
   79SLPC  H18T 7293   4.598   5.373   8.591 -1.6170 -1.8162 -0.1066
   79SLPC   C33 7294   4.563   6.091   7.115  0.6304 -0.0939  0.2005
   79SLPC   H3X 7295   4.657   6.090   7.175  1.5587 -0.0405 -1.1864
   79SLPC   H3Y 7296   4.548   5.982   7.100  0.3994 -0.1057  0.5165
   79SLPC   C34 7297   4.450   6.153   7.207 -0.0867  0.6715 -0.3289
   79SLPC   H4X 7298   4.365   6.155   7.136 -0.5220 -0.3324  0.1318
   79SLPC   H4Y 7299   4.467   6.257   7.240  0.0384  0.6386 -0.2871
   79SLPC   C35 7300   4.415   6.058   7.323 -0.7783  1.4647 -0.2656
   79SLPC   H5X 7301   4.432   5.951   7.300  0.2653  0.9771  2.3828
   79SLPC   H5Y 7302   4.313   6.080   7.363 -0.7609 -0.1417  0.7192
   79SLPC   C36 7303   4.524   6.082   7.433 -0.9076  0.7922 -0.2673
   79SLPC   H6X 7304   4.526   6.191   7.454 -0.9207  0.9598 -1.0859
   79SLPC   H6Y 7305   4.620   6.046   7.390 -0.9917 -0.9960  0.9323
   79SLPC   C37 7306   4.493   6.006   7.558 -0.1833 -0.2736 -0.1299
   79SLPC   H7X 7307   4.422   5.922   7.543 -0.8409  0.0744  0.8668
   79SLPC   H7Y 7308   4.438   6.077   7.624  0.0092 -0.7113  0.5113
   79SLPC   C38 7309   4.611   5.944   7.634  0.2835 -0.0538  0.0643
   79SLPC   H8X 7310   4.672   6.026   7.678  0.4752  0.8477 -1.7632
   79SLPC   H8Y 7311   4.683   5.898   7.564 -0.6005 -2.5321  0.6811
   79SLPC   C39 7312   4.561   5.849   7.742 -0.5778  0.6318 -0.7271
   79SLPC   H9X 7313   4.655   5.814   7.791 -1.5685  2.2279  2.6941
   79SLPC   H9Y 7314   4.496   5.764   7.713  1.8033 -2.0910  1.3364
   79SLPC  C310 7315   4.490   5.923   7.855 -0.7117  0.0675 -1.1316
   79SLPC  H10X 7316   4.382   5.944   7.839 -0.9742  2.5575  2.7905
   79SLPC  H10Y 7317   4.549   6.012   7.884  0.5034 -0.0557 -3.0717
   79SLPC  C311 7318   4.500   5.829   7.978 -0.3702  0.7228  0.5057
   79SLPC  H11X 7319   4.607   5.799   7.985  0.5667  2.4624 -3.7533
   79SLPC  H11Y 7320   4.447   5.732   7.966 -0.8607  0.8507  1.4676
   79SLPC  C312 7321   4.444   5.896   8.111  0.5963 -0.2765  0.5840
   79SLPC  H12X 7322   4.339   5.928   8.089  0.2758 -0.4999  1.7124
   79SLPC  H12Y 7323   4.513   5.980   8.132 -1.1374  1.4737 -0.3136
   79SLPC  C313 7324   4.433   5.802   8.232 -0.1144  0.6231 -0.1353
   79SLPC  H13X 7325   4.527   5.743   8.237 -0.6902 -0.5978 -2.3626
   79SLPC  H13Y 7326   4.352   5.730   8.208  0.0936  0.1933  0.4344
   79SLPC  C314 7327   4.387   5.864   8.367  0.1583  0.5083  0.4125
   79SLPC  H14X 7328   4.375   5.789   8.448 -0.1818 -1.1228 -1.0649
   79SLPC  H14Y 7329   4.288   5.913   8.353  0.4768  1.8257  2.4612
   79SLPC  C315 7330   4.478   5.982   8.420 -0.0845 -0.7642 -0.0738
   79SLPC  H15X 7331   4.471   6.061   8.342 -0.9511 -0.6139  0.1509
   79SLPC  H15Y 7332   4.580   5.937   8.426  2.4036  4.3442  1.6248
   79SLPC  C316 7333   4.440   6.023   8.567 -0.0776  0.0453 -0.2496
   79SLPC  H16X 7334   4.463   5.933   8.628  0.9224 -1.4544 -2.6785
   79SLPC  H16Y 7335   4.330   6.041   8.568  0.0775  1.0748  1.4058
   79SLPC  C317 7336   4.522   6.141   8.612  0.2514 -0.6022  0.0721
   79SLPC  H17X 7337   4.537   6.213   8.530 -0.2085  1.0580  1.3796
   79SLPC  H17Y 7338   4.618   6.092   8.639 -0.6613 -1.9014  1.1446
   79SLPC  C318 7339   4.469   6.218   8.733 -0.3822 -0.3400  0.8260
   79SLPC  H18X 7340   4.547   6.291   8.764 -2.1781  1.6286  0.8615
   79SLPC  H18Y 7341   4.440   6.150   8.817 -0.2853 -0.8420  0.4562
   79SLPC  H18Z 7342   4.382   6.277   8.700  0.8193  0.4043 -1.1595
   80SLPC     N 7343   1.826   4.268   6.470  0.2070 -0.1883 -0.6912
   80SLPC   C13 7344   1.885   4.369   6.570 -0.2777  0.0762 -0.7212
   80SLPC  H13A 7345   1.992   4.383   6.561 -0.1260 -0.0085  0.8050
   80SLPC  H13B 7346   1.832   4.463   6.570  1.5813  1.1796 -0.2827
   80SLPC  H13C 7347   1.878   4.327   6.669 -1.0116 -2.7787 -1.8736
   80SLPC   C14 7348   1.920   4.160   6.462  0.0090  0.3508  0.1965
   80SLPC  H14A 7349   2.024   4.183   6.450 -0.4030  1.1508 -2.6704
   80SLPC  H14B 7350   1.911   4.099   6.551  1.3655  0.0459  0.1460
   80SLPC  H14C 7351   1.897   4.099   6.375 -1.4688  2.2996 -0.8553
   80SLPC   C15 7352   1.827   4.332   6.340  0.7471 -0.4446  0.4716
   80SLPC  H15A 7353   1.787   4.432   6.342 -0.8956 -0.9574 -2.3797
   80SLPC  H15B 7354   1.928   4.346   6.305  1.3234 -1.1612  1.7533
   80SLPC  H15C 7355   1.770   4.293   6.258  0.2770  2.4020 -0.6633
   80SLPC   C12 7356   1.681   4.230   6.508  0.0047  0.2418  0.2666
   80SLPC  H12A 7357   1.634   4.159   6.442 -0.9493  0.6868  0.4438
   80SLPC  H12B 7358   1.623   4.320   6.495  3.5891  2.7540  0.3293
   80SLPC   C11 7359   1.660   4.164   6.642 -0.3019  0.0364 -1.1259
   80SLPC  H11A 7360   1.555   4.172   6.677  0.2345  2.4921  0.1410
   80SLPC  H11B 7361   1.705   4.217   6.729  0.3766 -3.7603  1.0893
   80SLPC     P 7362   1.645   3.901   6.603 -0.4784 -0.1646  0.0981
   80SLPC   O13 7363   1.637   3.894   6.459 -0.2666 -0.3351 -0.1586
   80SLPC   O14 7364   1.732   3.796   6.658  1.0078 -0.3270 -0.2337
   80SLPC   O12 7365   1.712   4.032   6.660  0.1740 -0.0245  0.1810
   80SLPC   O11 7366   1.502   3.898   6.674  0.3010 -0.3759  0.5791
   80SLPC    C1 7367   1.495   3.885   6.823 -0.5214 -0.1589  0.1591
   80SLPC    HA 7368   1.574   3.949   6.868  1.7599 -0.1532 -3.4732
   80SLPC    HB 7369   1.394   3.913   6.860 -0.0931 -0.3126  1.5005
   80SLPC    C2 7370   1.521   3.733   6.867  0.0942 -0.2399  0.5763
   80SLPC    HS 7371   1.540   3.670   6.778 -0.7632 -2.7905  2.1012
   80SLPC   O21 7372   1.396   3.676   6.924 -0.3873 -1.0128 -0.6901
   80SLPC   C21 7373   1.395   3.545   6.948  0.3261  0.6331  0.2614
   80SLPC   O22 7374   1.489   3.469   6.932  0.5281  0.1539 -0.0506
   80SLPC   C22 7375   1.268   3.498   7.010 -0.4417 -0.2668  0.5067
   80SLPC   H2R 7376   1.265   3.541   7.112  0.7020 -0.6975  0.7373
   80SLPC   H2S 7377   1.184   3.547   6.955  0.1064  0.0157 -0.1009
   80SLPC    C3 7378   1.636   3.722   6.967  0.2069  0.0553  0.2106
   80SLPC    HX 7379   1.732   3.748   6.916  0.5428 -1.3867  0.0553
   80SLPC    HY 7380   1.649   3.620   7.010 -1.6996 -0.2264  0.2034
   80SLPC   O31 7381   1.642   3.825   7.074 -0.2982  0.0286  0.1114
   80SLPC   C31 7382   1.578   3.799   7.186  0.2481 -0.1615 -0.0338
   80SLPC   O32 7383   1.503   3.707   7.207 -0.1133 -0.8749  0.6853
   80SLPC   C32 7384   1.616   3.919   7.278 -0.4058  0.1026 -0.2670
   80SLPC   H2X 7385   1.560   4.010   7.244  0.1529  0.4434 -0.2962
   80SLPC   H2Y 7386   1.724   3.939   7.258 -0.3631 -0.7774 -0.9977
   80SLPC   C23 7387   1.245   3.347   7.002  0.4943  0.4540  0.7742
   80SLPC   H3R 7388   1.321   3.289   7.058  1.5032  1.2953  0.3192
   80SLPC   H3S 7389   1.244   3.311   6.897  1.7417 -0.4675  1.0573
   80SLPC   C24 7390   1.113   3.294   7.057  0.4052  0.4974 -0.5737
   80SLPC   H4R 7391   1.113   3.183   7.048 -0.7966  0.2466  1.7631
   80SLPC   H4S 7392   1.029   3.333   6.996 -2.0531  0.1326  2.3367
   80SLPC   C25 7393   1.084   3.335   7.206 -0.3607  0.2466 -0.2575
   80SLPC   H5R 7394   1.034   3.433   7.195  0.6079  0.6861 -0.8007
   80SLPC   H5S 7395   1.177   3.348   7.266 -1.1117  2.1521  0.5633
   80SLPC   C26 7396   0.998   3.239   7.285  0.0381 -0.6846 -0.3274
   80SLPC   H6R 7397   1.056   3.145   7.275  0.5431 -0.3696 -0.4281
   80SLPC   H6S 7398   0.900   3.215   7.239  0.3154 -1.2761 -0.6096
   80SLPC   C27 7399   0.975   3.281   7.431  0.9329  0.1502 -0.0495
   80SLPC   H7R 7400   0.915   3.375   7.432 -0.0648 -0.4758  0.7048
   80SLPC   H7S 7401   1.076   3.293   7.476  0.0549  0.9971  1.7934
   80SLPC   C28 7402   0.884   3.177   7.505 -0.5570 -0.0913 -0.2168
   80SLPC   H8R 7403   0.935   3.078   7.508 -0.9289 -0.3149 -0.9501
   80SLPC   H8S 7404   0.808   3.161   7.425 -0.9309 -2.0308  0.4673
   80SLPC   C29 7405   0.827   3.237   7.637 -0.2673 -0.8678  0.1012
   80SLPC   H9R 7406   0.765   3.326   7.623 -2.6713 -2.5537 -0.7507
   80SLPC  C210 7407   0.870   3.201   7.761 -0.4233  0.4360 -0.0437
   80SLPC  H10R 7408   0.811   3.249   7.841 -1.1493 -1.5229  0.6636
   80SLPC  C211 7409   0.977   3.099   7.797  0.4451 -0.2153 -0.2991
   80SLPC  H11R 7410   0.985   3.028   7.711 -1.4085 -1.6889  0.6576
   80SLPC  H11S 7411   0.944   3.032   7.880 -1.1863  0.2991 -0.4952
   80SLPC  C212 7412   1.113   3.165   7.830 -0.0932 -0.3269 -0.3130
   80SLPC  H12R 7413   1.170   3.194   7.740  1.9622  0.4711  1.1685
   80SLPC  C213 7414   1.157   3.197   7.954 -0.1453 -0.4248  0.5234
   80SLPC  H13R 7415   1.259   3.238   7.957  0.2739 -1.2685 -1.3260
   80SLPC  C214 7416   1.091   3.174   8.090  0.6620  0.2427  0.9604
   80SLPC  H14R 7417   0.992   3.126   8.073  0.2189  1.7514 -1.1115
   80SLPC  H14S 7418   1.060   3.269   8.137 -2.3524 -0.7226  1.1531
   80SLPC  C215 7419   1.167   3.081   8.181 -1.0121 -0.0848  0.9262
   80SLPC  H15R 7420   1.269   3.118   8.204 -0.5940 -2.1559  2.7649
   80SLPC  H15S 7421   1.172   2.986   8.124  1.5668  1.0305 -0.8898
   80SLPC  C216 7422   1.106   3.045   8.319  0.0920  0.0887 -0.1116
   80SLPC  H16R 7423   1.111   3.133   8.386 -1.6248  0.6145 -0.6216
   80SLPC  H16S 7424   1.170   2.966   8.364  0.2285  0.0837 -0.3121
   80SLPC  C217 7425   0.963   2.988   8.314  0.8160 -0.1583  0.5258
   80SLPC  H17R 7426   0.962   2.903   8.242  2.6644 -0.4740  0.8048
   80SLPC  H17S 7427   0.896   3.070   8.283  0.2871 -0.7920 -0.0452
   80SLPC  C218 7428   0.916   2.943   8.449  0.0559  0.4337  0.0490
   80SLPC  H18R 7429   0.924   3.026   8.523  0.1304 -0.1525  0.7030
   80SLPC  H18S 7430   0.980   2.863   8.490  1.2473 -0.3420 -3.0148
   80SLPC  H18T 7431   0.809   2.912   8.441  0.2587 -0.3915  0.4903
   80SLPC   C33 7432   1.586   3.893   7.429 -0.0011 -0.8343 -0.0043
   80SLPC   H3X 7433   1.659   3.955   7.486 -0.5095 -1.1540  1.0322
   80SLPC   H3Y 7434   1.606   3.787   7.454 -1.2359 -1.2092 -0.5163
   80SLPC   C34 7435   1.446   3.926   7.482  0.4588 -0.0356  0.1607
   80SLPC   H4X 7436   1.381   3.854   7.428 -0.1357  2.9378 -3.4227
   80SLPC   H4Y 7437   1.417   4.026   7.446  1.5145  0.0226 -0.5746
   80SLPC   C35 7438   1.434   3.916   7.634  0.0434  0.3794 -0.3107
   80SLPC   H5X 7439   1.445   3.817   7.682  0.3136  1.3548  1.7373
   80SLPC   H5Y 7440   1.336   3.965   7.653  0.8702  2.3419 -0.8207
   80SLPC   C36 7441   1.524   4.009   7.726  0.6650  0.3500  0.2970
   80SLPC   H6X 7442   1.504   4.116   7.702 -4.4119 -0.2228  0.7009
   80SLPC   H6Y 7443   1.631   3.982   7.722  0.1593 -1.6112 -2.0606
   80SLPC   C37 7444   1.485   3.999   7.877  0.0944  0.1580 -0.4832
   80SLPC   H7X 7445   1.384   3.957   7.893 -0.1997  0.7433 -0.7726
   80SLPC   H7Y 7446   1.484   4.105   7.910 -0.4656  0.8675 -2.6050
   80SLPC   C38 7447   1.574   3.904   7.960  0.3326  0.3666 -0.2381
   80SLPC   H8X 7448   1.676   3.941   7.983  0.1210 -0.0871  1.6428
   80SLPC   H8Y 7449   1.581   3.809   7.903 -0.5066  0.7992 -1.0893
   80SLPC   C39 7450   1.513   3.856   8.098 -0.5020 -0.2466  0.2882
   80SLPC   H9X 7451   1.426   3.788   8.082  0.9588 -2.0926 -0.1567
   80SLPC   H9Y 7452   1.476   3.951   8.142 -0.6849 -0.1013 -0.1700
   80SLPC  C310 7453   1.617   3.799   8.191 -0.4635 -0.1195  1.0532
   80SLPC  H10X 7454   1.704   3.755   8.138 -2.0136 -0.0789 -1.7176
   80SLPC  H10Y 7455   1.560   3.719   8.242 -1.9775 -1.1997 -2.1170
   80SLPC  C311 7456   1.663   3.894   8.303  0.2850 -0.2130 -0.0048
   80SLPC  H11X 7457   1.574   3.927   8.361 -0.8587 -0.6490 -1.4465
   80SLPC  H11Y 7458   1.725   3.976   8.260  0.0907  0.3236  0.7176
   80SLPC  C312 7459   1.726   3.818   8.412  0.1464  0.4275 -0.1939
   80SLPC  H12X 7460   1.787   3.742   8.359 -1.6243 -3.7582  3.1661
   80SLPC  H12Y 7461   1.655   3.750   8.464  0.3317  0.9085  0.7047
   80SLPC  C313 7462   1.811   3.913   8.503 -1.0225 -0.4273  0.8379
   80SLPC  H13X 7463   1.738   3.991   8.534 -0.9248 -0.1290  0.3362
   80SLPC  H13Y 7464   1.891   3.962   8.443 -0.8608  0.3677  1.6804
   80SLPC  C314 7465   1.850   3.836   8.629 -0.0283  0.0490  0.1358
   80SLPC  H14X 7466   1.757   3.782   8.658  0.6073 -1.4549 -0.5047
   80SLPC  H14Y 7467   1.883   3.908   8.706  0.4302  0.3225 -0.3126
   80SLPC  C315 7468   1.974   3.747   8.606 -0.3457  0.3668 -0.2108
   80SLPC  H15X 7469   1.968   3.676   8.521 -1.4731 -2.6415  2.1749
   80SLPC  H15Y 7470   1.992   3.672   8.687 -0.1536  0.0273 -0.5653
   80SLPC  C316 7471   2.108   3.826   8.599 -0.2039  0.0586  0.5495
   80SLPC  H16X 7472   2.124   3.896   8.684  0.2254 -0.1600  0.6501
   80SLPC  H16Y 7473   2.100   3.877   8.501 -0.7398 -0.9698  0.0394
   80SLPC  C317 7474   2.232   3.747   8.577  0.1151 -0.5529  0.5390
   80SLPC  H17X 7475   2.227   3.677   8.491 -0.0481 -0.1451  0.2162
   80SLPC  H17Y 7476   2.243   3.686   8.670 -0.8077  1.9312  2.3693
   80SLPC  C318 7477   2.358   3.827   8.567 -0.4703  0.3232 -0.1543
   80SLPC  H18X 7478   2.379   3.884   8.660 -1.8627  0.6420 -0.0116
   80SLPC  H18Y 7479   2.330   3.903   8.490 -3.1270 -0.4720 -0.0730
   80SLPC  H18Z 7480   2.444   3.770   8.527 -0.1157 -1.9390  3.3955
   81SAPS     N 7481   4.929   4.701  11.184 -0.2358 -0.0304 -0.1768
   81SAPS   HN1 7482   4.968   4.630  11.119  1.8042 -0.5252  1.5081
   81SAPS   HN2 7483   4.970   4.691  11.279 -0.4423  1.0852  0.0466
   81SAPS   HN3 7484   4.826   4.697  11.199 -0.2134  1.4257  0.5207
   81SAPS   C12 7485   4.970   4.840  11.140  0.2852 -0.0210  0.0951
   81SAPS  H12A 7486   4.924   4.855  11.044 -1.4070  1.3344  1.0630
   81SAPS   C13 7487   4.919   4.952  11.238  0.0141 -0.7923  0.5564
   81SAPS  O13A 7488   4.879   4.918  11.351  0.0316  0.2676  0.5078
   81SAPS  O13B 7489   4.927   5.072  11.204  0.5337 -0.0799  0.2980
   81SAPS   C11 7490   5.125   4.843  11.143  0.1653 -0.3995  0.5066
   81SAPS  H11A 7491   5.159   4.840  11.249  0.1803 -0.6000  0.4976
   81SAPS  H11B 7492   5.159   4.937  11.095 -1.7473  0.5393  0.9221
   81SAPS     P 7493   5.334   4.727  11.040 -0.2847  0.1662 -0.2136
   81SAPS   O13 7494   5.407   4.812  11.141 -0.6383  0.1355  0.2083
   81SAPS   O14 7495   5.374   4.584  11.042  0.9077  0.7090 -0.3086
   81SAPS   O12 7496   5.178   4.732  11.078 -0.5561 -0.0753  0.5601
   81SAPS   O11 7497   5.356   4.799  10.904 -0.0569 -0.3028 -0.3679
   81SAPS    C1 7498   5.331   4.716  10.791  0.5276 -0.5822 -0.3282
   81SAPS    HA 7499   5.400   4.629  10.793  2.3012  0.7396  1.8191
   81SAPS    HB 7500   5.225   4.684  10.797  0.7355 -1.0029  2.5638
   81SAPS    C2 7501   5.356   4.798  10.669 -0.2679 -0.3848  0.4404
   81SAPS    HS 7502   5.348   4.732  10.580 -1.2278  1.5742 -0.9971
   81SAPS   O21 7503   5.489   4.869  10.677 -0.3821 -0.4440 -0.9471
   81SAPS   C21 7504   5.550   4.895  10.564  0.3621  0.1556  0.1722
   81SAPS   O22 7505   5.507   4.857  10.457 -0.7245  0.3743  0.7038
   81SAPS   C22 7506   5.663   4.992  10.579  0.1851 -0.4788 -0.3032
   81SAPS   H2R 7507   5.658   5.063  10.494  1.5831 -1.3194 -1.1140
   81SAPS   H2S 7508   5.649   5.047  10.675  0.4592  1.1586 -1.1591
   81SAPS    C3 7509   5.247   4.903  10.644  0.3509  0.3183 -0.2204
   81SAPS    HX 7510   5.247   4.966  10.736 -0.2126  0.6999 -0.4764
   81SAPS    HY 7511   5.145   4.860  10.634  0.3944  0.2343 -0.3033
   81SAPS   O31 7512   5.265   4.989  10.529  0.5165 -0.2658 -0.4245
   81SAPS   C31 7513   5.201   4.957  10.414 -0.2190  0.2075  0.3102
   81SAPS   O32 7514   5.123   4.866  10.393 -0.4001  0.3539 -0.3583
   81SAPS   C32 7515   5.244   5.045  10.301  0.3556  0.2662  0.4461
   81SAPS   H2X 7516   5.355   5.054  10.298  0.3539  0.2127 -1.5727
   81SAPS   H2Y 7517   5.196   5.145  10.304 -1.8519 -0.4569 -3.5345
   81SAPS   C23 7518   5.797   4.926  10.597  0.5729  0.0266 -0.2236
   81SAPS   H3R 7519   5.785   4.832  10.655 -1.1300 -0.0159 -0.5949
   81SAPS   H3S 7520   5.867   4.993  10.652 -0.0482  0.2384  0.3297
   81SAPS   C24 7521   5.864   4.888  10.466 -0.3379 -0.1195  0.0081
   81SAPS   H4R 7522   5.796   4.838  10.393 -0.5116  1.1128 -0.7115
   81SAPS   H4S 7523   5.935   4.806  10.486  0.4790  0.2665 -1.1732
   81SAPS   C25 7524   5.950   4.991  10.396 -0.2215 -0.2291 -0.5860
   81SAPS   H5R 7525   6.022   5.042  10.461  0.8394 -1.1127 -1.0174
   81SAPS   C26 7526   5.961   5.011  10.259  0.5868  0.4877 -0.1156
   81SAPS   H6R 7527   6.028   5.093  10.230  2.6321 -0.7546  0.8276
   81SAPS   C27 7528   5.877   4.955  10.145 -0.4222  0.7401  0.0701
   81SAPS   H7R 7529   5.862   4.846  10.162  0.6292  0.6042  0.2124
   81SAPS   H7S 7530   5.943   4.953  10.055 -0.1668  0.5783  0.2597
   81SAPS   C28 7531   5.748   5.032  10.131 -0.1652 -0.2704 -0.0201
   81SAPS   H8R 7532   5.716   5.105  10.207 -2.0694  0.2950 -1.3109
   81SAPS   C29 7533   5.672   5.037  10.015 -0.5794  0.0996  0.3268
   81SAPS   H9R 7534   5.588   5.107  10.005 -0.6777 -0.2029 -1.2693
   81SAPS  C210 7535   5.693   4.962   9.881  0.1675  0.3615 -0.9583
   81SAPS  H10R 7536   5.608   4.983   9.812 -0.3311  1.0508 -0.1539
   81SAPS  H10S 7537   5.686   4.853   9.902 -0.6135  0.6555  0.3957
   81SAPS  C211 7538   5.821   4.988   9.810 -0.7749 -0.0819  0.0880
   81SAPS  H11R 7539   5.890   5.037   9.880 -1.9073  1.1727  0.3666
   81SAPS  C212 7540   5.858   4.961   9.688 -0.5989  0.5042  0.1239
   81SAPS  H12R 7541   5.943   5.020   9.649 -0.7920 -1.3220 -3.4703
   81SAPS  C213 7542   5.775   4.903   9.572 -0.4954 -0.7352  0.5515
   81SAPS  H13R 7543   5.679   4.849   9.591 -0.2189 -2.0083 -1.4395
   81SAPS  H13S 7544   5.835   4.822   9.527 -0.2898 -0.2998  0.0396
   81SAPS  C214 7545   5.739   5.008   9.466 -0.5623  0.0358  0.0697
   81SAPS  H14R 7546   5.713   5.110   9.499  0.8606  0.0814  1.1804
   81SAPS  C215 7547   5.737   4.988   9.331 -0.2358  0.5032 -0.3171
   81SAPS  H15R 7548   5.726   5.070   9.259  2.3513 -2.4562 -4.5465
   81SAPS  C216 7549   5.765   4.864   9.248 -0.4613  0.0200 -0.2256
   81SAPS  H16R 7550   5.672   4.841   9.191  0.5422  0.6431 -2.2247
   81SAPS  H16S 7551   5.787   4.772   9.306 -0.2188  0.5634  0.5533
   81SAPS  C217 7552   5.872   4.888   9.141  0.3518  0.1818  0.2755
   81SAPS  H17R 7553   5.971   4.894   9.191  0.8136 -2.6862 -0.1252
   81SAPS  H17S 7554   5.849   4.989   9.100  2.1552  0.6385  0.3273
   81SAPS  C218 7555   5.884   4.783   9.035 -0.5582 -0.4443  0.7047
   81SAPS  H18R 7556   5.874   4.686   9.088  0.3209  0.2067  2.1267
   81SAPS  H18S 7557   5.986   4.789   8.989 -1.6388  1.5837 -1.6572
   81SAPS  C219 7558   5.785   4.798   8.919 -0.0906 -0.5238 -0.4734
   81SAPS  H19R 7559   5.783   4.908   8.908  2.8631 -0.2891  0.4737
   81SAPS  H19S 7560   5.683   4.777   8.957 -1.5305  2.1738 -2.5367
   81SAPS  C220 7561   5.806   4.727   8.787  0.3501 -0.2838  1.0916
   81SAPS  H20R 7562   5.780   4.619   8.787 -0.4105 -0.2110 -2.1442
   81SAPS  H20S 7563   5.914   4.748   8.769  0.6201 -1.9692  0.6490
   81SAPS  H20T 7564   5.764   4.770   8.694  2.2634 -0.3713  0.1295
   81SAPS   C33 7565   5.203   4.982  10.155  0.1198 -0.4186 -0.8141
   81SAPS   H3X 7566   5.210   5.066  10.083 -1.8606  0.5188  0.0039
   81SAPS   H3Y 7567   5.099   4.946  10.171  0.3460 -0.3880  0.9668
   81SAPS   C34 7568   5.301   4.866  10.117 -0.1173  1.0469  0.0991
   81SAPS   H4X 7569   5.292   4.791  10.198 -2.1598  1.6516  0.4815
   81SAPS   H4Y 7570   5.405   4.905  10.127 -0.8690  2.7935  1.8373
   81SAPS   C35 7571   5.260   4.799   9.985 -0.2186 -0.3623 -0.0880
   81SAPS   H5X 7572   5.158   4.757   9.980 -0.1464 -0.5692  0.1631
   81SAPS   H5Y 7573   5.333   4.718   9.964 -0.0662 -0.7446  1.7562
   81SAPS   C36 7574   5.264   4.896   9.864  0.1183 -0.4507  0.2930
   81SAPS   H6X 7575   5.364   4.943   9.847 -0.5135  0.0905 -2.3347
   81SAPS   H6Y 7576   5.195   4.981   9.886  0.6933  0.6827 -1.9546
   81SAPS   C37 7577   5.237   4.830   9.732  0.2722  0.4539  0.0914
   81SAPS   H7X 7578   5.183   4.905   9.669  2.0683  2.2380  0.5753
   81SAPS   H7Y 7579   5.158   4.754   9.749 -0.0967  1.1061  1.4156
   81SAPS   C38 7580   5.360   4.791   9.646  0.2115 -0.2240 -0.4743
   81SAPS   H8X 7581   5.426   4.749   9.724 -0.2719 -1.7206 -0.8326
   81SAPS   H8Y 7582   5.409   4.877   9.597 -0.0582 -0.2769 -0.8436
   81SAPS   C39 7583   5.332   4.688   9.537  0.5056  0.1710 -0.1310
   81SAPS   H9X 7584   5.265   4.610   9.577  1.0792 -0.6336 -0.6904
   81SAPS   H9Y 7585   5.423   4.640   9.495 -0.9950 -0.5161 -2.8551
   81SAPS  C310 7586   5.260   4.749   9.413  0.0702 -0.5102  0.0836
   81SAPS  H10X 7587   5.312   4.833   9.361 -2.7877  0.6396 -1.1449
   81SAPS  H10Y 7588   5.170   4.800   9.454 -0.2193 -1.7771  1.0667
   81SAPS  C311 7589   5.212   4.643   9.320  0.0744  0.1040 -0.0714
   81SAPS  H11X 7590   5.189   4.550   9.376 -0.5683 -0.6622 -1.5414
   81SAPS  H11Y 7591   5.294   4.616   9.249 -1.0638 -3.3541 -0.2589
   81SAPS  C312 7592   5.085   4.687   9.245  0.2350 -0.7867 -0.0464
   81SAPS  H12X 7593   5.108   4.787   9.201 -1.6896 -0.2764  0.0343
   81SAPS  H12Y 7594   5.008   4.691   9.324  1.5326  0.9091  1.2264
   81SAPS  C313 7595   5.062   4.603   9.116  0.2759 -0.0326  0.6603
   81SAPS  H13X 7596   5.011   4.508   9.145  0.6215 -0.5543 -0.4191
   81SAPS  H13Y 7597   5.161   4.578   9.072 -0.8034 -0.9076 -1.4157
   81SAPS  C314 7598   4.959   4.668   9.023 -0.2892 -0.1294 -0.0234
   81SAPS  H14X 7599   4.992   4.772   9.001  0.7057 -0.0719  1.5958
   81SAPS  H14Y 7600   4.865   4.680   9.082  0.3620  0.1420  0.9765
   81SAPS  C315 7601   4.937   4.570   8.911 -0.2821 -0.8729 -0.9749
   81SAPS  H15X 7602   4.887   4.476   8.943  0.2047 -1.8978 -3.0201
   81SAPS  H15Y 7603   5.039   4.550   8.873 -0.2395 -1.7901 -0.3963
   81SAPS  C316 7604   4.857   4.630   8.792 -0.6255  0.0374 -0.4257
   81SAPS  H16X 7605   4.858   4.557   8.709 -0.3736  0.6465 -0.9692
   81SAPS  H16Y 7606   4.906   4.723   8.756 -0.6138 -0.4324 -1.6371
   81SAPS  C317 7607   4.707   4.663   8.822 -0.0342 -0.1755  0.1843
   81SAPS  H17X 7608   4.706   4.718   8.918 -1.6890 -0.2552  0.2355
   81SAPS  H17Y 7609   4.666   4.560   8.831  0.6024 -0.3510  1.3753
   81SAPS  C318 7610   4.636   4.732   8.706 -0.4158 -0.5000 -0.1843
   81SAPS  H18X 7611   4.675   4.835   8.694  0.4157 -0.7907 -0.0583
   81SAPS  H18Y 7612   4.528   4.746   8.728  0.5400  1.8867  3.8371
   81SAPS  H18Z 7613   4.654   4.681   8.609 -2.6977  0.2671 -1.0739
   82SAPS     N 7614   0.981   4.390  11.223 -0.2863 -0.1792  0.3154
   82SAPS   HN1 7615   0.903   4.452  11.255 -0.8046 -0.7126  0.1100
   82SAPS   HN2 7616   0.970   4.297  11.268  0.0589 -0.7461 -0.7517
   82SAPS   HN3 7617   1.068   4.444  11.243 -0.1710  0.0710 -0.7858
   82SAPS   C12 7618   0.988   4.390  11.077  0.4207  0.5322 -0.1369
   82SAPS  H12A 7619   0.897   4.361  11.026 -0.8217 -0.0836  2.2570
   82SAPS   C13 7620   1.021   4.531  11.031 -1.0238  0.0690 -0.0933
   82SAPS  O13A 7621   1.063   4.618  11.109  0.1363  0.2777 -0.0348
   82SAPS  O13B 7622   0.994   4.551  10.907  0.1521 -0.4142 -0.2591
   82SAPS   C11 7623   1.108   4.297  11.046 -0.0457 -0.2975 -0.4448
   82SAPS  H11A 7624   1.189   4.360  11.087  0.8679 -1.5406 -0.3067
   82SAPS  H11B 7625   1.117   4.301  10.935  0.3869 -1.0866 -0.4421
   82SAPS     P 7626   1.237   4.110  11.172 -0.5255 -0.4422 -0.2087
   82SAPS   O13 7627   1.250   4.197  11.288  0.2417 -0.5629 -0.5625
   82SAPS   O14 7628   1.220   3.964  11.193  0.1289  0.4337  0.5162
   82SAPS   O12 7629   1.102   4.159  11.087 -0.7099 -0.6232 -0.0439
   82SAPS   O11 7630   1.358   4.136  11.072 -0.0275 -0.4402  0.5545
   82SAPS    C1 7631   1.411   4.030  10.991  0.1151 -0.2117 -0.5103
   82SAPS    HA 7632   1.515   4.014  11.027 -0.2590  0.5069  0.9794
   82SAPS    HB 7633   1.357   3.934  10.981  0.7557 -0.5155 -1.1383
   82SAPS    C2 7634   1.429   4.088  10.850 -0.0429 -0.2404  0.0262
   82SAPS    HS 7635   1.334   4.074  10.794 -0.0774  0.1874 -0.0277
   82SAPS   O21 7636   1.551   4.036  10.791  0.2303 -0.0229 -0.0823
   82SAPS   C21 7637   1.537   3.976  10.677 -0.0866 -0.8965  0.7870
   82SAPS   O22 7638   1.437   3.971  10.606  0.4144 -0.1828  0.3374
   82SAPS   C22 7639   1.673   3.916  10.646 -0.6686 -0.4926 -0.3248
   82SAPS   H2R 7640   1.752   3.991  10.669 -0.1747 -1.2136  0.3475
   82SAPS   H2S 7641   1.678   3.835  10.722 -0.6017 -1.9456 -1.8107
   82SAPS    C3 7642   1.441   4.243  10.851  0.0124  0.7800 -0.7713
   82SAPS    HX 7643   1.541   4.266  10.893 -0.0120  1.7558 -1.2329
   82SAPS    HY 7644   1.365   4.294  10.914  0.5884  1.2981 -0.4795
   82SAPS   O31 7645   1.440   4.296  10.710 -0.7393  0.0308 -0.1870
   82SAPS   C31 7646   1.321   4.294  10.652 -0.0040 -0.5075 -0.2154
   82SAPS   O32 7647   1.215   4.265  10.705  0.4024 -0.2953 -0.5290
   82SAPS   C32 7648   1.329   4.320  10.505 -0.2353  0.8215  0.4010
   82SAPS   H2X 7649   1.360   4.225  10.456 -0.0532  1.2504 -0.3295
   82SAPS   H2Y 7650   1.413   4.393  10.501 -0.5898  1.2026 -0.2510
   82SAPS   C23 7651   1.690   3.865  10.503 -0.2157 -0.1043 -0.3297
   82SAPS   H3R 7652   1.672   3.948  10.431  0.6092 -0.3774 -0.8639
   82SAPS   H3S 7653   1.612   3.785  10.504 -1.1591  0.8073  0.5318
   82SAPS   C24 7654   1.818   3.803  10.455  0.4924  0.6432 -0.7114
   82SAPS   H4R 7655   1.793   3.748  10.361  1.0812  1.1914 -1.1994
   82SAPS   H4S 7656   1.848   3.719  10.522  0.0872 -0.2722 -1.6369
   82SAPS   C25 7657   1.935   3.893  10.430 -0.4691  0.1050 -0.7134
   82SAPS   H5R 7658   1.987   3.915  10.524 -1.7325  1.4102 -0.2814
   82SAPS   C26 7659   1.979   3.950  10.318 -0.7515 -0.3222  0.1758
   82SAPS   H6R 7660   2.060   4.022  10.337 -0.0024 -1.4517  1.4276
   82SAPS   C27 7661   1.920   3.941  10.174 -0.1983  0.8782 -0.2527
   82SAPS   H7R 7662   1.950   4.016  10.097  1.8361  0.3971 -0.0054
   82SAPS   H7S 7663   1.810   3.953  10.181 -0.6018 -1.7005 -1.1507
   82SAPS   C28 7664   1.926   3.799  10.120 -0.6360 -0.0007 -0.2397
   82SAPS   H8R 7665   1.913   3.709  10.181 -1.2834  0.3177  0.1052
   82SAPS   C29 7666   1.979   3.771  10.005  0.3625  0.4689 -0.5681
   82SAPS   H9R 7667   1.982   3.666   9.972  0.7530  0.8990 -1.9940
   82SAPS  C210 7668   2.050   3.870   9.906 -0.6112  0.2677 -1.1164
   82SAPS  H10R 7669   2.142   3.819   9.870 -0.7417 -0.7046 -0.1287
   82SAPS  H10S 7670   2.086   3.958   9.962  0.1165 -1.3765  1.1662
   82SAPS  C211 7671   1.961   3.920   9.795  0.4539  0.5796 -0.2314
   82SAPS  H11R 7672   1.918   4.016   9.826 -0.3058  0.0783  0.3187
   82SAPS  C212 7673   1.950   3.867   9.670  0.3165  0.2182  0.5819
   82SAPS  H12R 7674   1.899   3.926   9.592  1.1925 -1.5195 -1.4234
   82SAPS  C213 7675   2.016   3.743   9.608 -0.3848 -0.2001 -0.7954
   82SAPS  H13R 7676   1.929   3.685   9.570 -1.8326 -1.4030  3.6812
   82SAPS  H13S 7677   2.064   3.677   9.684 -0.6934 -1.7270 -1.8783
   82SAPS  C214 7678   2.121   3.775   9.504 -0.5481 -0.3443  0.2065
   82SAPS  H14R 7679   2.220   3.809   9.539 -1.5229  0.8239  1.9585
   82SAPS  C215 7680   2.109   3.767   9.369  0.3876 -0.1798 -0.1808
   82SAPS  H15R 7681   2.192   3.801   9.306 -0.2311  0.4463 -0.6780
   82SAPS  C216 7682   1.985   3.732   9.295 -0.2965  0.4923  0.0386
   82SAPS  H16R 7683   1.959   3.814   9.224 -1.9906  2.6117  2.8985
   82SAPS  H16S 7684   1.894   3.729   9.359 -0.4069 -1.7026 -0.1635
   82SAPS  C217 7685   1.996   3.601   9.214  0.4956 -0.0592 -0.2969
   82SAPS  H17R 7686   2.067   3.610   9.129 -0.6063  0.4543 -1.1813
   82SAPS  H17S 7687   1.902   3.579   9.158  1.0855 -3.6276 -0.1439
   82SAPS  C218 7688   2.013   3.476   9.300  0.5272 -0.0259  0.3242
   82SAPS  H18R 7689   1.941   3.455   9.382  1.3021 -2.1941  0.5315
   82SAPS  H18S 7690   2.120   3.480   9.330  0.1545 -1.1715  1.9143
   82SAPS  C219 7691   1.987   3.351   9.221 -0.0133 -0.1135 -0.1421
   82SAPS  H19R 7692   1.879   3.345   9.195  0.0352 -1.7970 -0.0795
   82SAPS  H19S 7693   1.995   3.256   9.278 -1.0852 -0.1814 -0.0925
   82SAPS  C220 7694   2.073   3.340   9.091  0.8205  0.0999  0.0286
   82SAPS  H20R 7695   2.047   3.248   9.034 -1.1131  1.8093 -2.0103
   82SAPS  H20S 7696   2.182   3.323   9.104  1.3873  2.9274 -0.5490
   82SAPS  H20T 7697   2.053   3.419   9.017  0.1007  0.7513  0.8982
   82SAPS   C33 7698   1.193   4.359  10.450 -0.3568 -0.1828 -0.3692
   82SAPS   H3X 7699   1.150   4.452  10.491  0.7298 -0.3449  1.2101
   82SAPS   H3Y 7700   1.121   4.275  10.463 -0.3134 -0.4676 -1.7968
   82SAPS   C34 7701   1.206   4.375  10.294 -0.4002 -0.5719 -0.3160
   82SAPS   H4X 7702   1.261   4.289  10.249 -0.4326 -0.0545 -1.3807
   82SAPS   H4Y 7703   1.271   4.462  10.275 -0.3197 -0.5143  0.2155
   82SAPS   C35 7704   1.079   4.402  10.210  0.3283  0.0706  1.2709
   82SAPS   H5X 7705   1.021   4.487  10.254 -0.5722 -0.4790  1.1673
   82SAPS   H5Y 7706   1.012   4.314  10.209 -2.0510  1.7690  1.8038
   82SAPS   C36 7707   1.108   4.436  10.063 -0.0459 -0.0498  0.6525
   82SAPS   H6X 7708   1.190   4.510  10.055 -1.5441  1.8030  1.6758
   82SAPS   H6Y 7709   1.024   4.493  10.019 -1.5511 -0.6393  2.5976
   82SAPS   C37 7710   1.150   4.302   9.991  0.0346  0.1508  0.3152
   82SAPS   H7X 7711   1.064   4.235  10.011 -0.2798  0.9180  1.6224
   82SAPS   H7Y 7712   1.239   4.249  10.030  0.7096  0.3472 -0.8850
   82SAPS   C38 7713   1.168   4.323   9.845 -0.2562  0.2563  0.0877
   82SAPS   H8X 7714   1.263   4.378   9.830  0.2738 -0.7440 -0.3664
   82SAPS   H8Y 7715   1.086   4.387   9.806 -1.0361  0.7577  2.3810
   82SAPS   C39 7716   1.173   4.188   9.767  0.3371  0.0693 -0.1928
   82SAPS   H9X 7717   1.093   4.121   9.806 -0.0063  0.6777  0.1662
   82SAPS   H9Y 7718   1.273   4.143   9.785 -0.1701 -1.2425 -0.4810
   82SAPS  C310 7719   1.149   4.211   9.618  0.3167  1.0913  0.1194
   82SAPS  H10X 7720   1.218   4.290   9.580 -0.0606  0.9309 -0.9335
   82SAPS  H10Y 7721   1.042   4.241   9.610 -1.0534 -3.1834 -0.1068
   82SAPS  C311 7722   1.178   4.089   9.525 -0.1895  0.3269 -0.2682
   82SAPS  H11X 7723   1.110   4.005   9.551  1.5367 -0.7255  1.0033
   82SAPS  H11Y 7724   1.284   4.066   9.545  0.0662 -0.4144 -2.2150
   82SAPS  C312 7725   1.173   4.116   9.374  0.7358 -0.5908 -0.0878
   82SAPS  H12X 7726   1.215   4.215   9.344 -1.9334  0.0184 -2.1588
   82SAPS  H12Y 7727   1.071   4.133   9.335  0.2240  2.5097  2.2036
   82SAPS  C313 7728   1.253   4.018   9.294 -0.3197 -0.1808 -0.4615
   82SAPS  H13X 7729   1.210   3.916   9.303  0.1062 -0.2523  0.9610
   82SAPS  H13Y 7730   1.350   4.013   9.346  0.2552  0.9341 -1.3811
   82SAPS  C314 7731   1.279   4.039   9.142 -1.1325 -0.0862 -0.0851
   82SAPS  H14X 7732   1.337   4.134   9.136  0.1675 -0.7980  0.5947
   82SAPS  H14Y 7733   1.181   4.059   9.094 -0.9184  0.7502 -0.1828
   82SAPS  C315 7734   1.359   3.927   9.071 -0.1466 -0.2401  1.1498
   82SAPS  H15X 7735   1.294   3.852   9.020  0.2043 -1.0245  1.8273
   82SAPS  H15Y 7736   1.416   3.876   9.152  1.0405  1.3080  1.3417
   82SAPS  C316 7737   1.465   3.988   8.974 -0.0234 -0.5660 -0.0821
   82SAPS  H16X 7738   1.518   4.064   9.035  0.3674 -0.3187 -0.7196
   82SAPS  H16Y 7739   1.413   4.047   8.896 -0.1883  1.3419  1.3972
   82SAPS  C317 7740   1.559   3.879   8.910 -0.8543 -0.0926 -0.0583
   82SAPS  H17X 7741   1.594   3.934   8.820 -0.5540  4.0664  2.3225
   82SAPS  H17Y 7742   1.492   3.797   8.877 -1.7732 -0.4638  2.4749
   82SAPS  C318 7743   1.682   3.830   8.980  0.4116  0.3574  0.4319
   82SAPS  H18X 7744   1.747   3.912   9.017 -0.4883  1.2567  0.0654
   82SAPS  H18Y 7745   1.744   3.756   8.924 -2.3969 -0.6088 -1.6305
   82SAPS  H18Z 7746   1.655   3.772   9.071 -2.1083 -0.9407 -1.0260
   83SAPS     N 7747   6.652   1.239  11.413  0.3644 -0.5585  0.1463
   83SAPS   HN1 7748   6.666   1.338  11.385  0.7179 -0.9640 -1.2234
   83SAPS   HN2 7749   6.556   1.210  11.384  0.5118  0.9569 -2.1854
   83SAPS   HN3 7750   6.662   1.219  11.514  1.5512  0.1128  0.1839
   83SAPS   C12 7751   6.736   1.134  11.345 -0.4949 -0.6650 -1.0118
   83SAPS  H12A 7752   6.828   1.138  11.401 -1.6721  1.4537  0.9615
   83SAPS   C13 7753   6.666   0.996  11.338  0.7945 -0.5064 -0.1050
   83SAPS  O13A 7754   6.556   0.983  11.397  0.2931  0.7726  0.4147
   83SAPS  O13B 7755   6.724   0.904  11.277 -0.0914  0.0775 -0.3109
   83SAPS   C11 7756   6.774   1.185  11.202  0.3424  0.0225 -0.3384
   83SAPS  H11A 7757   6.685   1.223  11.147  0.2687 -1.7545 -1.5405
   83SAPS  H11B 7758   6.813   1.099  11.143  1.5607  1.8345 -2.3269
   83SAPS     P 7759   7.027   1.276  11.231 -0.2863 -0.1896  0.0456
   83SAPS   O13 7760   7.078   1.377  11.325  0.2336  0.3320  0.3777
   83SAPS   O14 7761   7.055   1.136  11.254 -0.4839  0.0808  0.4519
   83SAPS   O12 7762   6.867   1.289  11.215  0.0760  0.2807 -0.4963
   83SAPS   O11 7763   7.079   1.297  11.086 -0.2930  0.0882 -0.0437
   83SAPS    C1 7764   7.020   1.374  10.981  0.5280  0.3470  0.1902
   83SAPS    HA 7765   6.966   1.453  11.038  2.0806 -1.2665  4.3092
   83SAPS    HB 7766   7.094   1.412  10.907  1.9181 -1.4084  0.6022
   83SAPS    C2 7767   6.925   1.297  10.889  0.3562  0.5006 -0.2672
   83SAPS    HS 7768   6.855   1.245  10.957  1.2274 -0.3782 -0.0219
   83SAPS   O21 7769   7.001   1.207  10.811 -0.5896 -0.1361  0.5803
   83SAPS   C21 7770   6.939   1.106  10.757  1.0824  0.1312  0.8580
   83SAPS   O22 7771   6.821   1.082  10.774  0.6191 -0.2026 -0.2251
   83SAPS   C22 7772   7.030   1.039  10.656 -0.2841  0.2829  0.7907
   83SAPS   H2R 7773   7.132   1.029  10.699 -0.0172  1.1220  0.3736
   83SAPS   H2S 7774   6.997   0.937  10.626  2.8328 -0.9709  1.2044
   83SAPS    C3 7775   6.862   1.391  10.789  0.1058  0.0122  0.1903
   83SAPS    HX 7776   6.814   1.478  10.838 -0.6779  0.9494 -2.1013
   83SAPS    HY 7777   6.779   1.345  10.730  0.1750  1.5700 -1.2131
   83SAPS   O31 7778   6.963   1.429  10.696 -0.1013  0.2267 -0.5220
   83SAPS   C31 7779   7.002   1.555  10.702  0.2281 -1.2226 -0.1519
   83SAPS   O32 7780   6.951   1.648  10.763 -0.1424 -0.0873  0.5987
   83SAPS   C32 7781   7.118   1.567  10.611 -0.2450 -0.3786  0.2311
   83SAPS   H2X 7782   7.164   1.466  10.602 -0.9807 -0.6002 -1.2842
   83SAPS   H2Y 7783   7.192   1.635  10.658  0.1367 -0.1355 -0.7065
   83SAPS   C23 7784   7.051   1.121  10.531  0.1709  0.1538  0.0164
   83SAPS   H3R 7785   7.143   1.093  10.476 -0.2840 -1.5515  0.0634
   83SAPS   H3S 7786   7.059   1.228  10.558 -2.7933  0.3109  0.6264
   83SAPS   C24 7787   6.936   1.116  10.426 -0.3943  0.3269  0.1429
   83SAPS   H4R 7788   6.947   1.198  10.351  0.4961 -0.7457 -0.9285
   83SAPS   H4S 7789   6.845   1.135  10.487  1.7242 -0.7931  3.9684
   83SAPS   C25 7790   6.928   0.982  10.350  0.7932 -0.1037 -0.0807
   83SAPS   H5R 7791   6.851   0.915  10.391  0.8189 -0.4589 -0.6057
   83SAPS   C26 7792   7.016   0.945  10.255  0.3472  1.0630  0.3617
   83SAPS   H6R 7793   6.990   0.851  10.203 -1.8974  1.4486  0.6620
   83SAPS   C27 7794   7.129   1.025  10.190 -0.3794  0.8495  0.5492
   83SAPS   H7R 7795   7.157   1.110  10.255  2.1390 -1.6323  3.0100
   83SAPS   H7S 7796   7.087   1.059  10.093  1.8222 -0.2959 -0.8894
   83SAPS   C28 7797   7.252   0.953  10.150  0.1044  0.3710  0.4223
   83SAPS   H8R 7798   7.327   0.938  10.229  0.5279 -1.3385 -0.2533
   83SAPS   C29 7799   7.282   0.902  10.029 -0.2590 -0.0318 -0.1932
   83SAPS   H9R 7800   7.383   0.859  10.016  0.0862  0.9917 -1.1272
   83SAPS  C210 7801   7.190   0.887   9.905 -0.6647 -0.0753 -0.2201
   83SAPS  H10R 7802   7.210   0.975   9.840  1.2229  0.1999  0.6689
   83SAPS  H10S 7803   7.084   0.890   9.937 -0.3239  0.5217  0.8948
   83SAPS  C211 7804   7.239   0.767   9.825 -0.1245  0.1981  0.4365
   83SAPS  H11R 7805   7.289   0.684   9.877 -1.8767 -3.2263 -2.8464
   83SAPS  C212 7806   7.202   0.752   9.694  0.1507  0.5808  0.1427
   83SAPS  H12R 7807   7.219   0.659   9.638  0.2237  0.3614  0.5237
   83SAPS  C213 7808   7.125   0.847   9.609 -0.7944 -0.4590 -0.1676
   83SAPS  H13R 7809   7.198   0.916   9.561 -3.2251  0.5796 -2.6539
   83SAPS  H13S 7810   7.059   0.906   9.676  2.0931 -1.9001  4.3688
   83SAPS  C214 7811   7.053   0.791   9.485 -0.0529 -0.0182  0.0626
   83SAPS  H14R 7812   6.951   0.754   9.504  0.6979 -1.6049  1.2474
   83SAPS  C215 7813   7.085   0.804   9.357 -0.5997 -0.3437 -0.3599
   83SAPS  H15R 7814   7.026   0.745   9.285 -1.5978  0.5052 -0.2524
   83SAPS  C216 7815   7.197   0.877   9.289  0.1138 -0.0904 -0.5778
   83SAPS  H16R 7816   7.261   0.811   9.226  0.4170 -1.3689  1.0017
   83SAPS  H16S 7817   7.260   0.938   9.357  0.6289  0.4167 -1.4986
   83SAPS  C217 7818   7.137   0.979   9.186  0.3772 -0.6881 -1.4004
   83SAPS  H17R 7819   7.213   1.057   9.163 -1.5535  1.1517 -1.9235
   83SAPS  H17S 7820   7.055   1.038   9.232  0.6172  0.8836 -2.8655
   83SAPS  C218 7821   7.103   0.916   9.049  0.5163 -0.0740 -1.0834
   83SAPS  H18R 7822   7.040   0.826   9.066  0.2531  0.5433  1.7278
   83SAPS  H18S 7823   7.200   0.874   9.014  0.5527  0.7886 -2.0603
   83SAPS  C219 7824   7.049   1.007   8.934 -0.1171  0.3257  0.5898
   83SAPS  H19R 7825   7.128   1.084   8.923  0.4120 -0.2469  0.3486
   83SAPS  H19S 7826   6.947   1.049   8.950  0.0082  1.1156 -0.5948
   83SAPS  C220 7827   7.045   0.927   8.803  0.1000  0.6332  0.2189
   83SAPS  H20R 7828   7.005   0.826   8.826  0.6386 -0.4105 -2.9630
   83SAPS  H20S 7829   7.149   0.921   8.765  0.4189  1.2088  0.9774
   83SAPS  H20T 7830   7.000   0.972   8.712 -0.1437  0.5158  0.2814
   83SAPS   C33 7831   7.079   1.625  10.477 -0.6087  0.1062 -0.3466
   83SAPS   H3X 7832   7.169   1.639  10.413  1.0951  1.5077  2.2065
   83SAPS   H3Y 7833   7.029   1.722  10.497 -2.0076 -0.6948  0.1796
   83SAPS   C34 7834   6.979   1.537  10.406  0.2274  0.7462  0.1317
   83SAPS   H4X 7835   6.877   1.548  10.448  0.6412 -0.0412  1.4087
   83SAPS   H4Y 7836   7.008   1.429  10.403  1.4829  0.9721  2.0890
   83SAPS   C35 7837   6.967   1.594  10.264  0.3378 -0.1757  0.0824
   83SAPS   H5X 7838   7.067   1.597  10.214  0.3443 -1.0069  0.0336
   83SAPS   H5Y 7839   6.922   1.693  10.243  2.0764  0.5519 -0.4226
   83SAPS   C36 7840   6.881   1.496  10.172  0.0861  0.3830  0.4054
   83SAPS   H6X 7841   6.786   1.464  10.220 -0.5299  0.2524 -0.8589
   83SAPS   H6Y 7842   6.932   1.398  10.164 -1.3351 -0.2477 -2.2061
   83SAPS   C37 7843   6.877   1.537  10.023  0.6202  0.0045  1.5401
   83SAPS   H7X 7844   6.808   1.624  10.014 -0.7512 -1.2633 -2.4171
   83SAPS   H7Y 7845   6.834   1.455   9.962  2.6124 -0.6867  0.9599
   83SAPS   C38 7846   7.020   1.564   9.963 -0.2452  0.2936  0.6474
   83SAPS   H8X 7847   7.100   1.489   9.982  2.0567  2.3733 -0.2609
   83SAPS   H8Y 7848   7.060   1.664   9.989 -0.4244  0.6912 -0.5118
   83SAPS   C39 7849   6.998   1.564   9.813  0.3033  0.3332 -0.8779
   83SAPS   H9X 7850   6.957   1.469   9.774 -1.3089  0.1931  0.9985
   83SAPS   H9Y 7851   7.100   1.581   9.773  1.4311  0.7873  1.9686
   83SAPS  C310 7852   6.912   1.681   9.769  0.6111 -0.2536  0.8223
   83SAPS  H10X 7853   6.940   1.773   9.826 -1.1753  0.3864  0.7176
   83SAPS  H10Y 7854   6.805   1.672   9.796  0.2119 -0.2579 -0.6665
   83SAPS  C311 7855   6.919   1.714   9.618 -0.1668  0.0583  0.7056
   83SAPS  H11X 7856   6.839   1.649   9.575  0.6492 -0.4437 -0.0913
   83SAPS  H11Y 7857   7.016   1.682   9.574  0.1719  1.3186  0.4917
   83SAPS  C312 7858   6.903   1.855   9.565  0.0630 -0.7923 -0.3228
   83SAPS  H12X 7859   6.993   1.919   9.581 -0.3979 -0.7653  2.7256
   83SAPS  H12Y 7860   6.815   1.908   9.606 -1.3249 -2.5479 -0.9435
   83SAPS  C313 7861   6.874   1.850   9.412  0.5082  0.3603 -0.8604
   83SAPS  H13X 7862   6.822   1.943   9.380 -0.1595  0.8457  1.4629
   83SAPS  H13Y 7863   6.793   1.776   9.399  0.0092  1.0351 -1.7379
   83SAPS  C314 7864   6.994   1.829   9.322  0.0703 -0.1321  0.4235
   83SAPS  H14X 7865   7.056   1.745   9.361  0.7810 -0.0095 -0.4098
   83SAPS  H14Y 7866   7.061   1.917   9.323 -0.6444  0.4194  0.6568
   83SAPS  C315 7867   6.938   1.800   9.177  0.2183  0.5140  1.1197
   83SAPS  H15X 7868   6.867   1.717   9.192  0.9641 -0.4102 -0.2175
   83SAPS  H15Y 7869   7.027   1.761   9.123 -0.3253  1.9740 -1.0030
   83SAPS  C316 7870   6.886   1.927   9.097 -0.8394  1.7226  0.2711
   83SAPS  H16X 7871   6.948   2.013   9.130  0.5097  0.4738  1.1073
   83SAPS  H16Y 7872   6.782   1.952   9.128 -1.1475 -0.6751  1.4035
   83SAPS  C317 7873   6.914   1.920   8.945  0.5699 -0.4220 -0.2745
   83SAPS  H17X 7874   6.848   1.846   8.894 -1.8347  2.7045 -2.0717
   83SAPS  H17Y 7875   7.018   1.882   8.937 -0.0025 -1.8518 -1.3461
   83SAPS  C318 7876   6.912   2.051   8.872  0.1215 -0.0962  0.0766
   83SAPS  H18X 7877   6.978   2.126   8.921 -0.8008  0.3770  0.6289
   83SAPS  H18Y 7878   6.812   2.099   8.866  0.0024 -0.1122  1.4719
   83SAPS  H18Z 7879   6.945   2.035   8.767 -1.7502 -2.2823 -0.2543
   84SAPS     N 7880   0.272   6.534  11.430  0.1995  0.2700  0.1319
   84SAPS   HN1 7881   0.275   6.556  11.532 -1.0493 -2.5583  0.8766
   84SAPS   HN2 7882   0.206   6.602  11.388  1.5660  0.7665 -1.3278
   84SAPS   HN3 7883   0.233   6.440  11.412 -0.6081 -0.0230  2.9625
   84SAPS   C12 7884   0.407   6.540  11.365 -1.1931 -0.4695 -0.3412
   84SAPS  H12A 7885   0.404   6.511  11.261  2.6619  0.5702 -0.8965
   84SAPS   C13 7886   0.474   6.680  11.355  0.7396 -0.1051 -0.6108
   84SAPS  O13A 7887   0.415   6.784  11.396  0.2692  0.1624 -0.2709
   84SAPS  O13B 7888   0.582   6.691  11.286  0.4465  0.3628  0.4061
   84SAPS   C11 7889   0.511   6.455  11.447  0.3869  0.4316  0.2863
   84SAPS  H11A 7890   0.498   6.491  11.551  2.4102  3.8432 -0.4717
   84SAPS  H11B 7891   0.619   6.475  11.431  1.0231 -2.1534  0.8637
   84SAPS     P 7892   0.607   6.220  11.383 -0.0422 -0.3811 -0.2367
   84SAPS   O13 7893   0.739   6.234  11.450  0.8285 -0.4926 -0.3749
   84SAPS   O14 7894   0.552   6.080  11.389 -0.3212  0.4068 -0.3860
   84SAPS   O12 7895   0.484   6.315  11.434 -0.9697 -0.4730  0.7691
   84SAPS   O11 7896   0.627   6.259  11.234  0.5503 -0.1665 -0.3997
   84SAPS    C1 7897   0.515   6.244  11.139 -0.0712  0.1462 -0.0327
   84SAPS    HA 7898   0.419   6.216  11.188 -0.4865  0.3937 -0.6867
   84SAPS    HB 7899   0.497   6.336  11.081 -0.4181  0.0165 -0.1317
   84SAPS    C2 7900   0.553   6.134  11.033  0.3860 -0.0004  0.3403
   84SAPS    HS 7901   0.604   6.051  11.088  3.2635  0.7616 -0.9620
   84SAPS   O21 7902   0.634   6.196  10.938 -0.8532  0.1273  0.1631
   84SAPS   C21 7903   0.736   6.128  10.883 -0.0155 -0.3708  0.0351
   84SAPS   O22 7904   0.772   6.022  10.934 -0.4359  0.2162  0.3348
   84SAPS   C22 7905   0.806   6.199  10.767 -0.2191 -0.3507 -0.2354
   84SAPS   H2R 7906   0.818   6.126  10.685  0.5011 -0.8470  0.2996
   84SAPS   H2S 7907   0.743   6.284  10.732 -0.6937 -0.2138  0.9006
   84SAPS    C3 7908   0.431   6.073  10.957  0.5314 -0.0947 -0.5502
   84SAPS    HX 7909   0.375   6.158  10.911 -0.8542  0.1254  1.4329
   84SAPS    HY 7910   0.358   6.038  11.032 -0.8499 -0.2896 -1.9289
   84SAPS   O31 7911   0.468   5.957  10.871 -0.3118 -0.1828  0.0893
   84SAPS   C31 7912   0.383   5.942  10.767 -0.5656  0.4079  0.2092
   84SAPS   O32 7913   0.286   6.015  10.754 -0.0821  0.5436 -0.7086
   84SAPS   C32 7914   0.421   5.823  10.678  0.5477 -0.3871  0.3299
   84SAPS   H2X 7915   0.338   5.749  10.676 -0.8149  1.0693  0.8710
   84SAPS   H2Y 7916   0.518   5.777  10.709  1.9909  3.6177  2.6101
   84SAPS   C23 7917   0.941   6.264  10.810 -0.0507 -0.3283  0.3491
   84SAPS   H3R 7918   0.994   6.209  10.890 -0.9101  0.0130  1.1705
   84SAPS   H3S 7919   0.916   6.361  10.858 -1.0872 -0.9411  1.0937
   84SAPS   C24 7920   1.028   6.274  10.693 -0.3039 -0.8107  0.6112
   84SAPS   H4R 7921   1.042   6.172  10.651  1.2187  0.1136 -1.2508
   84SAPS   H4S 7922   1.130   6.308  10.720 -0.9246  1.9673 -0.2259
   84SAPS   C25 7923   0.994   6.366  10.585 -0.1523  0.0405  0.2207
   84SAPS   H5R 7924   1.018   6.473  10.596  1.0400 -0.0874 -0.9166
   84SAPS   C26 7925   0.950   6.325  10.466  0.3187  0.1437  0.3438
   84SAPS   H6R 7926   0.921   6.402  10.393 -1.6721 -1.0003 -0.1394
   84SAPS   C27 7927   0.910   6.192  10.417  0.3464  0.4013 -0.0340
   84SAPS   H7R 7928   0.971   6.110  10.460  1.8197 -0.0504 -2.7681
   84SAPS   H7S 7929   0.944   6.179  10.312  0.6251  1.1722 -0.0503
   84SAPS   C28 7930   0.757   6.165  10.407  0.0539 -0.7551 -0.7333
   84SAPS   H8R 7931   0.715   6.111  10.492  0.7295 -0.1497  0.0030
   84SAPS   C29 7932   0.682   6.195  10.298  0.1827  0.2419  0.6453
   84SAPS   H9R 7933   0.572   6.189  10.305  0.1184  0.9699  0.3537
   84SAPS  C210 7934   0.741   6.262  10.172 -1.1336  0.3334  0.1061
   84SAPS  H10R 7935   0.800   6.184  10.119 -0.2714  0.6696  0.5575
   84SAPS  H10S 7936   0.817   6.337  10.202 -0.1706 -0.2658 -0.7919
   84SAPS  C211 7937   0.643   6.327  10.080 -0.2304 -0.3448  0.2878
   84SAPS  H11R 7938   0.611   6.428  10.111  1.2638  0.4821 -0.7282
   84SAPS  C212 7939   0.603   6.272   9.965 -0.5220 -0.3998 -0.0989
   84SAPS  H12R 7940   0.530   6.333   9.910 -0.8060  0.6624  1.3987
   84SAPS  C213 7941   0.637   6.142   9.901  0.4251  0.5496 -0.2175
   84SAPS  H13R 7942   0.694   6.082   9.975 -0.9341  0.2591  0.6359
   84SAPS  H13S 7943   0.710   6.159   9.819  2.0964  1.3519  1.3792
   84SAPS  C214 7944   0.503   6.074   9.859 -0.1999  0.3372 -0.1463
   84SAPS  H14R 7945   0.427   6.085   9.938  0.4746  1.9544  0.3144
   84SAPS  C215 7946   0.487   5.993   9.746  0.2105  0.0709  0.0890
   84SAPS  H15R 7947   0.390   5.942   9.733  1.3296 -2.3444  0.6724
   84SAPS  C216 7948   0.592   5.963   9.645  0.9659  0.2509  0.5197
   84SAPS  H16R 7949   0.621   5.857   9.661  0.0602  0.1867  1.9317
   84SAPS  H16S 7950   0.683   6.027   9.653  0.7497  0.9220 -1.7059
   84SAPS  C217 7951   0.527   5.970   9.505  0.4387 -0.0645 -0.0454
   84SAPS  H17R 7952   0.499   6.075   9.485 -0.6354 -0.3233  0.0788
   84SAPS  H17S 7953   0.434   5.910   9.502  0.1438  0.4214 -1.3700
   84SAPS  C218 7954   0.617   5.921   9.393 -0.6752 -0.0783  0.0728
   84SAPS  H18R 7955   0.607   5.811   9.381 -4.4033  0.0954  0.3784
   84SAPS  H18S 7956   0.724   5.938   9.417 -0.2462 -1.9960 -0.3400
   84SAPS  C219 7957   0.594   6.005   9.266  0.0161 -0.0695  0.5926
   84SAPS  H19R 7958   0.639   5.941   9.187  0.4094 -0.9895  1.5192
   84SAPS  H19S 7959   0.648   6.101   9.266 -0.9197  0.4718  0.2108
   84SAPS  C220 7960   0.446   6.032   9.235  0.2764 -0.2149  0.4017
   84SAPS  H20R 7961   0.402   6.110   9.300 -3.0459 -0.8063 -0.9273
   84SAPS  H20S 7962   0.384   5.942   9.256 -0.8109  1.1190  3.4436
   84SAPS  H20T 7963   0.444   6.082   9.136  0.8083 -1.1504 -0.0950
   84SAPS   C33 7964   0.420   5.869  10.525 -0.7157 -0.0835 -0.2576
   84SAPS   H3X 7965   0.498   5.947  10.509 -1.2862  0.6791  0.6277
   84SAPS   H3Y 7966   0.321   5.906  10.492  0.0308  1.1126 -1.2448
   84SAPS   C34 7967   0.468   5.760  10.432  0.3704  1.4438 -0.2690
   84SAPS   H4X 7968   0.399   5.674  10.445  0.4023  1.4868  0.2251
   84SAPS   H4Y 7969   0.569   5.718  10.456 -0.1650 -1.0868 -2.0562
   84SAPS   C35 7970   0.482   5.796  10.288  0.6414 -0.4266  0.2072
   84SAPS   H5X 7971   0.562   5.873  10.290  0.6567 -0.4437  2.5934
   84SAPS   H5Y 7972   0.390   5.849  10.256  1.6490  1.8591  0.8914
   84SAPS   C36 7973   0.498   5.682  10.198  0.6896 -0.7974  0.4431
   84SAPS   H6X 7974   0.418   5.608  10.219  0.6129 -0.4752  1.3102
   84SAPS   H6Y 7975   0.593   5.629  10.218  1.3544  0.4102  0.5658
   84SAPS   C37 7976   0.490   5.727  10.046  0.1909  0.5800 -0.0920
   84SAPS   H7X 7977   0.573   5.801  10.035  0.1996  0.5193 -0.4528
   84SAPS   H7Y 7978   0.391   5.773  10.025 -0.0173 -0.3153 -1.1758
   84SAPS   C38 7979   0.511   5.601   9.954  0.7114  0.7289 -0.4657
   84SAPS   H8X 7980   0.424   5.538   9.982 -0.0183  2.0443  0.3384
   84SAPS   H8Y 7981   0.601   5.542   9.981  0.2136  0.3999  0.5371
   84SAPS   C39 7982   0.531   5.632   9.810 -0.1943  0.0209  0.4323
   84SAPS   H9X 7983   0.638   5.660   9.800  0.7978 -2.3560  3.0818
   84SAPS   H9Y 7984   0.481   5.724   9.774  1.1830  1.0356  1.0249
   84SAPS  C310 7985   0.495   5.513   9.719  0.0952  0.2008  0.1941
   84SAPS  H10X 7986   0.387   5.486   9.728  0.1200 -0.4984 -1.3346
   84SAPS  H10Y 7987   0.554   5.420   9.734 -0.1419  0.2188  1.3581
   84SAPS  C311 7988   0.516   5.549   9.570  0.1023  0.1193 -0.4819
   84SAPS  H11X 7989   0.624   5.567   9.553  0.0994  0.2854 -0.3285
   84SAPS  H11Y 7990   0.467   5.645   9.544 -1.2372 -1.1415 -2.9842
   84SAPS  C312 7991   0.462   5.443   9.479 -0.0588 -0.8287 -0.0933
   84SAPS  H12X 7992   0.351   5.447   9.481 -0.0678  1.8879  3.7341
   84SAPS  H12Y 7993   0.486   5.342   9.518 -0.9514 -2.1085 -2.5727
   84SAPS  C313 7994   0.519   5.475   9.347 -0.7593 -0.3562 -0.6618
   84SAPS  H13X 7995   0.629   5.485   9.358 -0.9684  0.5682  0.9523
   84SAPS  H13Y 7996   0.482   5.570   9.303  0.6133 -0.1136 -1.3221
   84SAPS  C314 7997   0.510   5.357   9.245  0.0137  0.1290  0.5508
   84SAPS  H14X 7998   0.406   5.349   9.207  0.7440 -1.1310 -1.2820
   84SAPS  H14Y 7999   0.542   5.261   9.290  1.6051  0.8433  1.0150
   84SAPS  C315 8000   0.603   5.379   9.119  0.8257  0.4491 -0.8138
   84SAPS  H15X 8001   0.706   5.367   9.158  0.4609 -0.3869 -0.0676
   84SAPS  H15Y 8002   0.600   5.481   9.074  0.5403  0.6052 -0.4478
   84SAPS  C316 8003   0.574   5.268   9.019 -0.2625  1.2126  0.1759
   84SAPS  H16X 8004   0.466   5.243   9.013  0.1399 -0.6240  0.0729
   84SAPS  H16Y 8005   0.624   5.176   9.055  0.6551  1.1226 -1.2445
   84SAPS  C317 8006   0.609   5.283   8.870 -0.4924 -0.0768 -0.5117
   84SAPS  H17X 8007   0.543   5.358   8.821 -0.7282  0.3672  0.4683
   84SAPS  H17Y 8008   0.610   5.184   8.819  0.8660 -0.5018  0.2791
   84SAPS  C318 8009   0.764   5.322   8.860  0.0418  0.1627 -0.5812
   84SAPS  H18X 8010   0.791   5.318   8.753  0.5983  0.1424 -0.4452
   84SAPS  H18Y 8011   0.835   5.254   8.911 -1.9604 -2.6144 -1.2872
   84SAPS  H18Z 8012   0.776   5.427   8.895  3.0534  0.0142 -0.8748
   85SAPS     N 8013   4.538   0.465  11.211  0.0050  0.4746  0.1909
   85SAPS   HN1 8014   4.494   0.524  11.137  1.0693  1.1979  0.1124
   85SAPS   HN2 8015   4.596   0.534  11.262 -0.4327  0.5966  0.5274
   85SAPS   HN3 8016   4.611   0.405  11.166 -1.8626 -1.3562 -0.5872
   85SAPS   C12 8017   4.438   0.387  11.284  0.0251  0.0078  0.3992
   85SAPS  H12A 8018   4.482   0.337  11.369  0.2838  0.0924  0.3140
   85SAPS   C13 8019   4.328   0.466  11.347  0.7074 -0.2602 -0.3190
   85SAPS  O13A 8020   4.346   0.590  11.380  0.6815 -0.4464  0.5101
   85SAPS  O13B 8021   4.222   0.405  11.377  0.3186  0.0532 -0.8913
   85SAPS   C11 8022   4.379   0.274  11.196  0.0030  0.1685 -0.1385
   85SAPS  H11A 8023   4.322   0.312  11.109  0.6333 -1.3142 -1.2336
   85SAPS  H11B 8024   4.300   0.225  11.258  0.7918  0.3633  1.0455
   85SAPS     P 8025   4.440   0.056  11.068  0.0451  0.2647 -0.2734
   85SAPS   O13 8026   4.545   0.019  10.978  0.3176 -0.0195  0.7868
   85SAPS   O14 8027   4.393  -0.047  11.168 -0.5104  0.1568 -0.6323
   85SAPS   O12 8028   4.481   0.181  11.158  0.4511  0.0267 -0.3248
   85SAPS   O11 8029   4.315   0.108  10.988 -0.5117  0.2640  0.0361
   85SAPS    C1 8030   4.268   0.048  10.868 -0.4222  0.2163 -0.0896
   85SAPS    HA 8031   4.323  -0.044  10.837  2.7201  1.9328  0.0320
   85SAPS    HB 8032   4.161   0.022  10.883  0.0982 -1.5228  0.9713
   85SAPS    C2 8033   4.276   0.152  10.751  0.0708 -0.1414  0.6171
   85SAPS    HS 8034   4.235   0.104  10.659 -1.7492 -0.9239  1.7564
   85SAPS   O21 8035   4.412   0.198  10.732 -0.5012 -0.4694  0.2738
   85SAPS   C21 8036   4.487   0.112  10.665  0.5003  0.4172 -0.0395
   85SAPS   O22 8037   4.454   0.010  10.614  0.1956  0.7847 -0.2204
   85SAPS   C22 8038   4.625   0.173  10.650  0.0177  0.2760  0.7015
   85SAPS   H2R 8039   4.615   0.282  10.637 -1.4497  0.0470 -0.2955
   85SAPS   H2S 8040   4.687   0.142  10.737 -2.0289 -1.1708  1.7457
   85SAPS    C3 8041   4.183   0.276  10.782  0.6615  0.7634  0.1456
   85SAPS    HX 8042   4.215   0.325  10.876 -3.2534 -0.4320  2.3332
   85SAPS    HY 8043   4.084   0.233  10.808 -0.4787  2.8417 -0.5590
   85SAPS   O31 8044   4.166   0.364  10.665 -0.6747 -0.3407 -0.0589
   85SAPS   C31 8045   4.080   0.456  10.699  0.4481  0.1270  0.4635
   85SAPS   O32 8046   4.033   0.481  10.810 -0.0801  0.0592 -0.0715
   85SAPS   C32 8047   4.049   0.535  10.573 -0.5036  0.2471 -0.6247
   85SAPS   H2X 8048   4.057   0.460  10.491  1.2096 -1.1155  0.7268
   85SAPS   H2Y 8049   4.134   0.606  10.562 -1.3438  1.4301  0.2162
   85SAPS   C23 8050   4.703   0.110  10.534 -1.1249 -0.1379 -0.0716
   85SAPS   H3R 8051   4.650   0.112  10.436 -1.7636  0.1008  0.2781
   85SAPS   H3S 8052   4.737   0.007  10.560  1.1010  1.0226  1.9966
   85SAPS   C24 8053   4.817   0.203  10.491  0.5474 -0.4034 -0.0841
   85SAPS   H4R 8054   4.882   0.238  10.574  0.3069  1.2388 -0.5528
   85SAPS   H4S 8055   4.772   0.297  10.453 -0.7021 -0.9095  0.1062
   85SAPS   C25 8056   4.895   0.130  10.377 -1.0184  0.7522 -0.1005
   85SAPS   H5R 8057   4.952   0.042  10.412 -0.7684  0.2629 -1.6704
   85SAPS   C26 8058   4.907   0.160  10.248 -0.5376 -0.3213  0.0255
   85SAPS   H6R 8059   4.983   0.108  10.188 -0.6006  1.2664 -1.5492
   85SAPS   C27 8060   4.841   0.261  10.164 -0.3359 -0.2861 -0.3906
   85SAPS   H7R 8061   4.917   0.329  10.121 -0.6395  0.0009 -0.4722
   85SAPS   H7S 8062   4.781   0.324  10.234 -0.7604 -1.1418  0.0365
   85SAPS   C28 8063   4.760   0.186  10.061 -1.7370  0.3871 -0.1956
   85SAPS   H8R 8064   4.666   0.140  10.098 -1.5301 -2.1981 -2.5339
   85SAPS   C29 8065   4.770   0.170   9.929  0.3940 -0.3058  0.0905
   85SAPS   H9R 8066   4.694   0.117   9.869  0.8433 -2.7192  1.5232
   85SAPS  C210 8067   4.871   0.228   9.838  0.3371 -0.2546  0.1973
   85SAPS  H10R 8068   4.919   0.318   9.882 -1.2982  0.8485 -0.1847
   85SAPS  H10S 8069   4.819   0.256   9.744  0.7823  0.5607  0.1900
   85SAPS  C211 8070   4.979   0.122   9.815 -0.3417  0.2552  0.6577
   85SAPS  H11R 8071   5.009   0.074   9.910 -0.3578  1.0154  1.0600
   85SAPS  C212 8072   5.027   0.090   9.693 -0.4053 -0.3289  0.6583
   85SAPS  H12R 8073   5.118   0.030   9.676 -1.4603 -1.2288 -2.5511
   85SAPS  C213 8074   4.977   0.159   9.567 -0.2397  0.1123  0.4037
   85SAPS  H13R 8075   5.007   0.266   9.574 -1.0959  0.5325 -1.5600
   85SAPS  H13S 8076   4.867   0.148   9.565 -0.1170 -1.1840 -1.3407
   85SAPS  C214 8077   5.025   0.102   9.436 -0.7085 -0.5419  0.4749
   85SAPS  H14R 8078   5.106   0.027   9.442  0.2030  0.2459 -1.3467
   85SAPS  C215 8079   4.994   0.158   9.316  0.3616 -0.4386 -0.3965
   85SAPS  H15R 8080   5.038   0.113   9.225 -0.1547 -2.0786  0.1396
   85SAPS  C216 8081   4.893   0.273   9.306 -0.0897 -0.2184  0.2328
   85SAPS  H16R 8082   4.909   0.341   9.392  1.1652  2.4175 -1.9272
   85SAPS  H16S 8083   4.785   0.245   9.309  0.2485 -2.2826 -2.4131
   85SAPS  C217 8084   4.918   0.366   9.181  0.4136  0.7316 -0.1227
   85SAPS  H17R 8085   5.026   0.388   9.170  0.5984  0.4956  1.0772
   85SAPS  H17S 8086   4.864   0.463   9.192 -1.4624 -0.0942 -1.4873
   85SAPS  C218 8087   4.865   0.303   9.046 -0.2403 -1.1249 -0.7174
   85SAPS  H18R 8088   4.855   0.393   8.982  1.2873  1.2700  2.1973
   85SAPS  H18S 8089   4.759   0.270   9.054 -0.6098 -0.2337 -1.6620
   85SAPS  C219 8090   4.943   0.196   8.971 -0.0316  0.1977 -0.1861
   85SAPS  H19R 8091   4.937   0.110   9.042  2.0497  1.7104  1.9346
   85SAPS  H19S 8092   5.047   0.232   8.964 -0.6766  2.3818  0.6802
   85SAPS  C220 8093   4.883   0.165   8.835  0.7840 -0.6162 -0.2420
   85SAPS  H20R 8094   4.861   0.255   8.774 -1.4506  0.3461  1.8080
   85SAPS  H20S 8095   4.779   0.127   8.843  1.5103 -3.1085 -1.4957
   85SAPS  H20T 8096   4.944   0.093   8.776  1.4244 -2.3210  2.3399
   85SAPS   C33 8097   3.917   0.615  10.585 -0.8496  0.1285  0.1292
   85SAPS   H3X 8098   3.928   0.679  10.675  0.7092 -1.6304  1.2592
   85SAPS   H3Y 8099   3.825   0.554  10.599 -1.3617  1.1308  1.2304
   85SAPS   C34 8100   3.909   0.711  10.466  0.0496  0.1733  0.5216
   85SAPS   H4X 8101   4.012   0.753  10.466 -0.7051  2.1118  1.5311
   85SAPS   H4Y 8102   3.838   0.790  10.498  1.7218  1.0078  2.3288
   85SAPS   C35 8103   3.864   0.634  10.339 -0.4283  0.3622  0.1025
   85SAPS   H5X 8104   3.773   0.573  10.353 -1.7942  2.5605  1.3651
   85SAPS   H5Y 8105   3.952   0.570  10.316 -0.2908 -0.1049  1.8076
   85SAPS   C36 8106   3.837   0.736  10.224 -0.2595 -0.4596 -0.8824
   85SAPS   H6X 8107   3.930   0.797  10.225 -0.8850  0.6616  2.4274
   85SAPS   H6Y 8108   3.771   0.820  10.255  1.6807  1.4864 -1.7325
   85SAPS   C37 8109   3.805   0.673  10.094 -0.2722  0.8675 -0.3161
   85SAPS   H7X 8110   3.711   0.615  10.108  0.3282 -0.2604 -0.8900
   85SAPS   H7Y 8111   3.885   0.600  10.068  0.3457  0.7929  1.6592
   85SAPS   C38 8112   3.784   0.770   9.983  0.7514  0.3168  0.2975
   85SAPS   H8X 8113   3.871   0.836   9.962 -1.6826  2.8626 -2.4776
   85SAPS   H8Y 8114   3.714   0.850  10.015 -0.9358 -1.2092  0.5831
   85SAPS   C39 8115   3.757   0.698   9.851  0.2730 -0.8581  0.3840
   85SAPS   H9X 8116   3.840   0.630   9.821 -1.1326 -2.3493 -0.2842
   85SAPS   H9Y 8117   3.773   0.786   9.786 -0.6941  0.2825  1.6539
   85SAPS  C310 8118   3.620   0.638   9.838 -0.0900  1.1780 -0.1274
   85SAPS  H10X 8119   3.543   0.705   9.882 -0.8969 -0.2152  0.6265
   85SAPS  H10Y 8120   3.625   0.538   9.885 -0.3941  2.5502  3.0797
   85SAPS  C311 8121   3.577   0.617   9.701  0.3182 -0.5305  0.2344
   85SAPS  H11X 8122   3.489   0.551   9.708  0.4836 -0.5842  2.4448
   85SAPS  H11Y 8123   3.650   0.569   9.632 -0.8569 -0.3535 -1.1742
   85SAPS  C312 8124   3.535   0.750   9.635  0.2545  0.1833 -0.3934
   85SAPS  H12X 8125   3.631   0.795   9.604  1.9564 -3.2913 -0.6180
   85SAPS  H12Y 8126   3.490   0.815   9.713  0.2860  1.6989 -1.5796
   85SAPS  C313 8127   3.440   0.752   9.517  0.0050 -0.1885 -0.7288
   85SAPS  H13X 8128   3.432   0.853   9.474  0.5917  0.9426  1.6465
   85SAPS  H13Y 8129   3.340   0.723   9.554  0.1263  0.6127  0.2775
   85SAPS  C314 8130   3.466   0.647   9.408  0.1433 -0.3670  0.8137
   85SAPS  H14X 8131   3.392   0.667   9.327  0.7779  0.1177  0.3410
   85SAPS  H14Y 8132   3.436   0.550   9.453 -2.1263  0.4965  1.3085
   85SAPS  C315 8133   3.611   0.643   9.352  0.2965 -0.2396 -0.1259
   85SAPS  H15X 8134   3.681   0.610   9.432 -2.0800  0.5308  2.4249
   85SAPS  H15Y 8135   3.638   0.746   9.322  0.0320 -0.3139 -0.6317
   85SAPS  C316 8136   3.611   0.540   9.236  0.4457 -0.3011 -0.0488
   85SAPS  H16X 8137   3.536   0.559   9.156  0.4547  1.2117  0.2767
   85SAPS  H16Y 8138   3.590   0.437   9.274 -2.3214  0.2933  0.2315
   85SAPS  C317 8139   3.743   0.536   9.163 -0.5957  0.2706  0.2509
   85SAPS  H17X 8140   3.816   0.520   9.245  0.9973 -2.7649 -1.5628
   85SAPS  H17Y 8141   3.770   0.631   9.113 -0.2442  0.4437  0.7530
   85SAPS  C318 8142   3.759   0.420   9.063 -0.0783 -0.7121  0.8246
   85SAPS  H18X 8143   3.721   0.327   9.111 -1.6067 -1.0088 -0.8750
   85SAPS  H18Y 8144   3.864   0.420   9.029  0.6929  2.4212  2.8169
   85SAPS  H18Z 8145   3.696   0.443   8.975  1.3944 -2.7333 -0.8533
   86SAPS     N 8146   6.219   1.852  10.777  0.2538 -0.6532 -0.5454
   86SAPS   HN1 8147   6.259   1.824  10.868 -0.7293 -0.6578 -0.1043
   86SAPS   HN2 8148   6.125   1.808  10.773  0.6526 -1.5006 -0.8440
   86SAPS   HN3 8149   6.285   1.809  10.709 -1.3205 -1.3113 -1.7226
   86SAPS   C12 8150   6.224   2.000  10.768  0.5530 -0.3319  0.2162
   86SAPS  H12A 8151   6.193   2.027  10.668  0.5034 -1.0425  0.0350
   86SAPS   C13 8152   6.131   2.074  10.877 -0.1130  0.2173  0.6081
   86SAPS  O13A 8153   6.066   1.996  10.954  0.0601  0.0369 -0.0216
   86SAPS  O13B 8154   6.106   2.200  10.877 -0.2957  0.3092  0.4865
   86SAPS   C11 8155   6.371   2.048  10.779  0.0807 -0.4782  0.2682
   86SAPS  H11A 8156   6.369   2.159  10.787  1.4571 -0.2186 -1.9827
   86SAPS  H11B 8157   6.413   2.026  10.678  0.2913  1.6005 -0.1559
   86SAPS     P 8158   6.547   2.067  10.964 -0.0316 -0.9326 -0.4256
   86SAPS   O13 8159   6.504   2.205  11.006 -0.2113  0.1808 -0.4884
   86SAPS   O14 8160   6.605   1.978  11.070  0.7457  0.3111 -0.8555
   86SAPS   O12 8161   6.429   1.994  10.893 -0.1855 -0.5338 -0.1290
   86SAPS   O11 8162   6.644   2.093  10.840  0.0960 -0.4345 -0.3041
   86SAPS    C1 8163   6.756   2.009  10.807  0.4207  0.1775 -0.1763
   86SAPS    HA 8164   6.852   2.057  10.777  0.4582 -0.3644 -0.9396
   86SAPS    HB 8165   6.790   1.957  10.899  0.1917  1.3041  0.5683
   86SAPS    C2 8166   6.723   1.897  10.707 -0.7187 -0.2245 -0.3206
   86SAPS    HS 8167   6.822   1.860  10.672 -0.4364 -1.7384  1.8944
   86SAPS   O21 8168   6.646   1.950  10.602  0.3741 -0.5112 -0.6730
   86SAPS   C21 8169   6.704   2.024  10.515  0.5037  0.1116 -0.9984
   86SAPS   O22 8170   6.823   2.047  10.505  0.0722 -0.7379  0.6347
   86SAPS   C22 8171   6.603   2.067  10.413 -0.2757 -0.7549 -0.3574
   86SAPS   H2R 8172   6.525   1.995  10.379 -1.8514  0.4891  0.4614
   86SAPS   H2S 8173   6.538   2.141  10.465  1.7549 -1.2268  3.1781
   86SAPS    C3 8174   6.648   1.775  10.765  0.0659  0.1383  0.1182
   86SAPS    HX 8175   6.551   1.798  10.816 -0.2963 -0.5325 -0.2422
   86SAPS    HY 8176   6.713   1.747  10.850  0.9324  0.1217 -0.5433
   86SAPS   O31 8177   6.641   1.671  10.661 -0.9416 -0.7767  0.0103
   86SAPS   C31 8178   6.520   1.648  10.622 -0.2245  0.1721  0.1968
   86SAPS   O32 8179   6.420   1.707  10.649  0.1647 -1.0272 -0.4842
   86SAPS   C32 8180   6.524   1.540  10.511 -0.4018 -0.0280  0.0452
   86SAPS   H2X 8181   6.429   1.484  10.510  0.7548 -2.1098 -0.8921
   86SAPS   H2Y 8182   6.597   1.466  10.551 -0.7467 -0.1863  0.3793
   86SAPS   C23 8183   6.667   2.128  10.289 -0.7696 -0.7233  0.2588
   86SAPS   H3R 8184   6.747   2.063  10.247 -0.1232 -0.7044  1.4116
   86SAPS   H3S 8185   6.718   2.227  10.299  1.3335 -2.0106  4.2888
   86SAPS   C24 8186   6.561   2.137  10.178  1.0368 -0.7119  0.0614
   86SAPS   H4R 8187   6.473   2.188  10.222  2.5102  2.3740 -0.3037
   86SAPS   H4S 8188   6.527   2.035  10.150  0.0933 -0.3578 -0.1130
   86SAPS   C25 8189   6.602   2.213  10.050 -0.7061  0.0375 -0.6898
   86SAPS   H5R 8190   6.638   2.317  10.056 -0.8502  0.1787 -2.1156
   86SAPS   C26 8191   6.599   2.166   9.924 -0.3998  0.2131  1.0156
   86SAPS   H6R 8192   6.624   2.236   9.843 -1.3127 -1.2138 -0.5592
   86SAPS   C27 8193   6.554   2.034   9.871 -0.8994 -0.3000 -0.2308
   86SAPS   H7R 8194   6.561   1.956   9.950  0.1648 -0.2366 -0.2518
   86SAPS   H7S 8195   6.623   2.011   9.787 -0.5933 -1.4932  0.3182
   86SAPS   C28 8196   6.408   2.039   9.823  0.1734 -1.0192 -0.5232
   86SAPS   H8R 8197   6.338   2.091   9.889  0.4252 -0.3676 -0.7619
   86SAPS   C29 8198   6.362   2.002   9.702  0.4507 -0.3725 -0.2167
   86SAPS   H9R 8199   6.259   2.028   9.677  0.7178  1.3579  0.3241
   86SAPS  C210 8200   6.428   1.940   9.581 -0.1505  0.0050 -0.3366
   86SAPS  H10R 8201   6.354   1.864   9.550 -1.0577  0.9287 -0.4868
   86SAPS  H10S 8202   6.518   1.892   9.625 -0.9345 -1.2071  0.0009
   86SAPS  C211 8203   6.467   2.056   9.486  0.4499  0.5696 -0.5238
   86SAPS  H11R 8204   6.508   2.150   9.527 -3.4946  2.9511 -1.3823
   86SAPS  C212 8205   6.471   2.046   9.348  0.9832  0.2932  0.2052
   86SAPS  H12R 8206   6.480   2.138   9.289  1.0367 -1.1890 -2.2418
   86SAPS  C213 8207   6.431   1.931   9.262  0.0335  0.2417 -0.5007
   86SAPS  H13R 8208   6.389   1.852   9.328 -1.0956  1.0761 -0.1784
   86SAPS  H13S 8209   6.523   1.885   9.222 -0.1624 -0.2212 -0.4227
   86SAPS  C214 8210   6.337   1.959   9.147 -0.2165 -0.2305  0.0811
   86SAPS  H14R 8211   6.232   1.984   9.169 -0.7607 -1.9450 -0.4742
   86SAPS  C215 8212   6.379   1.961   9.019  0.1417 -0.1918  0.0944
   86SAPS  H15R 8213   6.311   1.986   8.936  1.0439 -1.2976 -1.0215
   86SAPS  C216 8214   6.514   1.912   8.973  1.0541 -0.2725  0.1397
   86SAPS  H16R 8215   6.566   1.852   9.051 -0.8761  1.1467  2.6776
   86SAPS  H16S 8216   6.584   1.995   8.949 -0.3485  0.4872 -1.5569
   86SAPS  C217 8217   6.497   1.823   8.850  0.7002 -0.2405  1.0117
   86SAPS  H17R 8218   6.419   1.744   8.857 -0.9115  1.0507 -1.2062
   86SAPS  H17S 8219   6.589   1.766   8.826  0.2523 -0.2051 -0.8981
   86SAPS  C218 8220   6.460   1.906   8.721 -0.2493  0.1477  0.0177
   86SAPS  H18R 8221   6.369   1.969   8.724 -1.9574 -2.1900 -0.4759
   86SAPS  H18S 8222   6.438   1.822   8.652  2.5368 -0.0420 -0.7703
   86SAPS  C219 8223   6.588   1.985   8.674 -0.4576 -0.2438 -0.5318
   86SAPS  H19R 8224   6.680   1.943   8.719  0.0162  0.4500 -0.8342
   86SAPS  H19S 8225   6.573   2.081   8.727  0.3305  0.1264 -0.9598
   86SAPS  C220 8226   6.605   2.021   8.517  0.0263  0.9226 -0.7496
   86SAPS  H20R 8227   6.600   1.925   8.461 -0.9812 -0.6397  1.8500
   86SAPS  H20S 8228   6.710   2.052   8.503  1.6230 -4.3273 -2.4653
   86SAPS  H20T 8229   6.536   2.095   8.469 -0.8218 -0.1539 -1.2364
   86SAPS   C33 8230   6.570   1.593  10.371  0.3782 -0.1621 -0.5063
   86SAPS   H3X 8231   6.593   1.505  10.306  0.6490  0.5585 -1.4023
   86SAPS   H3Y 8232   6.659   1.658  10.377  2.4488 -2.8616  0.3235
   86SAPS   C34 8233   6.452   1.669  10.313  0.2217  0.4483  0.7768
   86SAPS   H4X 8234   6.434   1.762  10.372 -0.7965  0.1336  0.9829
   86SAPS   H4Y 8235   6.360   1.611  10.336 -0.4942  0.9106 -0.7639
   86SAPS   C35 8236   6.459   1.699  10.164 -0.0327 -0.4221 -0.0705
   86SAPS   H5X 8237   6.544   1.769  10.160  0.0320 -0.4786  0.2984
   86SAPS   H5Y 8238   6.364   1.749  10.134 -1.0184 -2.1806 -0.0901
   86SAPS   C36 8239   6.464   1.575  10.064  0.0929  0.2673  0.2494
   86SAPS   H6X 8240   6.368   1.521  10.082  0.9386 -1.0503  0.9589
   86SAPS   H6Y 8241   6.545   1.500  10.070  1.0402  1.1873 -0.6345
   86SAPS   C37 8242   6.476   1.627   9.924  0.7034 -0.0326  0.4027
   86SAPS   H7X 8243   6.554   1.707   9.921  0.8266 -0.1649 -0.6847
   86SAPS   H7Y 8244   6.378   1.669   9.893  0.6992 -1.3564 -1.5934
   86SAPS   C38 8245   6.504   1.513   9.820  0.1850 -0.3626 -0.1079
   86SAPS   H8X 8246   6.423   1.437   9.823 -1.5062  1.1320 -3.4282
   86SAPS   H8Y 8247   6.598   1.457   9.838  0.4290 -0.5756 -1.9121
   86SAPS   C39 8248   6.508   1.570   9.677 -0.2724  0.3994 -0.3317
   86SAPS   H9X 8249   6.587   1.648   9.674  1.9937 -1.8034 -1.4863
   86SAPS   H9Y 8250   6.424   1.636   9.646  0.5384  2.2731  1.2336
   86SAPS  C310 8251   6.546   1.463   9.584  0.0894 -0.0486  0.8401
   86SAPS  H10X 8252   6.491   1.366   9.592  0.4395 -0.2649  0.6427
   86SAPS  H10Y 8253   6.648   1.432   9.613 -0.8303 -1.6335  2.6036
   86SAPS  C311 8254   6.550   1.524   9.439  0.5754  0.1336  0.5532
   86SAPS  H11X 8255   6.615   1.615   9.445 -1.7388  1.8051  1.9131
   86SAPS  H11Y 8256   6.449   1.564   9.416  1.6776  3.9332  1.4936
   86SAPS  C312 8257   6.593   1.418   9.331  0.0469  0.4906  0.5721
   86SAPS  H12X 8258   6.541   1.321   9.341 -1.0392  0.6819 -2.3451
   86SAPS  H12Y 8259   6.697   1.383   9.352 -0.1228 -0.8718 -0.6682
   86SAPS  C313 8260   6.591   1.473   9.187 -0.5387  0.3747  0.0047
   86SAPS  H13X 8261   6.665   1.556   9.174 -0.3819  0.6042  2.0441
   86SAPS  H13Y 8262   6.493   1.496   9.140 -0.4331  0.1969 -0.3078
   86SAPS  C314 8263   6.646   1.362   9.094 -0.3450  0.1996  0.3804
   86SAPS  H14X 8264   6.569   1.282   9.098 -0.1477 -0.1776 -1.9163
   86SAPS  H14Y 8265   6.740   1.313   9.129  0.5136  0.9184 -0.8569
   86SAPS  C315 8266   6.665   1.408   8.956 -0.0621 -0.6802  0.0027
   86SAPS  H15X 8267   6.744   1.485   8.950 -0.2560 -0.4277  0.5840
   86SAPS  H15Y 8268   6.572   1.454   8.917  0.4500 -0.5337 -1.0896
   86SAPS  C316 8269   6.712   1.294   8.862  0.0292 -0.0428 -0.2497
   86SAPS  H16X 8270   6.649   1.205   8.883 -1.4377  0.1845 -3.2068
   86SAPS  H16Y 8271   6.814   1.258   8.887 -0.1779 -0.4729 -0.0033
   86SAPS  C317 8272   6.693   1.332   8.716  0.0833 -0.2235 -0.5538
   86SAPS  H17X 8273   6.763   1.417   8.703 -0.5501  0.3653 -0.1567
   86SAPS  H17Y 8274   6.594   1.379   8.698 -0.0699  0.8333  2.5967
   86SAPS  C318 8275   6.725   1.220   8.617  0.2834 -0.5604 -0.5271
   86SAPS  H18X 8276   6.834   1.198   8.626  0.2615  0.2279  3.8809
   86SAPS  H18Y 8277   6.689   1.265   8.522 -0.0073  2.0173  0.7129
   86SAPS  H18Z 8278   6.666   1.134   8.655  1.5827 -0.5479  1.6587
   87SAPS     N 8279   4.651   2.798  10.791  0.2340 -0.6092 -0.7981
   87SAPS   HN1 8280   4.588   2.776  10.711  0.9605 -0.0782 -1.5477
   87SAPS   HN2 8281   4.677   2.899  10.796  1.2290 -0.9184  1.5618
   87SAPS   HN3 8282   4.736   2.739  10.781 -0.0032 -1.4640  1.7018
   87SAPS   C12 8283   4.587   2.764  10.923 -0.3088  0.0398 -0.2052
   87SAPS  H12A 8284   4.543   2.666  10.919 -0.2288  0.0462 -2.3170
   87SAPS   C13 8285   4.693   2.752  11.038 -0.4717  0.6485 -0.1265
   87SAPS  O13A 8286   4.822   2.751  11.018  0.4286 -0.3473  0.3736
   87SAPS  O13B 8287   4.654   2.716  11.149 -0.2951 -0.0208 -0.0110
   87SAPS   C11 8288   4.489   2.879  10.959  0.0622  0.1253 -0.1231
   87SAPS  H11A 8289   4.548   2.971  10.938 -0.0750  0.9475  2.6099
   87SAPS  H11B 8290   4.454   2.884  11.065  1.1260  1.0302  0.2110
   87SAPS     P 8291   4.250   2.974  10.903 -0.1517 -0.5901 -0.1546
   87SAPS   O13 8292   4.132   2.888  10.914  0.2688  0.2398 -0.1262
   87SAPS   O14 8293   4.278   3.063  11.020 -0.1505  0.3267  0.0547
   87SAPS   O12 8294   4.377   2.882  10.878  0.1337 -0.0368  0.1479
   87SAPS   O11 8295   4.236   3.062  10.775 -0.1056 -0.1640  0.3259
   87SAPS    C1 8296   4.336   3.134  10.712  0.0388 -0.7386 -0.3394
   87SAPS    HA 8297   4.339   3.236  10.757  0.9698 -0.0577 -1.8573
   87SAPS    HB 8298   4.435   3.109  10.756  0.3768  0.4295 -0.3961
   87SAPS    C2 8299   4.337   3.145  10.560  0.5048  0.7149  0.3653
   87SAPS    HS 8300   4.271   3.225  10.520 -1.3542  0.7091  3.1209
   87SAPS   O21 8301   4.299   3.014  10.509 -0.0973 -0.4355  0.1112
   87SAPS   C21 8302   4.167   3.009  10.492 -0.2777  0.5115 -0.1622
   87SAPS   O22 8303   4.088   3.101  10.504 -0.4351  0.4617  0.1186
   87SAPS   C22 8304   4.130   2.868  10.446 -0.0486  0.0997 -0.1704
   87SAPS   H2R 8305   4.194   2.792  10.496  1.5742  0.4354 -1.6444
   87SAPS   H2S 8306   4.023   2.855  10.474  0.7256 -2.9905  1.8730
   87SAPS    C3 8307   4.478   3.179  10.512 -0.4795 -0.5546  0.2048
   87SAPS    HX 8308   4.545   3.098  10.548 -2.6518 -2.0240  1.1606
   87SAPS    HY 8309   4.502   3.277  10.558  0.4382 -0.4161 -0.5438
   87SAPS   O31 8310   4.479   3.194  10.371 -0.1689 -0.3264  0.0438
   87SAPS   C31 8311   4.567   3.116  10.303 -0.0108 -0.7448 -0.1244
   87SAPS   O32 8312   4.656   3.048  10.352 -0.4792 -0.2372 -0.2277
   87SAPS   C32 8313   4.538   3.143  10.151  0.6323 -0.4610 -0.2917
   87SAPS   H2X 8314   4.530   3.253  10.140 -0.1970 -0.5111 -0.2425
   87SAPS   H2Y 8315   4.436   3.106  10.128  1.8920 -2.8278 -2.6271
   87SAPS   C23 8316   4.154   2.853  10.294 -0.2553  0.2627  0.3704
   87SAPS   H3R 8317   4.257   2.887  10.273 -0.7466  1.5513 -0.0021
   87SAPS   H3S 8318   4.085   2.919  10.238  0.8297  1.2108  0.1206
   87SAPS   C24 8319   4.143   2.701  10.252  0.0262 -0.4503 -0.6732
   87SAPS   H4R 8320   4.205   2.633  10.313 -0.1504  1.8750  2.3265
   87SAPS   H4S 8321   4.186   2.703  10.150  0.4576  1.3700 -0.4878
   87SAPS   C25 8322   4.000   2.664  10.253 -0.0901 -0.1828  0.0269
   87SAPS   H5R 8323   3.951   2.637  10.348 -1.4769  1.5890 -0.1338
   87SAPS   C26 8324   3.927   2.652  10.138  0.1948  0.5812 -0.3131
   87SAPS   H6R 8325   3.820   2.628  10.142 -0.1789  1.7604 -2.1738
   87SAPS   C27 8326   3.950   2.672   9.990  0.7245  0.0057 -0.0984
   87SAPS   H7R 8327   4.024   2.751   9.969 -0.5224  1.0159 -0.8545
   87SAPS   H7S 8328   3.853   2.710   9.951  0.3835 -0.6070  0.1275
   87SAPS   C28 8329   4.003   2.546   9.924 -0.3806 -0.1120  0.9519
   87SAPS   H8R 8330   4.039   2.466   9.990 -1.3205 -0.4781  1.0392
   87SAPS   C29 8331   4.001   2.512   9.789  0.3456 -0.1034  0.3455
   87SAPS   H9R 8332   4.046   2.418   9.754 -0.8928 -0.2274 -1.0107
   87SAPS  C210 8333   3.947   2.609   9.684  0.6573 -0.4734 -0.5096
   87SAPS  H10R 8334   3.866   2.670   9.730  0.4904  0.2033 -1.6504
   87SAPS  H10S 8335   3.892   2.546   9.611  1.6968 -2.3582  0.2679
   87SAPS  C211 8336   4.042   2.700   9.614  0.1877 -1.1690  0.0184
   87SAPS  H11R 8337   4.104   2.771   9.669  0.2311 -1.4130  0.2849
   87SAPS  C212 8338   4.060   2.710   9.477  0.0400 -0.6495  0.1337
   87SAPS  H12R 8339   4.130   2.791   9.452  0.6290 -1.2153 -0.1032
   87SAPS  C213 8340   3.982   2.629   9.381 -0.5929  0.5095 -0.0550
   87SAPS  H13R 8341   3.877   2.609   9.409 -1.2146 -0.8351 -2.9749
   87SAPS  H13S 8342   4.021   2.525   9.384 -1.8681  0.0259  0.3381
   87SAPS  C214 8343   3.984   2.671   9.236  0.9445  0.3374 -0.2145
   87SAPS  H14R 8344   3.930   2.764   9.214 -0.8057 -0.5224  0.3235
   87SAPS  C215 8345   4.045   2.616   9.125 -0.3551  0.3937  0.1460
   87SAPS  H15R 8346   4.038   2.675   9.032  0.5069  0.7300  0.2868
   87SAPS  C216 8347   4.150   2.508   9.136  0.6589 -0.0111 -0.0054
   87SAPS  H16R 8348   4.172   2.475   9.239  1.7419 -0.9446 -0.5066
   87SAPS  H16S 8349   4.245   2.549   9.095 -0.0067 -1.2476 -3.1486
   87SAPS  C217 8350   4.124   2.372   9.063 -0.3942 -0.7694  0.4433
   87SAPS  H17R 8351   4.050   2.308   9.114 -1.0461  0.0274  0.5267
   87SAPS  H17S 8352   4.228   2.332   9.062  0.0600  0.2311  2.4074
   87SAPS  C218 8353   4.090   2.392   8.910 -0.2151 -0.0615  0.2276
   87SAPS  H18R 8354   4.171   2.461   8.879  1.3632 -1.8388  0.2055
   87SAPS  H18S 8355   3.986   2.430   8.898 -0.9500 -1.9537  0.2407
   87SAPS  C219 8356   4.109   2.271   8.816 -0.2687  0.2094  0.1516
   87SAPS  H19R 8357   4.060   2.178   8.851 -0.5490  0.9964  1.9198
   87SAPS  H19S 8358   4.216   2.240   8.818 -0.0768  0.8205 -0.4110
   87SAPS  C220 8359   4.067   2.305   8.675  0.5100 -0.1002 -0.0003
   87SAPS  H20R 8360   3.965   2.351   8.678  0.2385 -0.7301  1.3179
   87SAPS  H20S 8361   4.059   2.217   8.608  0.4099  0.6377 -0.9904
   87SAPS  H20T 8362   4.142   2.376   8.634 -0.2719  0.3939 -0.6288
   87SAPS   C33 8363   4.645   3.077  10.061  0.1295  0.0664 -0.1780
   87SAPS   H3X 8364   4.652   2.968  10.079  0.3817  0.2717  1.1053
   87SAPS   H3Y 8365   4.743   3.116  10.095 -0.8554  1.1053  1.6297
   87SAPS   C34 8366   4.626   3.124   9.915  0.1742 -0.2080  0.2567
   87SAPS   H4X 8367   4.637   3.234   9.906  0.8531 -0.2609  0.3885
   87SAPS   H4Y 8368   4.524   3.091   9.886  0.2041 -0.7105  0.6962
   87SAPS   C35 8369   4.732   3.052   9.819  0.0188 -0.6001  0.2146
   87SAPS   H5X 8370   4.692   2.950   9.833 -3.9950  0.4328 -1.9111
   87SAPS   H5Y 8371   4.839   3.058   9.846 -0.2333 -2.5180  1.7947
   87SAPS   C36 8372   4.715   3.100   9.675  0.0795  0.7645 -0.0060
   87SAPS   H6X 8373   4.777   3.190   9.656 -0.8340  1.7816  1.6669
   87SAPS   H6Y 8374   4.606   3.114   9.658 -0.2833 -0.5403  1.0384
   87SAPS   C37 8375   4.777   2.998   9.570  0.2337  0.8545  0.3763
   87SAPS   H7X 8376   4.739   2.895   9.582 -4.2941  1.5481 -4.2556
   87SAPS   H7Y 8377   4.886   3.000   9.592  0.1094  0.3533  1.0493
   87SAPS   C38 8378   4.749   3.044   9.425 -0.1710  0.2570  0.3532
   87SAPS   H8X 8379   4.638   3.050   9.416 -0.0292  0.5091 -1.6137
   87SAPS   H8Y 8380   4.774   2.959   9.358 -1.9804 -0.0391  0.0027
   87SAPS   C39 8381   4.828   3.160   9.382  0.3667 -0.8786  0.4445
   87SAPS   H9X 8382   4.929   3.167   9.428  1.5661 -0.5272 -2.0781
   87SAPS   H9Y 8383   4.770   3.248   9.419  0.3832 -0.4289 -0.5658
   87SAPS  C310 8384   4.832   3.180   9.228 -0.0910  0.6625  0.1987
   87SAPS  H10X 8385   4.805   3.284   9.202  2.5731  1.4732  0.3605
   87SAPS  H10Y 8386   4.752   3.121   9.178  0.6446 -1.0312  0.9373
   87SAPS  C311 8387   4.969   3.153   9.165 -0.2886 -0.0901 -0.0320
   87SAPS  H11X 8388   5.001   3.047   9.180 -0.4301 -0.3273 -1.3196
   87SAPS  H11Y 8389   5.049   3.211   9.217  1.7466 -2.0772 -0.7820
   87SAPS  C312 8390   4.989   3.171   9.016  1.2132  0.2269 -0.0099
   87SAPS  H12X 8391   4.989   3.279   8.991 -0.4344  0.2877  0.0973
   87SAPS  H12Y 8392   4.907   3.128   8.953  1.1017  1.0030 -0.4078
   87SAPS  C313 8393   5.120   3.103   8.974 -0.1840  0.1774  0.6250
   87SAPS  H13X 8394   5.143   3.005   9.021  1.1111  0.3295  0.3393
   87SAPS  H13Y 8395   5.205   3.163   9.011  0.3762 -0.8649  1.0734
   87SAPS  C314 8396   5.133   3.093   8.821 -0.0860  1.0569 -0.2907
   87SAPS  H14X 8397   5.170   3.192   8.788 -2.8976  2.4697  0.4309
   87SAPS  H14Y 8398   5.030   3.082   8.779 -2.6398  2.1803  4.8401
   87SAPS  C315 8399   5.219   2.979   8.781 -0.3635  0.6448  0.1829
   87SAPS  H15X 8400   5.187   2.885   8.831  2.3307  0.5889  2.0043
   87SAPS  H15Y 8401   5.322   2.997   8.818  0.1572  0.4448 -1.0858
   87SAPS  C316 8402   5.230   2.967   8.630 -0.5626  0.0706 -0.2990
   87SAPS  H16X 8403   5.236   3.068   8.585  0.2148  0.2055  0.0839
   87SAPS  H16Y 8404   5.134   2.933   8.586  0.0271  0.7958 -2.2157
   87SAPS  C317 8405   5.346   2.876   8.592 -0.2282 -0.0089  0.1772
   87SAPS  H17X 8406   5.350   2.864   8.481 -1.0468 -0.6835  0.2135
   87SAPS  H17Y 8407   5.343   2.781   8.650  0.4409  0.6616  1.3508
   87SAPS  C318 8408   5.477   2.945   8.623  0.0821  0.3092 -0.4787
   87SAPS  H18X 8409   5.488   2.945   8.734  1.3653  1.4395 -0.5834
   87SAPS  H18Y 8410   5.482   3.050   8.588 -0.8355  0.9137  1.0753
   87SAPS  H18Z 8411   5.561   2.890   8.576  2.1446  0.7293  2.3934
   88SAPS     N 8412   1.137   6.002  11.197 -0.0147 -0.1085  0.3859
   88SAPS   HN1 8413   1.222   5.944  11.205  0.7832  1.2992  4.6309
   88SAPS   HN2 8414   1.107   6.013  11.296  1.1354 -1.5013  0.9291
   88SAPS   HN3 8415   1.055   5.953  11.156 -0.5639 -0.3243  1.6998
   88SAPS   C12 8416   1.174   6.126  11.130  0.0904 -0.1267  0.2981
   88SAPS  H12A 8417   1.087   6.190  11.128  0.4810  0.4667  1.4623
   88SAPS   C13 8418   1.285   6.215  11.189 -0.4748  0.1275  0.2831
   88SAPS  O13A 8419   1.327   6.193  11.307 -0.7396 -0.0291 -0.2092
   88SAPS  O13B 8420   1.307   6.326  11.134 -0.2809  0.2026 -0.3925
   88SAPS   C11 8421   1.215   6.092  10.980 -0.3325 -0.2495  0.2429
   88SAPS  H11A 8422   1.247   6.189  10.935  0.6468 -0.3321  0.7187
   88SAPS  H11B 8423   1.131   6.046  10.925 -1.7693 -0.3173  2.3553
   88SAPS     P 8424   1.445   6.020  10.877  0.5097  0.0782 -0.4641
   88SAPS   O13 8425   1.541   6.120  10.934 -0.4124 -0.1422  0.3253
   88SAPS   O14 8426   1.506   5.894  10.834 -0.5873 -0.2437  0.3667
   88SAPS   O12 8427   1.326   6.001  10.985  0.0967  0.1953 -0.0284
   88SAPS   O11 8428   1.368   6.099  10.764 -0.6441 -0.2756  0.2368
   88SAPS    C1 8429   1.356   6.035  10.635  0.0433 -0.2588  0.4022
   88SAPS    HA 8430   1.353   5.924  10.630 -2.0290 -0.2908  1.3386
   88SAPS    HB 8431   1.261   6.060  10.582 -0.4866 -0.5903  1.1785
   88SAPS    C2 8432   1.470   6.072  10.547  0.6556 -1.2314 -0.1377
   88SAPS    HS 8433   1.557   6.101  10.610  1.0566  0.1925 -1.3102
   88SAPS   O21 8434   1.427   6.190  10.466  0.4845 -0.3844  0.3376
   88SAPS   C21 8435   1.418   6.300  10.528 -0.5648  0.1873  0.4041
   88SAPS   O22 8436   1.479   6.331  10.631  0.4475 -0.1957  0.3753
   88SAPS   C22 8437   1.315   6.380  10.460  0.7066  0.0867 -0.5829
   88SAPS   H2R 8438   1.222   6.321  10.448  0.0265  0.7402  1.2200
   88SAPS   H2S 8439   1.284   6.456  10.535 -2.3922 -0.6591 -0.9727
   88SAPS    C3 8440   1.528   5.962  10.448 -0.2279 -0.2656  0.2296
   88SAPS    HX 8441   1.569   5.871  10.497  1.9324 -0.1134 -1.1686
   88SAPS    HY 8442   1.612   6.015  10.400 -0.1222  0.9612  1.6992
   88SAPS   O31 8443   1.426   5.928  10.349 -0.9003 -0.4904 -0.1895
   88SAPS   C31 8444   1.464   5.958  10.228 -0.5038  0.8061  0.3152
   88SAPS   O32 8445   1.571   5.998  10.191 -0.5325 -0.2828 -0.0240
   88SAPS   C32 8446   1.353   5.924  10.126 -0.4039  0.1515 -0.3188
   88SAPS   H2X 8447   1.345   6.006  10.051 -0.2642  2.1789  1.7919
   88SAPS   H2Y 8448   1.260   5.926  10.187  1.1041 -1.8446  2.2007
   88SAPS   C23 8449   1.355   6.437  10.315  0.1355  0.0974  0.1043
   88SAPS   H3R 8450   1.449   6.497  10.323  1.1416 -1.0833 -2.0711
   88SAPS   H3S 8451   1.279   6.513  10.286 -0.4314 -0.9374 -1.2039
   88SAPS   C24 8452   1.351   6.338  10.187  0.0539 -0.1546 -0.8857
   88SAPS   H4R 8453   1.431   6.265  10.209 -0.3143 -0.6938 -1.2962
   88SAPS   H4S 8454   1.389   6.400  10.104  1.8372  1.6833  1.1795
   88SAPS   C25 8455   1.218   6.261  10.170  0.2256  0.7663  0.0601
   88SAPS   H5R 8456   1.204   6.204  10.264  3.5231  0.3275  0.3954
   88SAPS   C26 8457   1.131   6.250  10.063 -0.4193  0.3901 -0.2212
   88SAPS   H6R 8458   1.037   6.194  10.078 -0.6347  1.0499  1.0652
   88SAPS   C27 8459   1.140   6.315   9.927  0.1166  0.0989  0.4143
   88SAPS   H7R 8460   1.211   6.400   9.931  1.0175 -0.6687  3.7228
   88SAPS   H7S 8461   1.039   6.360   9.917  0.4531  0.6975 -0.4581
   88SAPS   C28 8462   1.168   6.216   9.813 -0.2401  0.0499 -0.4682
   88SAPS   H8R 8463   1.257   6.154   9.832  3.3176  4.0741 -2.4949
   88SAPS   C29 8464   1.102   6.199   9.697 -0.8281 -0.2896 -0.5452
   88SAPS   H9R 8465   1.148   6.135   9.620  1.1260  1.1437 -0.6387
   88SAPS  C210 8466   0.987   6.283   9.654 -0.2903 -0.3815 -0.6253
   88SAPS  H10R 8467   1.020   6.368   9.590 -0.8120  1.3319  1.2621
   88SAPS  H10S 8468   0.926   6.333   9.732 -1.1320  1.1203 -2.1484
   88SAPS  C211 8469   0.890   6.201   9.568 -0.2244  0.2931 -0.0999
   88SAPS  H11R 8470   0.802   6.162   9.622 -0.2988  1.2000  0.4502
   88SAPS  C212 8471   0.904   6.169   9.439 -0.0136  0.0707 -1.8790
   88SAPS  H12R 8472   0.819   6.114   9.395  0.3980 -2.2340 -0.0132
   88SAPS  C213 8473   1.011   6.215   9.347 -0.1510  0.0764  0.2885
   88SAPS  H13R 8474   1.051   6.124   9.299 -0.2467 -0.7067  1.6312
   88SAPS  H13S 8475   1.099   6.254   9.401  0.8901 -0.8607 -0.6867
   88SAPS  C214 8476   0.970   6.321   9.252 -0.2593 -1.1101  0.2460
   88SAPS  H14R 8477   0.955   6.423   9.291 -1.0126 -1.3834  0.6969
   88SAPS  C215 8478   0.962   6.320   9.116  0.2445 -0.0216 -0.3204
   88SAPS  H15R 8479   0.926   6.407   9.059 -0.3020  0.6199  0.9565
   88SAPS  C216 8480   0.987   6.197   9.034  0.3807  0.6896  0.2819
   88SAPS  H16R 8481   0.941   6.112   9.089  1.5441  0.0677  0.3350
   88SAPS  H16S 8482   1.093   6.168   9.014 -0.6307 -1.5428 -2.6370
   88SAPS  C217 8483   0.911   6.206   8.892 -0.5761 -0.9594 -0.3879
   88SAPS  H17R 8484   0.802   6.218   8.912 -0.1548  1.4130  0.9470
   88SAPS  H17S 8485   0.926   6.105   8.849  2.7764 -0.2503 -1.1898
   88SAPS  C218 8486   0.939   6.327   8.800 -0.1570  0.4861 -0.0224
   88SAPS  H18R 8487   1.050   6.329   8.793  0.0506  2.1806  2.5891
   88SAPS  H18S 8488   0.901   6.421   8.845 -1.5758  1.4060 -2.8769
   88SAPS  C219 8489   0.859   6.311   8.668 -0.1298  0.0114 -0.4641
   88SAPS  H19R 8490   0.860   6.409   8.615 -1.9808  0.5084  0.3587
   88SAPS  H19S 8491   0.754   6.284   8.693 -0.3571  2.0477  1.0509
   88SAPS  C220 8492   0.909   6.217   8.562 -0.3858  0.2475 -0.3263
   88SAPS  H20R 8493   0.887   6.117   8.604 -2.6476  0.6705 -0.3589
   88SAPS  H20S 8494   1.015   6.228   8.533 -0.0449  1.0741  1.1071
   88SAPS  H20T 8495   0.854   6.218   8.465  2.5015 -1.1426 -2.0993
   88SAPS   C33 8496   1.372   5.794  10.064 -0.6129  0.4590 -0.4549
   88SAPS   H3X 8497   1.276   5.751  10.027 -0.4742 -0.0250 -0.2602
   88SAPS   H3Y 8498   1.426   5.722  10.130  0.5832  0.6846 -1.1463
   88SAPS   C34 8499   1.454   5.802   9.934 -0.8360  0.4157  0.3004
   88SAPS   H4X 8500   1.480   5.699   9.902  0.4851  0.4004  1.3513
   88SAPS   H4Y 8501   1.548   5.859   9.951  0.2704 -0.8211 -1.3465
   88SAPS   C35 8502   1.386   5.862   9.813  0.2634 -0.0338 -0.3627
   88SAPS   H5X 8503   1.361   5.968   9.833 -1.1102 -0.3023 -0.5516
   88SAPS   H5Y 8504   1.288   5.813   9.795  0.9144 -0.6537 -2.5641
   88SAPS   C36 8505   1.465   5.846   9.686 -0.2952  0.6655 -0.2616
   88SAPS   H6X 8506   1.504   5.745   9.663  0.5000  0.7999  0.4171
   88SAPS   H6Y 8507   1.553   5.914   9.688  1.0196 -0.9794 -0.2219
   88SAPS   C37 8508   1.358   5.875   9.576 -0.3220  0.4403  0.9710
   88SAPS   H7X 8509   1.321   5.977   9.602 -2.2467  0.3059 -0.9337
   88SAPS   H7Y 8510   1.268   5.812   9.595  1.1048 -1.2175  2.7182
   88SAPS   C38 8511   1.415   5.848   9.432 -0.0403  0.1165 -1.1102
   88SAPS   H8X 8512   1.430   5.738   9.427 -0.6368 -0.1044  0.9736
   88SAPS   H8Y 8513   1.510   5.904   9.415 -0.7453  1.1942 -1.5937
   88SAPS   C39 8514   1.321   5.887   9.320  0.7226  0.2871 -0.4403
   88SAPS   H9X 8515   1.284   5.990   9.340 -0.9314 -0.5612  1.1612
   88SAPS   H9Y 8516   1.234   5.822   9.340  0.7151  0.6314  0.7761
   88SAPS  C310 8517   1.387   5.860   9.180  0.3460 -0.1371  0.0774
   88SAPS  H10X 8518   1.415   5.753   9.177  0.1576 -0.1746 -2.8824
   88SAPS  H10Y 8519   1.486   5.911   9.187  1.1070 -1.7278  1.9426
   88SAPS  C311 8520   1.290   5.900   9.073 -0.3118 -0.5665  0.1740
   88SAPS  H11X 8521   1.343   5.907   8.975 -1.5293  1.8827 -0.3849
   88SAPS  H11Y 8522   1.251   6.003   9.086 -0.5647 -0.5942 -0.3078
   88SAPS  C312 8523   1.161   5.815   9.055 -0.0907  0.4322  0.1329
   88SAPS  H12X 8524   1.084   5.835   9.133  1.1504  0.1646  1.4607
   88SAPS  H12Y 8525   1.193   5.709   9.039  0.2984  0.7615 -1.4758
   88SAPS  C313 8526   1.084   5.837   8.920 -0.1372  0.8282 -0.3131
   88SAPS  H13X 8527   1.158   5.815   8.840  0.2622  0.2561  0.1945
   88SAPS  H13Y 8528   1.057   5.944   8.912 -2.4882  0.2100 -1.5156
   88SAPS  C314 8529   0.958   5.763   8.902 -0.3972  0.7512  0.0898
   88SAPS  H14X 8530   0.968   5.663   8.949 -1.2294  0.9336  0.6909
   88SAPS  H14Y 8531   0.928   5.742   8.798  1.4846  1.5104 -0.6603
   88SAPS  C315 8532   0.842   5.824   8.973  1.1298 -0.2897  0.4287
   88SAPS  H15X 8533   0.829   5.928   8.937  0.2166  0.0566  1.6943
   88SAPS  H15Y 8534   0.847   5.836   9.084 -1.0224 -0.1620  0.5632
   88SAPS  C316 8535   0.709   5.752   8.940 -0.1132  0.4915  0.0103
   88SAPS  H16X 8536   0.631   5.769   9.017  1.6219  0.0459  1.9656
   88SAPS  H16Y 8537   0.736   5.644   8.939  1.0892  0.7736 -1.1745
   88SAPS  C317 8538   0.650   5.788   8.799 -0.4557  0.6264  0.1144
   88SAPS  H17X 8539   0.729   5.810   8.724 -0.1897  0.0441  0.2148
   88SAPS  H17Y 8540   0.577   5.869   8.817 -1.9840 -0.7468  0.3969
   88SAPS  C318 8541   0.565   5.681   8.733  0.0987 -0.2411  0.0991
   88SAPS  H18X 8542   0.631   5.620   8.668 -0.9068 -1.1317 -0.1147
   88SAPS  H18Y 8543   0.492   5.727   8.663  0.6322  0.5067  0.0129
   88SAPS  H18Z 8544   0.514   5.612   8.802  2.6670 -4.4461 -1.8385
   89SAPS     N 8545   1.575   2.424  10.868  0.1682  0.0355 -0.3016
   89SAPS   HN1 8546   1.638   2.507  10.861 -1.9767  1.8429  0.6308
   89SAPS   HN2 8547   1.624   2.333  10.858  0.0800 -0.2031  1.1344
   89SAPS   HN3 8548   1.509   2.432  10.789 -2.0108  0.5424  1.4748
   89SAPS   C12 8549   1.500   2.431  10.998  0.3710 -0.4294  0.4363
   89SAPS  H12A 8550   1.417   2.362  10.991  1.3855 -1.6761  0.4259
   89SAPS   C13 8551   1.580   2.395  11.122 -0.0575 -0.1181 -0.4060
   89SAPS  O13A 8552   1.704   2.372  11.111  0.1179  0.5636 -0.5194
   89SAPS  O13B 8553   1.524   2.410  11.238  0.1645 -0.1162  0.2486
   89SAPS   C11 8554   1.436   2.575  11.008 -0.1478 -0.3138 -0.1112
   89SAPS  H11A 8555   1.508   2.659  11.020 -1.6278  1.3828 -2.2608
   89SAPS  H11B 8556   1.382   2.579  11.105  3.1784 -2.0618  2.0029
   89SAPS     P 8557   1.273   2.736  10.874 -0.2685 -0.3340 -0.3004
   89SAPS   O13 8558   1.131   2.722  10.915 -0.5450 -0.1686 -0.4943
   89SAPS   O14 8559   1.332   2.845  10.944 -0.4025  0.0003 -0.0579
   89SAPS   O12 8560   1.339   2.595  10.898  0.2926 -0.1625  0.1223
   89SAPS   O11 8561   1.285   2.750  10.721 -0.5610 -0.2367  0.4616
   89SAPS    C1 8562   1.410   2.776  10.648 -0.5349 -0.0145 -0.3344
   89SAPS    HA 8563   1.466   2.869  10.669  1.0835 -1.0470  0.1993
   89SAPS    HB 8564   1.483   2.697  10.677  0.7490  0.7080 -1.4845
   89SAPS    C2 8565   1.387   2.768  10.497  0.3820 -0.0423 -0.3919
   89SAPS    HS 8566   1.309   2.844  10.476 -1.7512 -1.6362  1.2794
   89SAPS   O21 8567   1.328   2.643  10.466  0.0557  0.0404  0.0033
   89SAPS   C21 8568   1.249   2.632  10.358 -0.1953 -0.3157  0.3413
   89SAPS   O22 8569   1.228   2.724  10.277  0.0165  0.3115  0.1184
   89SAPS   C22 8570   1.198   2.487  10.341 -0.3196 -0.2628 -0.4922
   89SAPS   H2R 8571   1.198   2.433  10.438  3.4759 -1.0363 -0.7892
   89SAPS   H2S 8572   1.090   2.502  10.320  0.0136 -0.8110 -2.7495
   89SAPS    C3 8573   1.511   2.800  10.413 -0.1555 -0.2144  0.6085
   89SAPS    HX 8574   1.594   2.729  10.435  0.1096  0.1723  0.8860
   89SAPS    HY 8575   1.550   2.901  10.439 -1.0872  0.2155  0.3905
   89SAPS   O31 8576   1.494   2.798  10.270 -0.3291 -0.3459  0.9501
   89SAPS   C31 8577   1.474   2.907  10.207 -0.8041 -0.2074  0.2832
   89SAPS   O32 8578   1.460   3.019  10.259  0.0378  0.0605 -0.4226
   89SAPS   C32 8579   1.476   2.872  10.055 -0.4917 -0.6277 -0.4632
   89SAPS   H2X 8580   1.374   2.832  10.041 -0.8064  0.2691 -0.8361
   89SAPS   H2Y 8581   1.553   2.793  10.042 -1.4758 -1.5563 -0.7435
   89SAPS   C23 8582   1.296   2.417  10.242 -0.5001  0.8985 -0.2526
   89SAPS   H3R 8583   1.314   2.314  10.280 -0.3852  1.0781  0.1805
   89SAPS   H3S 8584   1.388   2.477  10.234 -1.1563  1.8170 -1.1122
   89SAPS   C24 8585   1.231   2.398  10.103  0.4167  1.0521  1.4694
   89SAPS   H4R 8586   1.142   2.334  10.119  0.5632  0.4806  0.0894
   89SAPS   H4S 8587   1.297   2.342  10.034  2.1503  1.1363  2.9648
   89SAPS   C25 8588   1.165   2.529  10.037 -0.1739 -0.4964  0.2540
   89SAPS   H5R 8589   1.106   2.592  10.105  0.2474  2.8483 -2.2445
   89SAPS   C26 8590   1.180   2.581   9.913  0.0478 -0.2893  0.1462
   89SAPS   H6R 8591   1.131   2.674   9.883 -0.8298 -0.4557  1.0232
   89SAPS   C27 8592   1.271   2.518   9.806 -0.5440 -0.2823  0.2566
   89SAPS   H7R 8593   1.211   2.449   9.743 -0.2427  0.0850 -0.4446
   89SAPS   H7S 8594   1.341   2.447   9.853  1.4868  0.9976 -0.6880
   89SAPS   C28 8595   1.335   2.621   9.717 -0.7181  0.1153  0.2278
   89SAPS   H8R 8596   1.415   2.679   9.766  2.1110 -1.1199 -2.6001
   89SAPS   C29 8597   1.306   2.657   9.590 -0.1411  0.0883 -0.2724
   89SAPS   H9R 8598   1.359   2.739   9.539  0.8303  0.5987  1.4879
   89SAPS  C210 8599   1.196   2.584   9.512  0.9689 -0.2649 -0.0973
   89SAPS  H10R 8600   1.149   2.660   9.447  1.3735 -1.4956 -1.9053
   89SAPS  H10S 8601   1.111   2.547   9.574 -0.8797  1.3756 -1.5184
   89SAPS  C211 8602   1.250   2.471   9.423 -0.9703 -0.1420 -0.5848
   89SAPS  H11R 8603   1.307   2.395   9.478  0.0991 -0.1350 -1.6486
   89SAPS  C212 8604   1.237   2.459   9.289 -0.1794  0.0402  0.4295
   89SAPS  H12R 8605   1.284   2.372   9.242  0.5195 -0.6528  2.3103
   89SAPS  C213 8606   1.172   2.556   9.194  0.6360  0.2936  0.2554
   89SAPS  H13R 8607   1.253   2.595   9.129 -0.6800  1.2072 -0.8961
   89SAPS  H13S 8608   1.131   2.648   9.242  0.8491  1.4293 -1.6296
   89SAPS  C214 8609   1.053   2.494   9.127  1.3163 -0.0745  1.4407
   89SAPS  H14R 8610   0.963   2.460   9.180  0.1031  1.7652  0.6731
   89SAPS  C215 8611   1.041   2.462   8.997 -0.2286  0.0386 -0.2436
   89SAPS  H15R 8612   0.952   2.402   8.972  0.6090 -0.5787 -1.8839
   89SAPS  C216 8613   1.151   2.472   8.889  0.3121  0.5010 -0.2221
   89SAPS  H16R 8614   1.133   2.402   8.804  2.5905  0.1768 -0.4831
   89SAPS  H16S 8615   1.242   2.422   8.928 -0.4789  0.2891  1.4813
   89SAPS  C217 8616   1.186   2.616   8.850 -1.0640  0.8998 -0.0385
   89SAPS  H17R 8617   1.185   2.675   8.944  0.4621 -0.4315  0.8627
   89SAPS  H17S 8618   1.108   2.641   8.775 -1.4326 -0.7644 -0.2585
   89SAPS  C218 8619   1.337   2.627   8.806  0.2769  1.2669  0.2171
   89SAPS  H18R 8620   1.365   2.534   8.753 -2.4652 -1.2280  2.7657
   89SAPS  H18S 8621   1.411   2.624   8.889 -1.8871  0.6175  2.2275
   89SAPS  C219 8622   1.371   2.746   8.717  0.0762 -0.3090  0.3476
   89SAPS  H19R 8623   1.307   2.738   8.627 -0.3650 -0.7438  0.6993
   89SAPS  H19S 8624   1.474   2.743   8.676  0.5658 -1.7969  1.5668
   89SAPS  C220 8625   1.335   2.881   8.784 -0.0068 -0.4651 -0.0603
   89SAPS  H20R 8626   1.341   2.970   8.718  0.7233  0.0916  0.7381
   89SAPS  H20S 8627   1.411   2.907   8.861  0.1018  0.4725 -0.4774
   89SAPS  H20T 8628   1.234   2.882   8.830 -0.0104  1.3803 -0.0518
   89SAPS   C33 8629   1.502   2.995   9.955 -0.1496 -0.0015  0.2505
   89SAPS   H3X 8630   1.581   3.061   9.997  0.8512 -0.6750 -0.5220
   89SAPS   H3Y 8631   1.411   3.058   9.945 -0.7413 -1.1077 -1.9067
   89SAPS   C34 8632   1.548   2.945   9.816 -0.0893  0.0974  0.5498
   89SAPS   H4X 8633   1.480   2.869   9.771 -0.2634  0.4021  0.2936
   89SAPS   H4Y 8634   1.637   2.879   9.814 -2.1044 -2.8022 -1.0889
   89SAPS   C35 8635   1.557   3.064   9.715 -0.0386  0.2025  0.2919
   89SAPS   H5X 8636   1.578   3.153   9.779 -4.1246 -0.8907  3.6775
   89SAPS   H5Y 8637   1.453   3.075   9.677 -0.3050  1.2049  1.2394
   89SAPS   C36 8638   1.658   3.060   9.597 -0.4599  0.2272  0.2526
   89SAPS   H6X 8639   1.761   3.071   9.638 -0.2664 -3.2232  0.9747
   89SAPS   H6Y 8640   1.635   3.135   9.518  0.8924  0.8215  0.3888
   89SAPS   C37 8641   1.645   2.926   9.526 -0.5281  0.3268 -0.5228
   89SAPS   H7X 8642   1.546   2.892   9.488  0.4291 -1.2418 -1.7714
   89SAPS   H7Y 8643   1.685   2.840   9.584  0.3014  0.1857 -1.2756
   89SAPS   C38 8644   1.735   2.921   9.399  0.7429 -0.3494 -0.2719
   89SAPS   H8X 8645   1.752   2.812   9.388  0.8329 -0.7807  3.2476
   89SAPS   H8Y 8646   1.833   2.970   9.421  0.6515  0.8118 -2.1689
   89SAPS   C39 8647   1.674   2.986   9.279  1.0611  0.5859  0.5342
   89SAPS   H9X 8648   1.652   3.092   9.303  0.7756  0.3088  1.5689
   89SAPS   H9Y 8649   1.567   2.956   9.276  0.8482  1.3148  0.5120
   89SAPS  C310 8650   1.742   2.984   9.137 -0.3214 -0.0455 -1.0142
   89SAPS  H10X 8651   1.849   2.996   9.163 -0.8963  1.7876  0.8073
   89SAPS  H10Y 8652   1.706   3.072   9.079  0.5766  0.0397 -1.4538
   89SAPS  C311 8653   1.718   2.859   9.054  0.1813 -0.2613 -0.2236
   89SAPS  H11X 8654   1.618   2.857   9.004 -0.1848 -0.4431  0.5032
   89SAPS  H11Y 8655   1.711   2.770   9.120 -1.6975 -1.2862 -1.7094
   89SAPS  C312 8656   1.819   2.825   8.951 -0.7350  0.7158  0.1781
   89SAPS  H12X 8657   1.810   2.718   8.922  0.1416  0.8566 -0.6587
   89SAPS  H12Y 8658   1.922   2.823   8.993 -0.5095  2.0911 -0.2792
   89SAPS  C313 8659   1.832   2.917   8.825 -0.1724  0.9166 -0.3908
   89SAPS  H13X 8660   1.938   2.923   8.791 -0.0607 -0.5330 -0.3543
   89SAPS  H13Y 8661   1.804   3.022   8.850  1.3060  1.1961  0.1817
   89SAPS  C314 8662   1.743   2.864   8.710  0.4823  0.2660 -0.1083
   89SAPS  H14X 8663   1.643   2.859   8.759 -1.3083 -0.5411 -3.5384
   89SAPS  H14Y 8664   1.775   2.764   8.674 -1.9994  0.3366 -2.8982
   89SAPS  C315 8665   1.731   2.963   8.592 -0.3330  0.3744 -0.5025
   89SAPS  H15X 8666   1.832   2.977   8.548  0.1867 -2.7213 -0.5337
   89SAPS  H15Y 8667   1.695   3.062   8.626  0.6271  1.0373 -1.3322
   89SAPS  C316 8668   1.623   2.922   8.486  0.8572 -0.1510  0.5188
   89SAPS  H16X 8669   1.625   3.019   8.432  2.9427  1.0489  2.5430
   89SAPS  H16Y 8670   1.527   2.912   8.542 -1.4324  1.5596 -2.7864
   89SAPS  C317 8671   1.659   2.813   8.387 -0.8886 -0.6194  1.1155
   89SAPS  H17X 8672   1.769   2.810   8.376 -1.0010  0.2220 -0.5709
   89SAPS  H17Y 8673   1.607   2.844   8.294 -1.7218 -0.2035  1.7093
   89SAPS  C318 8674   1.626   2.671   8.426  0.2765  0.0662 -0.1282
   89SAPS  H18X 8675   1.654   2.594   8.350  1.1907 -0.6898  0.9477
   89SAPS  H18Y 8676   1.517   2.655   8.443  0.3022  0.8742  0.8839
   89SAPS  H18Z 8677   1.672   2.631   8.519 -0.2868 -3.8701 -1.3253
   90SAPS     N 8678   1.512   2.987  11.097  0.0640  0.3369  0.3346
   90SAPS   HN1 8679   1.463   3.073  11.128 -0.0204  0.2093  0.5566
   90SAPS   HN2 8680   1.460   2.928  11.030 -1.4485  0.5367  1.2906
   90SAPS   HN3 8681   1.516   2.934  11.186  2.1301 -1.1491 -0.5639
   90SAPS   C12 8682   1.643   3.038  11.068  0.0645  0.9190 -0.1579
   90SAPS  H12A 8683   1.628   3.111  10.989  1.7468  0.5841 -0.8518
   90SAPS   C13 8684   1.718   3.112  11.181 -0.6636  0.2483  0.3353
   90SAPS  O13A 8685   1.715   3.063  11.300 -0.4017  0.3789  0.1694
   90SAPS  O13B 8686   1.803   3.198  11.141  0.3406 -0.5924 -0.0773
   90SAPS   C11 8687   1.730   2.911  11.031 -0.6189 -0.6483 -0.2566
   90SAPS  H11A 8688   1.733   2.828  11.105  2.6744 -2.9320 -2.7182
   90SAPS  H11B 8689   1.836   2.940  11.019 -1.1137  0.4408 -2.6675
   90SAPS     P 8690   1.788   2.740  10.850  0.0227 -0.0310 -0.1219
   90SAPS   O13 8691   1.876   2.683  10.949 -0.2542  0.1055  0.3693
   90SAPS   O14 8692   1.716   2.635  10.777 -0.1050 -0.1928  0.4247
   90SAPS   O12 8693   1.685   2.843  10.917  0.1337 -0.0792 -0.4422
   90SAPS   O11 8694   1.874   2.827  10.748  0.1260 -0.4275  0.6003
   90SAPS    C1 8695   1.817   2.939  10.686  0.1547 -0.2448 -0.0734
   90SAPS    HA 8696   1.723   2.914  10.631 -0.9377  0.4975  1.3948
   90SAPS    HB 8697   1.789   3.012  10.765 -0.5945 -0.7478  0.1407
   90SAPS    C2 8698   1.913   3.020  10.595  0.3235  0.0742  0.5078
   90SAPS    HS 8699   1.866   3.111  10.553 -2.4937 -1.3335  0.3765
   90SAPS   O21 8700   1.970   2.925  10.496 -0.1178 -0.2149  0.3206
   90SAPS   C21 8701   1.897   2.908  10.396  0.0163 -0.0078 -0.1377
   90SAPS   O22 8702   1.804   2.983  10.365  0.0295 -0.0555 -0.4995
   90SAPS   C22 8703   1.915   2.774  10.331  0.3245 -0.3457 -0.6198
   90SAPS   H2R 8704   1.916   2.703  10.417 -0.1231 -0.4188 -0.6718
   90SAPS   H2S 8705   1.826   2.734  10.278 -0.3061 -2.1002  1.5712
   90SAPS    C3 8706   2.028   3.071  10.691 -0.6566  0.0989  0.8431
   90SAPS    HX 8707   2.102   2.988  10.682  0.0556  0.8423 -0.5647
   90SAPS    HY 8708   1.997   3.078  10.798 -1.3477  1.2069  0.5809
   90SAPS   O31 8709   2.099   3.193  10.642  0.6109  0.9213 -0.2153
   90SAPS   C31 8710   2.048   3.295  10.684  0.6144  0.5833 -0.3759
   90SAPS   O32 8711   1.966   3.306  10.776 -0.1271 -0.1360 -0.1136
   90SAPS   C32 8712   2.113   3.416  10.616  0.6621  0.1733  0.2691
   90SAPS   H2X 8713   2.210   3.440  10.664  0.7485 -1.3218  0.9051
   90SAPS   H2Y 8714   2.041   3.500  10.618  0.1390 -0.1884 -1.5237
   90SAPS   C23 8715   2.045   2.750  10.250 -0.2998  1.2052 -0.1053
   90SAPS   H3R 8716   2.018   2.660  10.192  1.9836  0.5111 -0.1854
   90SAPS   H3S 8717   2.136   2.729  10.311 -0.0991 -3.0989 -1.5548
   90SAPS   C24 8718   2.070   2.859  10.143  0.5588  0.0285  0.2428
   90SAPS   H4R 8719   2.170   2.835  10.101  0.7364 -0.9937  1.1934
   90SAPS   H4S 8720   2.088   2.951  10.202  0.8242 -1.9965  3.5401
   90SAPS   C25 8721   1.965   2.874  10.036 -0.3535  0.0546 -0.6517
   90SAPS   H5R 8722   1.861   2.876  10.072  0.0008  1.0190  0.3620
   90SAPS   C26 8723   1.996   2.891   9.904 -0.7502 -0.2437 -0.3184
   90SAPS   H6R 8724   1.918   2.895   9.826 -0.4268 -0.3305 -0.6486
   90SAPS   C27 8725   2.133   2.887   9.848 -0.3916  0.3785  0.5237
   90SAPS   H7R 8726   2.199   2.931   9.926 -0.5874  2.9036 -0.6249
   90SAPS   H7S 8727   2.156   2.968   9.775  0.1555  0.9443  1.3033
   90SAPS   C28 8728   2.189   2.750   9.808  0.0029  0.5790  0.2071
   90SAPS   H8R 8729   2.174   2.672   9.884  1.0367  0.6208  0.4686
   90SAPS   C29 8730   2.242   2.718   9.693  0.4782 -0.5554  0.5992
   90SAPS   H9R 8731   2.290   2.619   9.689  0.6038 -0.5378 -3.5984
   90SAPS  C210 8732   2.270   2.799   9.563 -0.5577 -0.3225 -0.4104
   90SAPS  H10R 8733   2.380   2.792   9.551 -0.2367  0.6536  1.6862
   90SAPS  H10S 8734   2.259   2.905   9.596  2.0971  0.3430 -1.4490
   90SAPS  C211 8735   2.191   2.759   9.438  0.2937  0.7189 -0.6364
   90SAPS  H11R 8736   2.161   2.653   9.440  3.3930 -0.2440 -0.3778
   90SAPS  C212 8737   2.140   2.846   9.342  0.6327  0.0429 -0.2661
   90SAPS  H12R 8738   2.078   2.791   9.269  0.1572 -2.8272  2.1460
   90SAPS  C213 8739   2.164   2.995   9.334  0.5947  1.2835  0.0826
   90SAPS  H13R 8740   2.162   3.043   9.434  0.8876  1.4278  0.0216
   90SAPS  H13S 8741   2.079   3.035   9.275 -1.3428 -3.3569 -0.6355
   90SAPS  C214 8742   2.296   3.032   9.279 -0.0007 -0.2198 -0.1413
   90SAPS  H14R 8743   2.372   3.075   9.345 -1.2437  2.2567 -0.1985
   90SAPS  C215 8744   2.328   3.009   9.150 -0.5768  0.0666  0.3015
   90SAPS  H15R 8745   2.426   3.049   9.119 -1.3811  2.1866  0.3554
   90SAPS  C216 8746   2.238   2.945   9.042  0.0824  0.7494 -0.6496
   90SAPS  H16R 8747   2.139   2.997   9.038 -0.1956  0.3419  0.4515
   90SAPS  H16S 8748   2.226   2.837   9.064  0.2539  0.3324 -2.4982
   90SAPS  C217 8749   2.309   2.975   8.909  0.0365  0.8671  0.4355
   90SAPS  H17R 8750   2.262   2.905   8.837 -0.5908 -0.0377  1.6875
   90SAPS  H17S 8751   2.418   2.956   8.899 -0.5807 -2.9623 -0.6353
   90SAPS  C218 8752   2.278   3.110   8.859  0.2026  1.1318 -0.3273
   90SAPS  H18R 8753   2.327   3.185   8.924 -0.3917 -0.5067  2.1408
   90SAPS  H18S 8754   2.171   3.130   8.875  0.1111  2.2032 -2.0316
   90SAPS  C219 8755   2.301   3.133   8.710  0.0529  1.1149 -0.8826
   90SAPS  H19R 8756   2.212   3.092   8.658  0.6158 -0.9041 -0.3289
   90SAPS  H19S 8757   2.396   3.094   8.669  0.6972  1.6031  0.1036
   90SAPS  C220 8758   2.315   3.287   8.691 -0.8968 -0.2721  1.0575
   90SAPS  H20R 8759   2.419   3.325   8.700 -0.1080 -2.2715  0.9418
   90SAPS  H20S 8760   2.258   3.340   8.769 -0.6818  0.0974  0.9662
   90SAPS  H20T 8761   2.280   3.321   8.591  0.0695 -1.4718  0.2790
   90SAPS   C33 8762   2.135   3.401  10.463  0.0982  0.4581  0.1802
   90SAPS   H3X 8763   2.044   3.356  10.416 -1.3056  3.0370  0.2762
   90SAPS   H3Y 8764   2.222   3.333  10.449 -1.0000 -1.0544  0.4142
   90SAPS   C34 8765   2.175   3.535  10.403 -0.2896  0.2210  0.2402
   90SAPS   H4X 8766   2.242   3.585  10.476 -0.1563  0.7886 -0.2653
   90SAPS   H4Y 8767   2.089   3.602  10.381 -0.7597 -0.6195 -0.5583
   90SAPS   C35 8768   2.233   3.511  10.264  0.7149 -0.2337  0.1163
   90SAPS   H5X 8769   2.165   3.463  10.190  0.0072  0.1177  0.5439
   90SAPS   H5Y 8770   2.315   3.437  10.277 -0.0931 -2.0017 -3.4554
   90SAPS   C36 8771   2.292   3.643  10.203 -0.3574  0.2532 -0.0010
   90SAPS   H6X 8772   2.357   3.681  10.285  2.6682  0.4551 -2.3000
   90SAPS   H6Y 8773   2.214   3.719  10.182  1.0474  1.5812 -0.6044
   90SAPS   C37 8774   2.393   3.616  10.089  0.4218 -0.2398 -0.3614
   90SAPS   H7X 8775   2.354   3.539  10.020  1.0648 -1.6973  0.8595
   90SAPS   H7Y 8776   2.479   3.572  10.144  0.8058  0.0406 -0.7318
   90SAPS   C38 8777   2.420   3.741  10.011  0.4211 -0.0621 -0.3477
   90SAPS   H8X 8778   2.476   3.820  10.065 -1.3688  0.6694  0.5032
   90SAPS   H8Y 8779   2.320   3.789  10.005  0.4423  0.4697  2.4363
   90SAPS   C39 8780   2.467   3.730   9.864 -0.2589  0.4867  0.0149
   90SAPS   H9X 8781   2.408   3.651   9.812  0.5861 -1.2454  1.5459
   90SAPS   H9Y 8782   2.569   3.687   9.871 -0.1235  0.7646 -0.2240
   90SAPS  C310 8783   2.480   3.864   9.792 -0.4239  0.1559  0.1869
   90SAPS  H10X 8784   2.504   3.942   9.868 -0.8671  0.3397  0.1417
   90SAPS  H10Y 8785   2.380   3.888   9.749 -0.0813  2.3420  0.4763
   90SAPS  C311 8786   2.584   3.873   9.682  0.5871 -0.0143  0.4987
   90SAPS  H11X 8787   2.677   3.833   9.728  0.0355  0.7776  2.4068
   90SAPS  H11Y 8788   2.592   3.982   9.661  2.5967  0.3534  2.6756
   90SAPS  C312 8789   2.529   3.789   9.564  0.3403 -0.5852  0.5925
   90SAPS  H12X 8790   2.457   3.850   9.504  2.6757  2.1071  0.3027
   90SAPS  H12Y 8791   2.466   3.708   9.606  0.1280  0.2677  1.9796
   90SAPS  C313 8792   2.646   3.752   9.470 -0.2348 -0.2319 -0.0336
   90SAPS  H13X 8793   2.732   3.704   9.522 -0.3484 -1.4278 -0.9122
   90SAPS  H13Y 8794   2.684   3.839   9.412  0.9315 -0.8641 -0.2464
   90SAPS  C314 8795   2.596   3.642   9.378 -0.1066  0.0292 -0.1934
   90SAPS  H14X 8796   2.529   3.570   9.430 -0.5783  0.5285 -0.0919
   90SAPS  H14Y 8797   2.681   3.584   9.338  0.2783  0.3592  0.1410
   90SAPS  C315 8798   2.520   3.706   9.265 -0.1299 -0.3182  0.3030
   90SAPS  H15X 8799   2.563   3.805   9.238  1.1947 -0.4362  1.8466
   90SAPS  H15Y 8800   2.420   3.731   9.306 -0.6445 -1.4861 -0.1855
   90SAPS  C316 8801   2.513   3.608   9.151  0.3364  0.3288 -0.2581
   90SAPS  H16X 8802   2.447   3.523   9.181  0.9008  0.1108  0.3763
   90SAPS  H16Y 8803   2.619   3.583   9.130  0.7229  1.2824  0.4998
   90SAPS  C317 8804   2.453   3.667   9.027  0.5058  0.6808  0.0625
   90SAPS  H17X 8805   2.498   3.767   9.009 -0.8902  1.1728 -0.8905
   90SAPS  H17Y 8806   2.348   3.697   9.048 -0.0795 -0.7524 -0.6995
   90SAPS  C318 8807   2.458   3.582   8.898  0.3428 -0.5781 -0.2808
   90SAPS  H18X 8808   2.399   3.490   8.919 -1.2907 -0.1138 -2.4975
   90SAPS  H18Y 8809   2.562   3.558   8.869  0.4883  0.0033 -0.2519
   90SAPS  H18Z 8810   2.418   3.643   8.814 -0.0470  0.3005  0.5237
   91SAPS     N 8811   2.029   4.734   6.074 -0.0647  0.0243 -0.1830
   91SAPS   HN1 8812   2.033   4.643   6.125  2.2586  0.1846  0.0559
   91SAPS   HN2 8813   1.959   4.792   6.122  0.7503  0.4168  0.5556
   91SAPS   HN3 8814   2.007   4.728   5.972 -0.4127  0.4906 -0.1334
   91SAPS   C12 8815   2.164   4.789   6.089 -0.4088  0.9975  0.2416
   91SAPS  H12A 8816   2.234   4.758   6.013  2.4545 -1.4566  3.5217
   91SAPS   C13 8817   2.167   4.943   6.106  0.0863 -0.1214  0.8464
   91SAPS  O13A 8818   2.059   5.010   6.115 -0.0798  0.1463 -0.1654
   91SAPS  O13B 8819   2.278   5.001   6.130 -0.2017 -0.8044 -0.0755
   91SAPS   C11 8820   2.235   4.734   6.214  0.2603  0.4208  0.0204
   91SAPS  H11A 8821   2.176   4.744   6.307 -0.9558 -1.1792 -0.5487
   91SAPS  H11B 8822   2.322   4.802   6.229 -2.2648  3.3280  2.8561
   91SAPS     P 8823   2.182   4.482   6.259  0.4551  0.3272 -0.1851
   91SAPS   O13 8824   2.045   4.510   6.203 -0.3071  0.2359 -0.6294
   91SAPS   O14 8825   2.230   4.347   6.222 -0.1312 -0.4952 -0.4047
   91SAPS   O12 8826   2.277   4.600   6.203 -0.3916  0.2581  0.5669
   91SAPS   O11 8827   2.174   4.494   6.415 -0.2182 -1.1011  0.2759
   91SAPS    C1 8828   2.297   4.515   6.489 -0.0797 -0.4597 -0.0525
   91SAPS    HA 8829   2.361   4.425   6.476 -0.4182 -0.8176  0.6752
   91SAPS    HB 8830   2.356   4.604   6.457  0.4264 -0.4719  0.8114
   91SAPS    C2 8831   2.259   4.532   6.641  0.3092  0.1317  0.6159
   91SAPS    HS 8832   2.352   4.565   6.692  0.2924 -1.0177  1.4381
   91SAPS   O21 8833   2.214   4.406   6.698  0.7434  0.5413 -0.1571
   91SAPS   C21 8834   2.307   4.316   6.723  0.5335  0.1986 -0.8841
   91SAPS   O22 8835   2.426   4.327   6.691  0.1030 -0.3210 -0.4181
   91SAPS   C22 8836   2.246   4.206   6.809  0.2478 -0.5084  0.4904
   91SAPS   H2R 8837   2.169   4.251   6.875  0.2539  0.8395 -0.4064
   91SAPS   H2S 8838   2.207   4.135   6.732  0.2458  0.4726 -0.4308
   91SAPS    C3 8839   2.146   4.639   6.653  0.1233 -0.6414  0.5862
   91SAPS    HX 8840   2.067   4.577   6.607  0.3237 -2.6926  2.8062
   91SAPS    HY 8841   2.138   4.728   6.588  0.4212 -1.4603 -0.6068
   91SAPS   O31 8842   2.106   4.665   6.788 -0.1287 -0.1871  0.3125
   91SAPS   C31 8843   2.173   4.763   6.852 -0.6655 -0.2611 -0.8535
   91SAPS   O32 8844   2.271   4.823   6.811 -0.0592  0.0930 -0.2207
   91SAPS   C32 8845   2.099   4.802   6.975  0.0361 -0.1632 -1.0758
   91SAPS   H2X 8846   1.990   4.809   6.951 -0.1003 -0.1885 -0.4753
   91SAPS   H2Y 8847   2.112   4.907   7.008 -5.4314 -0.5041  3.8763
   91SAPS   C23 8848   2.350   4.129   6.900  0.1854  0.3446 -0.2261
   91SAPS   H3R 8849   2.424   4.083   6.832  0.4075  0.0939  0.1850
   91SAPS   H3S 8850   2.290   4.048   6.946  0.2364  0.8068  0.6648
   91SAPS   C24 8851   2.416   4.207   7.013 -1.0489 -0.5678  0.7809
   91SAPS   H4R 8852   2.475   4.283   6.958  0.5948 -3.0487 -1.1513
   91SAPS   H4S 8853   2.491   4.149   7.070 -0.2063 -0.9806 -0.6975
   91SAPS   C25 8854   2.317   4.269   7.111 -0.4907  0.3369  0.1472
   91SAPS   H5R 8855   2.221   4.308   7.074  0.2982  1.4086 -0.8521
   91SAPS   C26 8856   2.349   4.289   7.241  0.3048  0.0524  0.3552
   91SAPS   H6R 8857   2.272   4.340   7.300 -1.2423 -0.8807 -0.7608
   91SAPS   C27 8858   2.478   4.258   7.304 -0.1472 -0.2113  0.4837
   91SAPS   H7R 8859   2.530   4.349   7.341 -0.7192 -0.3983  1.7938
   91SAPS   H7S 8860   2.560   4.219   7.240  1.1381  1.2355  1.1495
   91SAPS   C28 8861   2.452   4.164   7.423  0.3282 -0.7162  0.4836
   91SAPS   H8R 8862   2.475   4.059   7.399  2.6506 -0.1196 -0.1619
   91SAPS   C29 8863   2.414   4.194   7.550 -0.3468 -0.5459  0.5856
   91SAPS   H9R 8864   2.415   4.112   7.623  1.9827  0.6176  1.9736
   91SAPS  C210 8865   2.387   4.327   7.623  0.0713  0.1436  0.1493
   91SAPS  H10R 8866   2.358   4.405   7.549 -1.5649 -0.1323  0.4668
   91SAPS  H10S 8867   2.483   4.362   7.667 -0.6309 -0.3907  2.2396
   91SAPS  C211 8868   2.273   4.308   7.731  0.5001 -0.2973 -0.2981
   91SAPS  H11R 8869   2.172   4.337   7.699  0.1315 -0.9577  0.2452
   91SAPS  C212 8870   2.278   4.267   7.858  0.3702  1.0826  0.9083
   91SAPS  H12R 8871   2.184   4.259   7.914 -0.6576  0.0915 -0.8402
   91SAPS  C213 8872   2.398   4.225   7.940  0.1835 -0.2202  0.2361
   91SAPS  H13R 8873   2.427   4.317   7.995 -1.2142  0.9417 -0.8715
   91SAPS  H13S 8874   2.485   4.204   7.874  0.5857 -1.0860  1.0318
   91SAPS  C214 8875   2.378   4.102   8.020 -0.5359  0.5800 -0.2610
   91SAPS  H14R 8876   2.411   4.005   7.981  0.0080  0.3583  0.7087
   91SAPS  C215 8877   2.311   4.098   8.135 -1.1790  0.3616 -0.1320
   91SAPS  H15R 8878   2.307   3.998   8.181  0.9157  0.3747  0.1411
   91SAPS  C216 8879   2.257   4.216   8.209 -0.6617  0.2741  0.1285
   91SAPS  H16R 8880   2.149   4.218   8.185 -0.6080 -1.8552 -0.4358
   91SAPS  H16S 8881   2.293   4.319   8.186 -1.3814  0.8259  1.3750
   91SAPS  C217 8882   2.282   4.192   8.362 -0.0576 -0.1400  0.1614
   91SAPS  H17R 8883   2.387   4.165   8.384 -0.4468 -2.0757 -0.1132
   91SAPS  H17S 8884   2.226   4.102   8.397  2.0255 -0.4968  2.8439
   91SAPS  C218 8885   2.251   4.312   8.442 -0.7638 -0.8100 -0.3001
   91SAPS  H18R 8886   2.314   4.391   8.395 -1.0961  0.2819  1.0374
   91SAPS  H18S 8887   2.281   4.292   8.547 -1.7550  0.0191  0.1538
   91SAPS  C219 8888   2.113   4.374   8.427  0.7422  1.2904  0.0490
   91SAPS  H19R 8889   2.081   4.399   8.323 -1.8097 -1.3358  0.0608
   91SAPS  H19S 8890   2.120   4.475   8.472  1.4563  1.1112  0.3542
   91SAPS  C220 8891   1.999   4.299   8.493  0.0839  0.2391  0.2325
   91SAPS  H20R 8892   1.916   4.372   8.499 -0.1840 -0.1353  1.2873
   91SAPS  H20S 8893   2.032   4.278   8.597  0.3999  1.4156  0.3817
   91SAPS  H20T 8894   1.976   4.205   8.437 -0.2454  0.4035  0.0899
   91SAPS   C33 8895   2.137   4.711   7.102  0.0799  0.2566  0.2041
   91SAPS   H3X 8896   2.238   4.722   7.146 -1.1731  2.7381  2.7794
   91SAPS   H3Y 8897   2.117   4.604   7.078 -0.8347  0.6043 -0.7020
   91SAPS   C34 8898   2.034   4.737   7.211 -0.2097  0.2186 -0.0725
   91SAPS   H4X 8899   2.046   4.661   7.291  0.9935 -1.0586 -1.4095
   91SAPS   H4Y 8900   1.927   4.730   7.181  0.1674 -1.0554 -1.1699
   91SAPS   C35 8901   2.052   4.883   7.266 -0.5160  0.0381 -0.1346
   91SAPS   H5X 8902   2.037   4.968   7.196 -0.2617  0.2907  0.1218
   91SAPS   H5Y 8903   2.158   4.884   7.300  0.3073 -0.5215 -2.4476
   91SAPS   C36 8904   1.953   4.901   7.383  0.2958  0.0420  0.3834
   91SAPS   H6X 8905   1.849   4.869   7.362 -0.2720  1.2373  1.2775
   91SAPS   H6Y 8906   1.938   5.009   7.407  0.6830  0.0315  0.6783
   91SAPS   C37 8907   1.990   4.825   7.508 -0.5441  0.0289  0.3483
   91SAPS   H7X 8908   2.099   4.834   7.525 -0.5071 -2.2738  1.6899
   91SAPS   H7Y 8909   1.979   4.715   7.501  1.5562 -0.1664 -0.7610
   91SAPS   C38 8910   1.901   4.871   7.629  0.3915 -0.1873  0.2464
   91SAPS   H8X 8911   1.791   4.852   7.626 -0.3979  3.7126 -1.6103
   91SAPS   H8Y 8912   1.903   4.981   7.642 -2.8827  0.3143 -2.1822
   91SAPS   C39 8913   1.965   4.809   7.757  0.8134 -0.3299 -0.1564
   91SAPS   H9X 8914   2.072   4.838   7.768  0.0293  2.1544  1.5162
   91SAPS   H9Y 8915   1.947   4.699   7.758 -0.1361 -0.1878 -0.5579
   91SAPS  C310 8916   1.909   4.868   7.882  0.1022  0.1529  0.1047
   91SAPS  H10X 8917   1.807   4.825   7.882 -0.0953  0.5920 -1.1779
   91SAPS  H10Y 8918   1.923   4.979   7.881 -1.4033  0.3857  1.3463
   91SAPS  C311 8919   1.982   4.826   8.004  0.1127 -0.2887 -0.2467
   91SAPS  H11X 8920   2.072   4.891   8.006 -1.9331  2.7926  2.1206
   91SAPS  H11Y 8921   2.007   4.718   7.999  0.1762 -0.2219 -2.3705
   91SAPS  C312 8922   1.897   4.850   8.123 -0.8234 -0.9614 -0.1289
   91SAPS  H12X 8923   1.795   4.806   8.118 -0.7313 -1.4699  1.7409
   91SAPS  H12Y 8924   1.890   4.961   8.125  1.8879 -0.7326 -0.3009
   91SAPS  C313 8925   1.960   4.783   8.251 -0.3984  0.2605 -0.5437
   91SAPS  H13X 8926   2.062   4.820   8.276 -1.3524  1.0897  2.6201
   91SAPS  H13Y 8927   1.974   4.677   8.223  1.4593  0.1504  0.6635
   91SAPS  C314 8928   1.863   4.803   8.373 -0.5808 -0.1656  0.1450
   91SAPS  H14X 8929   1.764   4.775   8.331  0.5000 -0.1204 -2.6827
   91SAPS  H14Y 8930   1.851   4.908   8.405 -0.7595 -0.8349  2.4159
   91SAPS  C315 8931   1.904   4.707   8.485 -0.0926 -0.5068 -0.0511
   91SAPS  H15X 8932   2.010   4.719   8.515 -0.0804 -1.3206  0.2519
   91SAPS  H15Y 8933   1.900   4.603   8.446 -0.4990 -0.5583  0.1260
   91SAPS  C316 8934   1.815   4.719   8.612  0.7211 -0.2195  0.1574
   91SAPS  H16X 8935   1.710   4.741   8.582 -0.2015  0.2591  3.3263
   91SAPS  H16Y 8936   1.854   4.809   8.664 -1.0141  0.1949  0.8487
   91SAPS  C317 8937   1.814   4.594   8.702  0.6986  0.5372  0.4116
   91SAPS  H17X 8938   1.916   4.594   8.747  1.9754  1.0680 -2.2735
   91SAPS  H17Y 8939   1.800   4.505   8.637 -0.3851  1.8776 -1.2778
   91SAPS  C318 8940   1.708   4.598   8.807 -0.0112  0.7505  0.1116
   91SAPS  H18X 8941   1.606   4.606   8.765 -0.5972 -2.3619  0.7248
   91SAPS  H18Y 8942   1.699   4.686   8.875 -0.1633  0.3695  0.5901
   91SAPS  H18Z 8943   1.721   4.506   8.867 -0.3242  0.3924 -0.3682
   92SAPS     N 8944   3.424   3.239   6.576 -0.3881  0.3481  0.3964
   92SAPS   HN1 8945   3.399   3.175   6.655  0.5975 -1.1050 -0.4337
   92SAPS   HN2 8946   3.528   3.240   6.569 -0.1841 -2.5279  1.6332
   92SAPS   HN3 8947   3.388   3.335   6.597  2.8750  2.4055 -2.4044
   92SAPS   C12 8948   3.364   3.193   6.450 -0.5370 -0.0562 -0.2523
   92SAPS  H12A 8949   3.266   3.149   6.461 -0.5814 -0.4948 -2.1489
   92SAPS   C13 8950   3.363   3.307   6.345  0.5920 -0.2221  0.3033
   92SAPS  O13A 8951   3.429   3.415   6.351 -0.0168  0.3383 -0.7295
   92SAPS  O13B 8952   3.267   3.297   6.261  0.4631  0.5674  0.3214
   92SAPS   C11 8953   3.449   3.081   6.391  0.1059  0.7028 -0.2573
   92SAPS  H11A 8954   3.546   3.113   6.347 -0.2149  2.9454  0.5591
   92SAPS  H11B 8955   3.375   3.035   6.321  0.0406  2.0031 -1.0719
   92SAPS     P 8956   3.522   2.836   6.459 -0.1023  0.3478 -0.1514
   92SAPS   O13 8957   3.428   2.786   6.355  0.6832 -0.3251 -0.0284
   92SAPS   O14 8958   3.664   2.832   6.430  0.6119 -0.6863  0.4068
   92SAPS   O12 8959   3.490   2.982   6.487  0.1677 -0.6040 -0.0607
   92SAPS   O11 8960   3.488   2.772   6.592  0.0349 -0.3345 -0.1448
   92SAPS    C1 8961   3.473   2.840   6.715 -0.7527  0.2956 -0.4765
   92SAPS    HA 8962   3.561   2.905   6.735  0.2601 -0.8441 -1.1178
   92SAPS    HB 8963   3.382   2.902   6.703 -0.1957  1.7352  2.0599
   92SAPS    C2 8964   3.464   2.744   6.838  0.1290  0.1711  0.2216
   92SAPS    HS 8965   3.360   2.713   6.862  0.3042  2.0254  4.2053
   92SAPS   O21 8966   3.514   2.807   6.959  0.1827 -0.1176 -0.3646
   92SAPS   C21 8967   3.436   2.910   6.991  0.1487 -0.7808 -0.6475
   92SAPS   O22 8968   3.325   2.934   6.948 -0.9345 -0.3645 -0.0456
   92SAPS   C22 8969   3.513   2.984   7.108  0.3429 -0.0039 -0.4158
   92SAPS   H2R 8970   3.613   3.008   7.065 -0.3600  0.9964 -1.5750
   92SAPS   H2S 8971   3.459   3.079   7.122 -0.1857 -0.2813 -0.5533
   92SAPS    C3 8972   3.546   2.618   6.813 -0.2609  0.0299  0.4288
   92SAPS    HX 8973   3.645   2.660   6.786 -1.1979  1.7948 -0.4208
   92SAPS    HY 8974   3.503   2.574   6.720  0.2733  2.3485 -1.0003
   92SAPS   O31 8975   3.561   2.530   6.925 -0.1759  0.3151 -0.1731
   92SAPS   C31 8976   3.468   2.439   6.934  0.2759  0.3755 -0.3438
   92SAPS   O32 8977   3.364   2.418   6.879 -0.8566  0.0689  0.6286
   92SAPS   C32 8978   3.503   2.356   7.063 -0.3857  0.4046 -0.1381
   92SAPS   H2X 8979   3.609   2.380   7.088  0.1690 -0.4228 -1.5379
   92SAPS   H2Y 8980   3.510   2.249   7.035 -0.5242  0.9947 -2.6989
   92SAPS   C23 8981   3.521   2.919   7.243 -0.4503 -0.0095 -1.4363
   92SAPS   H3R 8982   3.596   2.967   7.308  0.3255 -1.5249 -1.1508
   92SAPS   H3S 8983   3.557   2.814   7.248 -0.5727 -0.0112 -0.3263
   92SAPS   C24 8984   3.385   2.921   7.324 -0.1950 -0.2194 -0.2309
   92SAPS   H4R 8985   3.324   2.831   7.298  0.1652 -0.5350  0.0054
   92SAPS   H4S 8986   3.324   3.008   7.292 -0.2478  0.8447  2.5369
   92SAPS   C25 8987   3.421   2.940   7.471 -0.5309 -0.3166 -0.3354
   92SAPS   H5R 8988   3.474   3.036   7.486 -1.6957 -0.0119  2.6016
   92SAPS   C26 8989   3.403   2.859   7.576 -1.1570 -0.1029 -0.1101
   92SAPS   H6R 8990   3.430   2.893   7.677  0.3075 -3.3565  0.7251
   92SAPS   C27 8991   3.342   2.717   7.588  0.8136  0.0826  0.5590
   92SAPS   H7R 8992   3.286   2.697   7.494  1.2573 -0.8322  0.4847
   92SAPS   H7S 8993   3.256   2.713   7.658 -0.2222 -1.1328 -0.7304
   92SAPS   C28 8994   3.448   2.614   7.605  0.1262 -0.5086 -0.8330
   92SAPS   H8R 8995   3.522   2.598   7.526  0.3869  1.0433 -0.9293
   92SAPS   C29 8996   3.468   2.539   7.717  0.8323  0.0146 -0.2372
   92SAPS   H9R 8997   3.545   2.461   7.724 -0.4152 -1.1936  0.5078
   92SAPS  C210 8998   3.373   2.551   7.837 -0.3656  0.6036  0.4465
   92SAPS  H10R 8999   3.328   2.651   7.852 -0.6376  0.2536  2.1965
   92SAPS  H10S 9000   3.438   2.530   7.925  0.9334 -0.6788 -0.7559
   92SAPS  C211 9001   3.257   2.459   7.840  0.7548 -0.1015 -0.0580
   92SAPS  H11R 9002   3.227   2.399   7.753  0.1148  0.7348 -0.4259
   92SAPS  C212 9003   3.172   2.445   7.947  0.4172  0.2332  0.6864
   92SAPS  H12R 9004   3.094   2.368   7.935  0.1988  0.7305 -1.7279
   92SAPS  C213 9005   3.195   2.524   8.077  0.5702  0.2326  0.6310
   92SAPS  H13R 9006   3.098   2.571   8.103  0.2211 -1.0371  1.7638
   92SAPS  H13S 9007   3.264   2.611   8.068  0.4025  0.3567  0.5432
   92SAPS  C214 9008   3.246   2.435   8.196  0.5050 -1.0392 -0.3261
   92SAPS  H14R 9009   3.213   2.331   8.196 -0.6872 -0.6872 -1.4825
   92SAPS  C215 9010   3.327   2.483   8.292  0.7285  0.0775 -1.0682
   92SAPS  H15R 9011   3.359   2.414   8.371 -0.5094  0.5799 -0.0947
   92SAPS  C216 9012   3.389   2.617   8.306 -0.2519  0.3746 -0.8094
   92SAPS  H16R 9013   3.349   2.668   8.397  1.3341  0.0948  0.0904
   92SAPS  H16S 9014   3.355   2.676   8.218 -1.0613 -1.2027 -1.5848
   92SAPS  C217 9015   3.548   2.606   8.299  0.5147  0.4565  0.1028
   92SAPS  H17R 9016   3.569   2.520   8.232  1.3268  0.2733  0.5850
   92SAPS  H17S 9017   3.595   2.588   8.398 -2.3784  1.7102  1.8237
   92SAPS  C218 9018   3.632   2.720   8.252  0.0843  0.4092 -0.4283
   92SAPS  H18R 9019   3.736   2.682   8.258 -0.5765 -1.3107  2.0088
   92SAPS  H18S 9020   3.606   2.800   8.325 -0.5208 -0.2126  0.0578
   92SAPS  C219 9021   3.616   2.776   8.112 -0.3368 -0.2036 -0.5209
   92SAPS  H19R 9022   3.515   2.818   8.094 -0.5087  0.3735  1.5947
   92SAPS  H19S 9023   3.649   2.692   8.046  1.1988  1.6369 -2.2174
   92SAPS  C220 9024   3.730   2.884   8.077  0.5515 -0.5196 -0.4577
   92SAPS  H20R 9025   3.698   2.982   8.118 -2.0420 -1.4161 -0.1458
   92SAPS  H20S 9026   3.735   2.896   7.967 -0.5976  1.7522 -0.3302
   92SAPS  H20T 9027   3.823   2.850   8.127 -0.2343 -0.6136  0.9975
   92SAPS   C33 9028   3.418   2.396   7.178  0.1155  0.3308 -0.3690
   92SAPS   H3X 9029   3.315   2.418   7.143  0.0345 -0.8550 -0.9347
   92SAPS   H3Y 9030   3.460   2.482   7.232  0.8210  2.0117 -3.3662
   92SAPS   C34 9031   3.415   2.281   7.285 -1.1211 -0.3178 -0.2154
   92SAPS   H4X 9032   3.516   2.258   7.325 -0.7380 -2.4164 -2.1324
   92SAPS   H4Y 9033   3.378   2.187   7.238 -1.7376  0.2571 -0.9271
   92SAPS   C35 9034   3.332   2.332   7.402  0.2995 -0.0703  0.4182
   92SAPS   H5X 9035   3.236   2.374   7.365  1.9606  1.8750 -1.9542
   92SAPS   H5Y 9036   3.394   2.413   7.446  0.4369 -0.0855  0.2507
   92SAPS   C36 9037   3.298   2.221   7.504 -0.7440  0.4364 -0.4621
   92SAPS   H6X 9038   3.221   2.158   7.454 -0.6634 -1.3200  1.4951
   92SAPS   H6Y 9039   3.251   2.271   7.592 -2.6256 -2.0912  0.0847
   92SAPS   C37 9040   3.417   2.134   7.550  0.0261  0.2400 -0.9785
   92SAPS   H7X 9041   3.514   2.187   7.561  0.6733 -1.1295  0.3108
   92SAPS   H7Y 9042   3.428   2.068   7.461  1.0399  0.8730 -1.3457
   92SAPS   C38 9043   3.395   2.055   7.684 -0.3881  0.4006  0.3927
   92SAPS   H8X 9044   3.461   1.966   7.690  0.1612  0.8039  0.3666
   92SAPS   H8Y 9045   3.288   2.024   7.683 -0.7339  1.5479  0.5272
   92SAPS   C39 9046   3.428   2.125   7.814 -0.3719  0.0765  0.0191
   92SAPS   H9X 9047   3.376   2.222   7.823 -0.0441  0.1452  1.4046
   92SAPS   H9Y 9048   3.537   2.147   7.807 -0.2668 -0.9142 -1.9636
   92SAPS  C310 9049   3.397   2.040   7.940 -0.4372 -0.5549 -0.3813
   92SAPS  H10X 9050   3.461   1.949   7.949  0.7025 -0.1139 -3.1975
   92SAPS  H10Y 9051   3.294   1.998   7.932 -0.3039 -0.7676 -1.0010
   92SAPS  C311 9052   3.418   2.124   8.061 -0.0178  0.4539  0.6614
   92SAPS  H11X 9053   3.368   2.222   8.045  0.5949  0.6492 -0.0929
   92SAPS  H11Y 9054   3.526   2.144   8.071 -0.1956  0.7872  2.0717
   92SAPS  C312 9055   3.354   2.063   8.192 -0.1963 -0.3751  0.0608
   92SAPS  H12X 9056   3.252   2.020   8.190 -0.2009 -0.4035 -2.2175
   92SAPS  H12Y 9057   3.350   2.145   8.267  0.1530  0.7088 -1.0792
   92SAPS  C313 9058   3.446   1.955   8.250 -0.2666 -0.7133  0.1477
   92SAPS  H13X 9059   3.550   1.993   8.250 -1.2607  2.2894  0.9884
   92SAPS  H13Y 9060   3.440   1.864   8.187 -2.2953  0.1111 -0.9259
   92SAPS  C314 9061   3.409   1.919   8.404  0.3062 -0.2837  0.6260
   92SAPS  H14X 9062   3.298   1.920   8.403  0.2659 -1.0966  2.2141
   92SAPS  H14Y 9063   3.450   2.007   8.460 -0.6384  1.1255 -0.8001
   92SAPS  C315 9064   3.475   1.791   8.448  0.8748  0.5309 -1.1769
   92SAPS  H15X 9065   3.584   1.812   8.450  0.8962  0.4684  1.2686
   92SAPS  H15Y 9066   3.463   1.708   8.375 -1.6545  0.2894 -0.5523
   92SAPS  C316 9067   3.434   1.739   8.590 -0.5569 -0.2386 -0.1702
   92SAPS  H16X 9068   3.328   1.705   8.591 -0.2526 -1.3523 -1.8271
   92SAPS  H16Y 9069   3.439   1.824   8.661 -1.1665 -2.6966  3.0199
   92SAPS  C317 9070   3.531   1.622   8.640  0.7344  0.0679  0.5011
   92SAPS  H17X 9071   3.633   1.644   8.603  0.1007  1.0091 -0.7978
   92SAPS  H17Y 9072   3.495   1.538   8.576 -1.0427 -1.1042  2.9014
   92SAPS  C318 9073   3.527   1.581   8.787 -0.2528 -1.0042  0.7693
   92SAPS  H18X 9074   3.552   1.667   8.852 -0.1836  0.3042 -0.9091
   92SAPS  H18Y 9075   3.606   1.504   8.798  3.2247  1.8108 -2.1117
   92SAPS  H18Z 9076   3.427   1.543   8.818 -0.7116 -1.2940 -0.9421
   93SAPS     N 9077   5.176   2.676   6.352 -0.1236 -0.1165 -0.9440
   93SAPS   HN1 9078   5.201   2.696   6.253  5.3412  2.1681  0.5089
   93SAPS   HN2 9079   5.110   2.738   6.402 -1.8394 -1.9862 -0.7675
   93SAPS   HN3 9080   5.265   2.690   6.404 -1.8767  2.7037  1.5991
   93SAPS   C12 9081   5.123   2.540   6.339  1.4658 -0.0020 -0.0969
   93SAPS  H12A 9082   5.033   2.541   6.279 -1.2719 -3.5961  3.3916
   93SAPS   C13 9083   5.218   2.445   6.274  0.3266 -0.3461 -0.7149
   93SAPS  O13A 9084   5.333   2.484   6.243 -0.3355 -0.0110  0.3654
   93SAPS  O13B 9085   5.187   2.324   6.269 -0.1009  0.0494  0.0298
   93SAPS   C11 9086   5.088   2.487   6.481  0.0050  0.5008  0.6431
   93SAPS  H11A 9087   5.181   2.495   6.542  3.0509  1.0477 -3.6039
   93SAPS  H11B 9088   5.060   2.381   6.463  0.3056  0.8317 -2.4421
   93SAPS     P 9089   4.837   2.506   6.525 -0.0877  0.4701  0.0753
   93SAPS   O13 9090   4.793   2.556   6.396 -0.3925 -0.3164  0.3342
   93SAPS   O14 9091   4.833   2.360   6.543 -0.2968  0.2071  0.3747
   93SAPS   O12 9092   4.984   2.562   6.539  0.2283 -0.2077  0.2614
   93SAPS   O11 9093   4.757   2.580   6.639  0.5597  0.4811 -0.0209
   93SAPS    C1 9094   4.766   2.715   6.678 -0.2821 -0.6799  0.5364
   93SAPS    HA 9095   4.793   2.774   6.587 -0.5957 -2.2928 -0.6372
   93SAPS    HB 9096   4.661   2.745   6.698  0.6220  2.4836  1.2694
   93SAPS    C2 9097   4.852   2.755   6.806 -0.5559 -0.9606  0.4107
   93SAPS    HS 9098   4.955   2.722   6.781 -0.6702 -0.9366 -0.0997
   93SAPS   O21 9099   4.795   2.698   6.922 -0.1999 -0.3366 -0.3092
   93SAPS   C21 9100   4.849   2.578   6.959 -0.1117 -0.1386  0.8807
   93SAPS   O22 9101   4.934   2.518   6.899 -0.5801  0.1896  0.0134
   93SAPS   C22 9102   4.796   2.533   7.093 -0.7821  0.0797  0.2612
   93SAPS   H2R 9103   4.842   2.591   7.176  0.4131 -0.8333  0.2642
   93SAPS   H2S 9104   4.686   2.547   7.087 -1.0041 -1.8103 -0.7431
   93SAPS    C3 9105   4.839   2.906   6.828 -0.0306 -0.6051  0.0123
   93SAPS    HX 9106   4.874   2.964   6.739  1.8360  0.7094  1.5236
   93SAPS    HY 9107   4.906   2.926   6.914  0.3114 -1.7452  0.0203
   93SAPS   O31 9108   4.706   2.950   6.846 -1.1732  0.1036  0.1859
   93SAPS   C31 9109   4.671   2.967   6.969 -0.0279 -0.0218 -0.6436
   93SAPS   O32 9110   4.741   2.946   7.067 -0.5800  0.2252  0.1004
   93SAPS   C32 9111   4.533   3.020   6.980  0.1956  0.5601  0.4587
   93SAPS   H2X 9112   4.468   2.979   6.900  0.5407  2.1653 -0.6869
   93SAPS   H2Y 9113   4.535   3.131   6.970  0.3852  0.3702 -2.5255
   93SAPS   C23 9114   4.841   2.387   7.122 -0.1287  0.4533  0.8654
   93SAPS   H3R 9115   4.952   2.379   7.119 -0.1664  0.1860 -0.0705
   93SAPS   H3S 9116   4.816   2.310   7.046  3.8653  1.5752 -1.9663
   93SAPS   C24 9117   4.783   2.332   7.257  0.2229  0.7126  0.1243
   93SAPS   H4R 9118   4.816   2.226   7.259  0.8624  0.8864 -0.8226
   93SAPS   H4S 9119   4.672   2.327   7.252  0.2238  1.6913 -1.9161
   93SAPS   C25 9120   4.845   2.401   7.372  0.0148 -0.1739 -0.2620
   93SAPS   H5R 9121   4.856   2.511   7.372 -1.5681  0.1044  2.9117
   93SAPS   C26 9122   4.876   2.338   7.486  0.5285  0.2946 -0.2371
   93SAPS   H6R 9123   4.922   2.409   7.556  1.4186  0.5835 -1.0952
   93SAPS   C27 9124   4.862   2.191   7.525 -0.1356  0.6887 -0.1658
   93SAPS   H7R 9125   4.937   2.162   7.602 -2.2947  0.7045  2.0407
   93SAPS   H7S 9126   4.893   2.134   7.434 -1.7994  1.6567 -1.4013
   93SAPS   C28 9127   4.725   2.153   7.570  0.4322 -0.4571 -0.0458
   93SAPS   H8R 9128   4.649   2.190   7.500  0.5241 -0.5042 -0.1712
   93SAPS   C29 9129   4.687   2.106   7.687 -0.4305 -0.3702 -0.0856
   93SAPS   H9R 9130   4.577   2.106   7.699 -0.3051  2.8285  2.4805
   93SAPS  C210 9131   4.771   2.090   7.808 -0.2294 -0.1740 -0.1349
   93SAPS  H10R 9132   4.865   2.148   7.810 -0.3432  0.2582 -3.0419
   93SAPS  H10S 9133   4.816   1.988   7.811 -1.4359 -0.8704 -2.7910
   93SAPS  C211 9134   4.701   2.122   7.940  0.3091  0.1546  0.5584
   93SAPS  H11R 9135   4.595   2.153   7.938  0.4249  0.4908 -1.1040
   93SAPS  C212 9136   4.765   2.125   8.060 -0.1854 -0.3176  0.6905
   93SAPS  H12R 9137   4.710   2.163   8.146 -0.0924  1.6872 -0.0890
   93SAPS  C213 9138   4.908   2.085   8.088 -0.5804 -0.0674  0.8417
   93SAPS  H13R 9139   4.941   2.033   7.996 -1.4153  1.4584 -0.3545
   93SAPS  H13S 9140   4.910   2.009   8.170 -4.3488 -1.3802 -0.0583
   93SAPS  C214 9141   5.000   2.205   8.113  0.6131 -0.5852  0.1219
   93SAPS  H14R 9142   4.980   2.263   8.205  0.2416 -0.1967 -0.1967
   93SAPS  C215 9143   5.114   2.242   8.046  0.1420  0.0654  0.5713
   93SAPS  H15R 9144   5.164   2.338   8.064 -2.5639  2.5270 -3.4398
   93SAPS  C216 9145   5.170   2.174   7.923  0.1538  0.5114 -1.0622
   93SAPS  H16R 9146   5.131   2.072   7.902 -2.6141  0.7851  1.9906
   93SAPS  H16S 9147   5.280   2.169   7.941 -0.1290  3.0322  2.2627
   93SAPS  C217 9148   5.144   2.259   7.805 -0.9340  0.3164  0.3052
   93SAPS  H17R 9149   5.041   2.300   7.811 -1.7238 -1.5050 -0.3444
   93SAPS  H17S 9150   5.154   2.206   7.708  0.5242  0.5697  0.2794
   93SAPS  C218 9151   5.240   2.372   7.798 -0.2214 -0.2444 -0.5809
   93SAPS  H18R 9152   5.338   2.327   7.769 -0.4148 -1.6503  0.7826
   93SAPS  H18S 9153   5.263   2.417   7.897  1.3492 -1.0424 -0.5422
   93SAPS  C219 9154   5.212   2.470   7.682 -0.2344  0.5182 -0.7464
   93SAPS  H19R 9155   5.130   2.536   7.718 -1.0944 -0.2958 -1.1855
   93SAPS  H19S 9156   5.168   2.404   7.605 -1.8332 -0.9541  1.3340
   93SAPS  C220 9157   5.338   2.551   7.626  0.1174  0.2768  0.2299
   93SAPS  H20R 9158   5.409   2.491   7.565  1.2450  2.1939 -0.4379
   93SAPS  H20S 9159   5.391   2.589   7.716 -0.7042 -0.7257  1.1542
   93SAPS  H20T 9160   5.309   2.627   7.550 -1.0965  0.0855  0.4792
   93SAPS   C33 9161   4.458   2.999   7.116  0.2918  0.1290 -0.7599
   93SAPS   H3X 9162   4.536   3.028   7.190  0.4152  0.6596 -1.0926
   93SAPS   H3Y 9163   4.454   2.888   7.110 -1.4434  0.0431  0.8943
   93SAPS   C34 9164   4.326   3.067   7.130  0.4695 -0.6947  0.2054
   93SAPS   H4X 9165   4.265   3.047   7.040 -1.1936  0.7341  0.9643
   93SAPS   H4Y 9166   4.346   3.176   7.130 -0.9849 -0.3424 -2.6286
   93SAPS   C35 9167   4.254   3.047   7.269 -0.4726  0.2634  0.1228
   93SAPS   H5X 9168   4.240   2.939   7.288 -1.7601 -0.2396 -3.1029
   93SAPS   H5Y 9169   4.150   3.083   7.259 -0.7787 -0.2748  1.1954
   93SAPS   C36 9170   4.327   3.137   7.372 -0.0714  0.0134  0.0082
   93SAPS   H6X 9171   4.307   3.244   7.349 -0.9365 -0.2235 -0.3884
   93SAPS   H6Y 9172   4.436   3.119   7.381 -0.3104 -0.8128  1.5285
   93SAPS   C37 9173   4.266   3.102   7.514 -0.2423  0.8884  0.0716
   93SAPS   H7X 9174   4.285   2.994   7.534  1.1089  1.0384 -0.2646
   93SAPS   H7Y 9175   4.158   3.126   7.513  0.1396  2.7268 -0.5944
   93SAPS   C38 9176   4.334   3.181   7.625  0.0397  0.4000 -0.6116
   93SAPS   H8X 9177   4.345   3.288   7.595  0.9213  0.6154  0.4056
   93SAPS   H8Y 9178   4.441   3.152   7.628  0.1158  0.7030  0.7267
   93SAPS   C39 9179   4.260   3.152   7.761 -0.2698 -0.2928  0.0491
   93SAPS   H9X 9180   4.240   3.045   7.784 -0.6285 -0.6207 -1.6123
   93SAPS   H9Y 9181   4.160   3.201   7.763 -0.2555 -0.2743  0.3675
   93SAPS  C310 9182   4.346   3.226   7.868  0.0464 -0.3718  0.4278
   93SAPS  H10X 9183   4.328   3.333   7.846 -2.4913 -0.8954 -0.3914
   93SAPS  H10Y 9184   4.454   3.203   7.868  0.4187  1.2771  0.7393
   93SAPS  C311 9185   4.286   3.182   8.007  0.3350  0.0529  0.4605
   93SAPS  H11X 9186   4.280   3.071   8.000  0.8030 -0.1928  3.1042
   93SAPS  H11Y 9187   4.183   3.224   8.008  1.1300  2.0786  0.7250
   93SAPS  C312 9188   4.377   3.232   8.118 -0.1629 -0.0855 -0.7268
   93SAPS  H12X 9189   4.390   3.342   8.113  2.1890 -0.2708  0.3405
   93SAPS  H12Y 9190   4.477   3.184   8.109 -0.4701 -0.8266 -0.3084
   93SAPS  C313 9191   4.322   3.211   8.262  0.6827 -0.2547  0.6572
   93SAPS  H13X 9192   4.273   3.113   8.275 -0.5594  0.1762 -0.5679
   93SAPS  H13Y 9193   4.243   3.285   8.288  0.0269 -1.2399  1.5487
   93SAPS  C314 9194   4.421   3.218   8.372  0.3626 -0.4171 -0.2410
   93SAPS  H14X 9195   4.370   3.230   8.470 -0.3419  0.6738 -0.7141
   93SAPS  H14Y 9196   4.478   3.310   8.350 -2.0439  1.0481 -0.7736
   93SAPS  C315 9197   4.510   3.099   8.388  0.2880  0.3053 -0.9946
   93SAPS  H15X 9198   4.514   3.036   8.297  0.9919 -0.7894 -0.2315
   93SAPS  H15Y 9199   4.461   3.027   8.457  0.0623 -0.5192 -1.9994
   93SAPS  C316 9200   4.661   3.135   8.403  0.0715  0.2650 -0.2936
   93SAPS  H16X 9201   4.678   3.172   8.506  1.3532 -1.5022  0.1867
   93SAPS  H16Y 9202   4.686   3.205   8.320 -1.1632 -1.0317 -1.8432
   93SAPS  C317 9203   4.751   3.008   8.403  0.1871 -0.5041  0.3893
   93SAPS  H17X 9204   4.721   2.933   8.327 -0.6781 -0.5155  0.7241
   93SAPS  H17Y 9205   4.729   2.957   8.500  0.2226 -0.7197  0.2847
   93SAPS  C318 9206   4.904   3.042   8.395 -0.0703  0.3495 -0.2062
   93SAPS  H18X 9207   4.965   2.964   8.446 -1.4239  1.1104  2.8121
   93SAPS  H18Y 9208   4.937   3.140   8.436  1.1403  0.3263 -1.0825
   93SAPS  H18Z 9209   4.940   3.053   8.291  1.9155 -1.2573  0.2464
   94SAPS     N 9210   2.843   0.201   5.932 -0.2539  1.0536  0.2703
   94SAPS   HN1 9211   2.814   0.195   6.032 -0.3075 -0.9492  0.1575
   94SAPS   HN2 9212   2.918   0.273   5.930  2.0178 -1.2097 -0.9763
   94SAPS   HN3 9213   2.766   0.232   5.869  0.8940  1.3867 -1.0108
   94SAPS   C12 9214   2.892   0.060   5.901  0.1913  0.0111 -0.2608
   94SAPS  H12A 9215   2.829  -0.014   5.948  1.0267 -0.7516 -0.3228
   94SAPS   C13 9216   2.878   0.024   5.754  0.4740 -0.9728  0.7967
   94SAPS  O13A 9217   2.829   0.107   5.666 -0.4993 -0.3374 -0.3612
   94SAPS  O13B 9218   2.938  -0.078   5.714  0.3369 -0.4975 -0.3389
   94SAPS   C11 9219   3.042   0.049   5.947  0.0924 -0.3094  0.3400
   94SAPS  H11A 9220   3.090   0.141   5.908 -1.7477  1.0214  1.0922
   94SAPS  H11B 9221   3.094  -0.043   5.912  2.0478  1.1658 -0.8249
   94SAPS     P 9222   3.102  -0.033   6.189 -0.5856  0.1450 -0.0258
   94SAPS   O13 9223   3.002  -0.136   6.209  0.0506 -0.1371  0.1216
   94SAPS   O14 9224   3.233  -0.077   6.137  0.1404 -0.5209  0.1944
   94SAPS   O12 9225   3.047   0.075   6.091  0.0146  0.0661  0.4245
   94SAPS   O11 9226   3.128   0.041   6.324 -0.1513 -0.1758 -0.7559
   94SAPS    C1 9227   3.204   0.165   6.315 -0.9013 -0.5247 -0.6959
   94SAPS    HA 9228   3.289   0.148   6.246  0.4358  0.7078  0.5879
   94SAPS    HB 9229   3.135   0.243   6.278 -3.0553 -1.2760  1.4606
   94SAPS    C2 9230   3.270   0.195   6.455  1.0367 -0.1461  0.1356
   94SAPS    HS 9231   3.306   0.300   6.452 -1.1892  0.6667 -0.6715
   94SAPS   O21 9232   3.363   0.099   6.489 -0.3257  0.2480  0.2604
   94SAPS   C21 9233   3.488   0.131   6.473 -0.4188 -0.3325  0.7177
   94SAPS   O22 9234   3.528   0.221   6.407  0.4579 -0.1176  0.2804
   94SAPS   C22 9235   3.579   0.049   6.571  0.1392 -0.1826 -0.6079
   94SAPS   H2R 9236   3.505   0.030   6.652 -2.0589  0.7390 -2.2792
   94SAPS   H2S 9237   3.617  -0.044   6.526  0.2648 -0.2488 -0.3677
   94SAPS    C3 9238   3.145   0.213   6.559 -0.9729  0.8900  0.0612
   94SAPS    HX 9239   3.087   0.120   6.542  0.5060  0.1974 -1.5601
   94SAPS    HY 9240   3.091   0.307   6.534 -0.6105  0.8602 -0.8681
   94SAPS   O31 9241   3.184   0.217   6.697  0.3332 -0.4451  0.0696
   94SAPS   C31 9242   3.229   0.108   6.753  0.6579  0.0333 -0.6722
   94SAPS   O32 9243   3.234  -0.003   6.701 -0.4410 -0.1367  0.3296
   94SAPS   C32 9244   3.263   0.137   6.899  0.7444 -0.5336 -0.1612
   94SAPS   H2X 9245   3.176   0.194   6.937  0.5707 -1.2026  0.4537
   94SAPS   H2Y 9246   3.355   0.200   6.899  0.4152  0.0388  1.9703
   94SAPS   C23 9247   3.703   0.132   6.606  0.1244 -0.4463  0.1588
   94SAPS   H3R 9248   3.684   0.237   6.639  1.9898 -0.3076  0.9022
   94SAPS   H3S 9249   3.772   0.145   6.520  1.7962  2.0682  1.7414
   94SAPS   C24 9250   3.791   0.072   6.721 -0.1447 -0.3356  0.1583
   94SAPS   H4R 9251   3.853   0.155   6.763  2.2210 -1.4962 -0.8810
   94SAPS   H4S 9252   3.869   0.005   6.680 -0.7220  0.3846 -2.2819
   94SAPS   C25 9253   3.708   0.008   6.824  0.0536 -0.4148  0.0736
   94SAPS   H5R 9254   3.644  -0.081   6.813 -3.4309  0.9321  5.3436
   94SAPS   C26 9255   3.705   0.053   6.957 -0.0326 -0.0587 -0.7298
   94SAPS   H6R 9256   3.644  -0.008   7.026 -0.8343  1.2065 -0.2965
   94SAPS   C27 9257   3.774   0.165   7.026 -0.0027 -0.5177  0.4890
   94SAPS   H7R 9258   3.876   0.170   6.982 -0.5688  0.7676 -0.7666
   94SAPS   H7S 9259   3.788   0.120   7.127 -0.6308 -2.9881 -0.4658
   94SAPS   C28 9260   3.719   0.309   7.021 -0.0691  0.3283 -0.0823
   94SAPS   H8R 9261   3.728   0.350   6.919 -1.2729  0.3982 -0.1661
   94SAPS   C29 9262   3.670   0.365   7.130  0.5495  0.3733 -0.6308
   94SAPS   H9R 9263   3.629   0.467   7.121  1.4787  0.8209  0.0558
   94SAPS  C210 9264   3.651   0.310   7.271 -0.0420  0.4655 -0.2527
   94SAPS  H10R 9265   3.624   0.204   7.253 -0.6303  0.2149  1.8112
   94SAPS  H10S 9266   3.566   0.365   7.316  1.2572  2.3924 -0.0076
   94SAPS  C211 9267   3.769   0.313   7.355 -0.1830  0.5387 -0.1500
   94SAPS  H11R 9268   3.853   0.264   7.303 -0.7894 -1.1140  0.3374
   94SAPS  C212 9269   3.775   0.329   7.485 -0.0079 -0.3837 -0.2638
   94SAPS  H12R 9270   3.878   0.328   7.523  0.5148 -0.8218 -1.6175
   94SAPS  C213 9271   3.654   0.360   7.576  0.3364  0.0579 -0.2708
   94SAPS  H13R 9272   3.581   0.276   7.574 -1.5574  1.6209 -0.0897
   94SAPS  H13S 9273   3.596   0.447   7.541 -1.1121 -0.7822 -0.0491
   94SAPS  C214 9274   3.693   0.370   7.723  0.4293 -0.8298 -1.0776
   94SAPS  H14R 9275   3.744   0.283   7.767 -1.3800 -0.0331  3.1122
   94SAPS  C215 9276   3.654   0.471   7.813  0.4670  0.1635 -0.8410
   94SAPS  H15R 9277   3.678   0.456   7.919 -0.2223  0.1819 -0.6770
   94SAPS  C216 9278   3.567   0.590   7.787 -0.3590  0.5851  0.2504
   94SAPS  H16R 9279   3.545   0.616   7.681  0.8973 -0.3259 -0.2548
   94SAPS  H16S 9280   3.632   0.675   7.820  0.0601  0.1454  0.5635
   94SAPS  C217 9281   3.444   0.608   7.877  0.8637  0.0680 -0.2408
   94SAPS  H17R 9282   3.376   0.524   7.851  0.8020 -1.0889  3.2201
   94SAPS  H17S 9283   3.386   0.694   7.838 -0.3879  1.1442  3.5959
   94SAPS  C218 9284   3.480   0.626   8.025  0.3329 -0.9293 -0.0705
   94SAPS  H18R 9285   3.514   0.732   8.036 -1.4952  0.2462 -3.9689
   94SAPS  H18S 9286   3.558   0.554   8.057  0.2279 -1.1179 -0.2393
   94SAPS  C219 9287   3.356   0.609   8.115 -0.3154 -0.5134 -0.0567
   94SAPS  H19R 9288   3.305   0.513   8.094  0.1536 -0.3158 -2.3876
   94SAPS  H19S 9289   3.278   0.682   8.084  1.8306  0.6890 -3.1937
   94SAPS  C220 9290   3.375   0.640   8.268  0.1220  0.1317  0.1520
   94SAPS  H20R 9291   3.405   0.541   8.308 -0.0265  0.8492  2.1320
   94SAPS  H20S 9292   3.277   0.671   8.310 -0.6156 -0.4209 -1.1062
   94SAPS  H20T 9293   3.463   0.709   8.270  1.4215 -1.4299 -0.4543
   94SAPS   C33 9294   3.289   0.008   6.980 -0.6016  0.6290 -0.0555
   94SAPS   H3X 9295   3.373  -0.047   6.932 -1.0430  1.2294 -1.5546
   94SAPS   H3Y 9296   3.201  -0.059   6.971  0.8718 -1.2561 -1.2935
   94SAPS   C34 9297   3.342   0.028   7.123  0.3538 -0.4707 -0.4184
   94SAPS   H4X 9298   3.426   0.100   7.114 -0.2707  0.5636  1.4525
   94SAPS   H4Y 9299   3.389  -0.069   7.149  1.5894  0.5464  1.3260
   94SAPS   C35 9300   3.248   0.077   7.228  0.1246 -0.4145  0.3311
   94SAPS   H5X 9301   3.172  -0.001   7.248  0.4156 -1.2610 -1.6651
   94SAPS   H5Y 9302   3.198   0.174   7.205  0.6992  0.4187  2.3044
   94SAPS   C36 9303   3.327   0.104   7.361 -0.3103 -0.6000  0.2585
   94SAPS   H6X 9304   3.256   0.162   7.424  0.9349  2.5175 -1.0158
   94SAPS   H6Y 9305   3.407   0.177   7.338  1.2769 -1.3182  3.0389
   94SAPS   C37 9306   3.393  -0.018   7.426  0.5441  0.4828 -0.7266
   94SAPS   H7X 9307   3.439  -0.073   7.341  0.7466  0.1322 -0.3943
   94SAPS   H7Y 9308   3.308  -0.080   7.462  1.5586  0.1030  1.1686
   94SAPS   C38 9309   3.490   0.008   7.537  0.1178  0.2138  0.2089
   94SAPS   H8X 9310   3.578   0.068   7.507 -0.1348  1.1783  1.3149
   94SAPS   H8Y 9311   3.537  -0.089   7.564 -0.7571 -1.0508 -2.4509
   94SAPS   C39 9312   3.419   0.062   7.663  0.5141 -0.2946  0.2505
   94SAPS   H9X 9313   3.324   0.005   7.678 -0.9773  1.8673 -0.4844
   94SAPS   H9Y 9314   3.390   0.168   7.644  0.0196 -0.2150  1.3411
   94SAPS  C310 9315   3.505   0.046   7.789 -0.9367  0.4538 -0.7950
   94SAPS  H10X 9316   3.609   0.060   7.753 -0.5951 -2.7045 -1.3979
   94SAPS  H10Y 9317   3.512  -0.065   7.802 -0.6116  0.4832 -0.6854
   94SAPS  C311 9318   3.467   0.120   7.919 -0.1466  0.7341  0.4134
   94SAPS  H11X 9319   3.357   0.110   7.932  0.1767  0.1089  3.5295
   94SAPS  H11Y 9320   3.483   0.230   7.910  1.4646  0.7452  2.5642
   94SAPS  C312 9321   3.547   0.074   8.048 -0.1433 -0.3101  0.0518
   94SAPS  H12X 9322   3.657   0.076   8.035 -0.4783 -1.5591 -4.3469
   94SAPS  H12Y 9323   3.505  -0.023   8.083  1.8238 -1.1606  0.1877
   94SAPS  C313 9324   3.510   0.172   8.170 -0.1976  0.5403  0.1815
   94SAPS  H13X 9325   3.403   0.169   8.202 -0.3855  1.5506 -0.3289
   94SAPS  H13Y 9326   3.521   0.274   8.128  2.7313 -0.6442 -2.2592
   94SAPS  C314 9327   3.607   0.155   8.290  0.5193  0.0824  0.2497
   94SAPS  H14X 9328   3.711   0.176   8.257  0.3015 -1.0233 -1.2660
   94SAPS  H14Y 9329   3.600   0.049   8.324  0.8976 -0.0567 -0.0866
   94SAPS  C315 9330   3.568   0.250   8.402 -0.1707 -0.3203  0.4033
   94SAPS  H15X 9331   3.465   0.285   8.377 -0.4328 -1.2570  0.1295
   94SAPS  H15Y 9332   3.636   0.333   8.373  0.2823 -0.5330  0.8577
   94SAPS  C316 9333   3.592   0.187   8.539  0.8163  0.4332  0.2753
   94SAPS  H16X 9334   3.517   0.104   8.541  0.5687  0.6726  1.1222
   94SAPS  H16Y 9335   3.571   0.263   8.617  1.3856  0.1375  0.7220
   94SAPS  C317 9336   3.730   0.120   8.549  0.0019  0.6724  0.3443
   94SAPS  H17X 9337   3.745   0.036   8.477 -0.1443 -1.7036  2.8943
   94SAPS  H17Y 9338   3.742   0.064   8.645  1.2610  2.2852  1.1843
   94SAPS  C318 9339   3.853   0.216   8.534  0.7153  0.1035  0.7123
   94SAPS  H18X 9340   3.954   0.170   8.551 -0.0145 -1.9110 -0.1128
   94SAPS  H18Y 9341   3.840   0.306   8.599 -1.0438 -1.7000  3.0397
   94SAPS  H18Z 9342   3.854   0.247   8.428 -1.2450  1.3800  1.0201
   95SAPS     N 9343   0.868   4.940   6.223 -0.1748  0.7039 -0.5016
   95SAPS   HN1 9344   0.964   4.979   6.213  0.5664 -0.0580  2.6213
   95SAPS   HN2 9345   0.832   4.975   6.314 -2.4075  0.8576 -1.3985
   95SAPS   HN3 9346   0.869   4.836   6.221 -1.1982  0.6276  1.3489
   95SAPS   C12 9347   0.782   4.980   6.105  0.4345  0.8633 -0.2014
   95SAPS  H12A 9348   0.783   5.087   6.095  0.0618  0.7665 -1.5505
   95SAPS   C13 9349   0.826   4.927   5.960 -0.0596  0.5631  0.0312
   95SAPS  O13A 9350   0.927   4.847   5.948  0.1835  0.0416  0.3153
   95SAPS  O13B 9351   0.772   4.975   5.862 -0.6970 -0.1846  0.5967
   95SAPS   C11 9352   0.636   4.931   6.125 -0.4507  0.2568  0.3167
   95SAPS  H11A 9353   0.639   4.820   6.133  0.0359  0.3044  0.8024
   95SAPS  H11B 9354   0.566   4.955   6.041 -0.9453  0.0207  0.6541
   95SAPS     P 9355   0.458   5.072   6.262 -0.2770  0.0957 -0.3517
   95SAPS   O13 9356   0.509   5.209   6.281  0.4803  0.3432  0.8724
   95SAPS   O14 9357   0.366   5.063   6.144 -0.0886  0.0660 -0.3544
   95SAPS   O12 9358   0.587   4.976   6.250  1.0090 -0.3645  0.5561
   95SAPS   O11 9359   0.393   5.026   6.395 -0.0780 -0.4513 -0.3066
   95SAPS    C1 9360   0.462   4.975   6.505  0.0761  0.6784  0.6530
   95SAPS    HA 9361   0.404   4.889   6.544  0.8737 -0.9122 -1.4435
   95SAPS    HB 9362   0.560   4.932   6.475  0.2017  0.9675  0.6484
   95SAPS    C2 9363   0.466   5.078   6.620 -0.1147 -0.1604  0.7737
   95SAPS    HS 9364   0.550   5.150   6.617  0.7992 -1.2402  0.0173
   95SAPS   O21 9365   0.483   5.002   6.737  0.9462  0.2812 -0.3811
   95SAPS   C21 9366   0.606   4.959   6.766  0.0175  0.3444 -0.0949
   95SAPS   O22 9367   0.704   4.979   6.701 -0.5654  0.0824  0.0591
   95SAPS   C22 9368   0.613   4.883   6.899 -0.8075 -0.1402 -1.0637
   95SAPS   H2R 9369   0.613   4.774   6.875 -1.0338 -0.3246 -0.2307
   95SAPS   H2S 9370   0.713   4.901   6.945 -0.8974  0.6311 -1.1471
   95SAPS    C3 9371   0.327   5.156   6.638  0.6153  0.2082  0.0895
   95SAPS    HX 9372   0.252   5.074   6.644  0.7378  0.1871  1.9046
   95SAPS    HY 9373   0.326   5.223   6.549  1.4809  0.0716 -0.0268
   95SAPS   O31 9374   0.316   5.234   6.757 -0.5223  0.1122  0.5885
   95SAPS   C31 9375   0.195   5.300   6.766 -0.1980  0.9058 -0.3649
   95SAPS   O32 9376   0.094   5.271   6.704  0.0353 -0.0433 -0.3157
   95SAPS   C32 9377   0.201   5.376   6.894  0.0080  0.3916 -0.8980
   95SAPS   H2X 9378   0.096   5.403   6.918 -0.5869 -0.5941 -2.2812
   95SAPS   H2Y 9379   0.264   5.468   6.884 -3.6082  3.4908  1.6778
   95SAPS   C23 9380   0.508   4.924   7.005 -0.1896 -0.6250  0.5046
   95SAPS   H3R 9381   0.409   4.890   6.967  0.4600 -1.1564 -0.7438
   95SAPS   H3S 9382   0.526   5.031   7.028  1.5037 -1.0127  1.1537
   95SAPS   C24 9383   0.553   4.858   7.142  0.2822 -0.2074  0.0791
   95SAPS   H4R 9384   0.476   4.891   7.215 -1.6250  1.9056 -2.6670
   95SAPS   H4S 9385   0.645   4.909   7.178  0.6161 -0.2861 -0.6472
   95SAPS   C25 9386   0.574   4.704   7.140 -0.6701  0.4472 -0.6356
   95SAPS   H5R 9387   0.649   4.675   7.065  0.4646  0.9000  0.2838
   95SAPS   C26 9388   0.491   4.613   7.201 -0.2741  0.8270  1.1982
   95SAPS   H6R 9389   0.514   4.506   7.213 -3.3451  0.1644  2.1159
   95SAPS   C27 9390   0.376   4.646   7.284  0.0827  0.3429 -0.4572
   95SAPS   H7R 9391   0.312   4.699   7.210 -1.1688 -0.4513  0.0337
   95SAPS   H7S 9392   0.405   4.725   7.356  0.8828 -1.0515  0.7918
   95SAPS   C28 9393   0.290   4.542   7.353 -0.3513 -0.0241  0.0648
   95SAPS   H8R 9394   0.340   4.448   7.382  1.4113  1.0357  0.6620
   95SAPS   C29 9395   0.175   4.575   7.412 -0.4030 -0.4803 -0.1473
   95SAPS   H9R 9396   0.109   4.506   7.467 -2.2365  0.2021 -1.3969
   95SAPS  C210 9397   0.120   4.719   7.406  0.8547 -0.2621 -0.4919
   95SAPS  H10R 9398   0.047   4.725   7.322  1.0096  1.0540 -0.5458
   95SAPS  H10S 9399   0.189   4.804   7.386 -1.0782  2.3583  2.9576
   95SAPS  C211 9400   0.034   4.750   7.523 -0.3176  0.1299  0.0964
   95SAPS  H11R 9401  -0.075   4.752   7.510 -0.2302 -1.5476 -1.3132
   95SAPS  C212 9402   0.080   4.767   7.650  0.1107 -0.1173 -0.3638
   95SAPS  H12R 9403   0.002   4.798   7.720  1.8617  2.5855  0.5476
   95SAPS  C213 9404   0.221   4.781   7.697 -0.0396 -0.4733  0.3112
   95SAPS  H13R 9405   0.299   4.799   7.620  1.1167  0.6095  1.6808
   95SAPS  H13S 9406   0.253   4.688   7.749  0.4321  0.0621  1.0029
   95SAPS  C214 9407   0.236   4.898   7.792  0.7752  0.0511  0.1939
   95SAPS  H14R 9408   0.224   5.001   7.754 -2.6367 -0.5835 -0.7450
   95SAPS  C215 9409   0.240   4.901   7.923  0.4108 -0.2714  0.3339
   95SAPS  H15R 9410   0.250   4.998   7.974 -3.1011 -1.2902  3.4135
   95SAPS  C216 9411   0.247   4.783   8.015  0.3424  0.6039 -0.1665
   95SAPS  H16R 9412   0.284   4.695   7.959  1.3698  1.1501 -0.3922
   95SAPS  H16S 9413   0.148   4.751   8.053  0.1424 -0.6505 -1.6604
   95SAPS  C217 9414   0.359   4.788   8.116 -0.2819  0.5471 -1.1410
   95SAPS  H17R 9415   0.335   4.865   8.192 -0.0675 -1.4019  1.0257
   95SAPS  H17S 9416   0.455   4.807   8.063 -0.7476  0.7269 -1.9390
   95SAPS  C218 9417   0.387   4.647   8.186 -0.8622 -0.1808  0.1001
   95SAPS  H18R 9418   0.424   4.566   8.120  0.2461 -0.4170  0.9942
   95SAPS  H18S 9419   0.290   4.597   8.209 -0.1422 -1.4928  0.3399
   95SAPS  C219 9420   0.475   4.651   8.310  0.1424 -0.2593 -0.9344
   95SAPS  H19R 9421   0.414   4.712   8.380  1.1127 -0.8864  0.5286
   95SAPS  H19S 9422   0.571   4.703   8.290  0.6120 -0.8748 -0.3677
   95SAPS  C220 9423   0.509   4.524   8.379 -0.4528  0.4876 -0.1846
   95SAPS  H20R 9424   0.462   4.433   8.336 -0.3291 -0.9881  2.5573
   95SAPS  H20S 9425   0.477   4.515   8.485  1.7145 -1.7031  0.3940
   95SAPS  H20T 9426   0.618   4.503   8.371 -0.2564  2.0099 -1.8747
   95SAPS   C33 9427   0.251   5.287   7.008  0.2020  0.0255 -0.4509
   95SAPS   H3X 9428   0.349   5.245   6.979 -0.2280 -2.2297  1.1085
   95SAPS   H3Y 9429   0.176   5.205   7.006 -0.3342  0.4786  0.3288
   95SAPS   C34 9430   0.258   5.354   7.146  0.3932 -0.5446  0.2095
   95SAPS   H4X 9431   0.150   5.355   7.173  0.1532 -1.9579 -0.5988
   95SAPS   H4Y 9432   0.289   5.459   7.128  2.6719 -1.0378  0.8936
   95SAPS   C35 9433   0.362   5.292   7.244 -0.1371  0.2257  0.4708
   95SAPS   H5X 9434   0.364   5.348   7.340 -2.6165  0.3047  0.5307
   95SAPS   H5Y 9435   0.463   5.296   7.198 -1.1674  2.7517 -1.8575
   95SAPS   C36 9436   0.336   5.141   7.276  0.4155 -0.1375 -0.0530
   95SAPS   H6X 9437   0.329   5.104   7.171 -0.8052  0.5792 -0.2451
   95SAPS   H6Y 9438   0.236   5.144   7.324  1.7714  0.1817  2.9872
   95SAPS   C37 9439   0.432   5.067   7.373  1.3722 -0.7814  0.2511
   95SAPS   H7X 9440   0.541   5.075   7.354  1.3347 -0.2580  0.2447
   95SAPS   H7Y 9441   0.397   4.962   7.381  0.8150 -0.7670 -1.4759
   95SAPS   C38 9442   0.411   5.135   7.512  0.2474  0.0586 -0.1062
   95SAPS   H8X 9443   0.309   5.117   7.551 -0.0209  0.6685 -0.5282
   95SAPS   H8Y 9444   0.443   5.240   7.521  0.8783 -0.2627  1.6682
   95SAPS   C39 9445   0.502   5.061   7.604 -0.1085 -0.4005  0.5158
   95SAPS   H9X 9446   0.607   5.070   7.569  0.2923  0.1492  1.7857
   95SAPS   H9Y 9447   0.489   4.951   7.613 -0.9588 -0.2375  1.3079
   95SAPS  C310 9448   0.507   5.128   7.743  0.8328 -0.0636  0.4429
   95SAPS  H10X 9449   0.403   5.136   7.780  0.6969 -0.8095  0.2399
   95SAPS  H10Y 9450   0.549   5.229   7.722 -2.4224  0.9269 -2.3239
   95SAPS  C311 9451   0.568   5.052   7.860 -0.6191 -0.0591  0.7968
   95SAPS  H11X 9452   0.674   5.031   7.835 -1.1661 -3.1565  0.6533
   95SAPS  H11Y 9453   0.516   4.954   7.871 -0.9648 -0.0476 -0.5206
   95SAPS  C312 9454   0.582   5.125   7.990 -0.2139 -0.5427  0.3102
   95SAPS  H12X 9455   0.481   5.141   8.034 -0.5115 -0.1833 -0.4934
   95SAPS  H12Y 9456   0.626   5.226   7.974  0.7030 -1.0060 -0.1492
   95SAPS  C313 9457   0.675   5.053   8.086  0.4363  0.1202 -0.5433
   95SAPS  H13X 9458   0.783   5.069   8.062  0.6367  0.3276  0.4641
   95SAPS  H13Y 9459   0.660   4.943   8.088  0.2695  0.1458 -0.4299
   95SAPS  C314 9460   0.664   5.084   8.239 -0.1944 -0.2911  0.4809
   95SAPS  H14X 9461   0.560   5.090   8.277 -0.2698  0.5673  0.1646
   95SAPS  H14Y 9462   0.702   5.185   8.266  0.3777 -0.6301  0.9710
   95SAPS  C315 9463   0.739   4.986   8.325 -0.2629  0.7744 -0.9081
   95SAPS  H15X 9464   0.848   4.981   8.305 -0.3700 -1.7309 -1.2492
   95SAPS  H15Y 9465   0.704   4.883   8.301 -1.9826  1.0801  0.1434
   95SAPS  C316 9466   0.705   4.989   8.475  0.4757 -0.7860  0.2071
   95SAPS  H16X 9467   0.678   5.093   8.505 -2.0465 -1.6967  1.4251
   95SAPS  H16Y 9468   0.792   4.960   8.538  2.3958 -0.1600 -2.0241
   95SAPS  C317 9469   0.583   4.898   8.515 -0.4173  0.6861 -0.3465
   95SAPS  H17X 9470   0.609   4.794   8.489 -1.6815  0.3161 -0.1787
   95SAPS  H17Y 9471   0.499   4.936   8.454 -0.3489 -0.1733 -0.9891
   95SAPS  C318 9472   0.552   4.906   8.667 -0.3632 -0.0632  0.0431
   95SAPS  H18X 9473   0.455   4.853   8.680 -0.5417  0.7422  2.7166
   95SAPS  H18Y 9474   0.555   5.008   8.712  2.2790  0.2006 -0.5661
   95SAPS  H18Z 9475   0.625   4.845   8.725 -0.0844  2.1922  2.2505
   96SAPS     N 9476   3.202   3.571   6.291 -0.5122  0.1662  0.0575
   96SAPS   HN1 9477   3.267   3.493   6.271  0.6483  1.0626  0.2800
   96SAPS   HN2 9478   3.239   3.644   6.355 -2.7929  1.5284 -0.0590
   96SAPS   HN3 9479   3.112   3.533   6.329  0.1726 -1.4201  0.1604
   96SAPS   C12 9480   3.187   3.655   6.167 -0.9009  0.1156  0.0385
   96SAPS  H12A 9481   3.287   3.685   6.140  0.0030 -3.1859 -0.7591
   96SAPS   C13 9482   3.118   3.581   6.048 -0.1575  0.0956 -0.0411
   96SAPS  O13A 9483   3.042   3.490   6.072 -0.2742 -0.1444 -0.8018
   96SAPS  O13B 9484   3.127   3.631   5.933 -0.1714  0.3024  0.2979
   96SAPS   C11 9485   3.083   3.770   6.200 -0.4747 -0.0117 -0.2588
   96SAPS  H11A 9486   2.980   3.728   6.192 -0.8467  0.4020  1.8283
   96SAPS  H11B 9487   3.104   3.829   6.108  1.5361  0.5719  0.5334
   96SAPS     P 9488   3.002   3.949   6.366 -0.1286 -0.4344  0.5077
   96SAPS   O13 9489   3.060   4.041   6.461  0.5689 -0.1855 -0.2666
   96SAPS   O14 9490   2.960   4.010   6.238  0.8447 -0.0915  0.7249
   96SAPS   O12 9491   3.107   3.842   6.327 -0.5743 -0.1738 -0.2361
   96SAPS   O11 9492   2.874   3.878   6.429  0.0983 -0.0306 -0.4108
   96SAPS    C1 9493   2.886   3.768   6.520  0.7717  0.0079  0.4320
   96SAPS    HA 9494   2.859   3.670   6.474  1.1578 -1.3298  2.8403
   96SAPS    HB 9495   2.993   3.752   6.543  0.5312 -1.4456  0.6747
   96SAPS    C2 9496   2.805   3.782   6.650 -0.2868 -0.0017 -0.4869
   96SAPS    HS 9497   2.696   3.775   6.625 -0.3015  1.1963 -0.8382
   96SAPS   O21 9498   2.842   3.910   6.710 -0.5577  0.2339 -0.0323
   96SAPS   C21 9499   2.763   4.008   6.676  0.1433  0.6529  0.2936
   96SAPS   O22 9500   2.676   4.009   6.586 -0.7068 -0.7623 -0.0825
   96SAPS   C22 9501   2.798   4.136   6.766  0.3929  0.2701  0.0485
   96SAPS   H2R 9502   2.908   4.153   6.767  0.3821  0.3253  1.1851
   96SAPS   H2S 9503   2.745   4.226   6.729  1.8713  1.6186  1.0505
   96SAPS    C3 9504   2.825   3.659   6.754 -0.3381  0.1561 -0.1475
   96SAPS    HX 9505   2.932   3.638   6.773 -1.0523 -1.6306  2.4661
   96SAPS    HY 9506   2.797   3.568   6.697  2.3894 -0.6667 -0.2776
   96SAPS   O31 9507   2.746   3.675   6.882 -0.2279 -0.0147 -0.1679
   96SAPS   C31 9508   2.812   3.748   6.973 -0.0071  0.1582 -0.2418
   96SAPS   O32 9509   2.927   3.780   6.967  0.5385  0.0585 -0.4891
   96SAPS   C32 9510   2.716   3.778   7.084 -0.2749  0.5262 -0.1384
   96SAPS   H2X 9511   2.635   3.702   7.085 -2.0801  2.3596 -0.9407
   96SAPS   H2Y 9512   2.668   3.878   7.076 -0.6630  0.3230 -0.3955
   96SAPS   C23 9513   2.755   4.094   6.915  0.1748  0.3913  0.2614
   96SAPS   H3R 9514   2.813   4.005   6.947  1.2784  0.1944 -2.0131
   96SAPS   H3S 9515   2.650   4.061   6.920  0.1577  0.1155 -1.3811
   96SAPS   C24 9516   2.791   4.213   7.012 -0.1642 -0.4011 -0.2130
   96SAPS   H4R 9517   2.727   4.200   7.102  0.5484  3.8858  1.1380
   96SAPS   H4S 9518   2.749   4.309   6.974  0.6659 -0.0341 -0.2239
   96SAPS   C25 9519   2.939   4.221   7.030  0.2574 -0.2258 -1.0076
   96SAPS   H5R 9520   3.007   4.214   6.943  0.9070 -1.6192 -0.4177
   96SAPS   C26 9521   2.997   4.202   7.155 -0.8391  0.3006 -1.0848
   96SAPS   H6R 9522   3.107   4.197   7.160 -0.9169 -0.1745  1.8795
   96SAPS   C27 9523   2.924   4.181   7.282  0.1340  0.2441  0.1715
   96SAPS   H7R 9524   2.892   4.075   7.279 -0.4580  0.4312 -1.5569
   96SAPS   H7S 9525   2.822   4.225   7.291 -0.9975 -2.6487  4.1156
   96SAPS   C28 9526   3.000   4.210   7.404  0.2219  0.2986  0.3000
   96SAPS   H8R 9527   3.082   4.137   7.420 -0.0001 -0.3384 -1.2904
   96SAPS   C29 9528   2.973   4.294   7.503  0.3387 -0.9652  0.7390
   96SAPS   H9R 9529   3.039   4.304   7.591  1.5205 -1.2337 -0.0908
   96SAPS  C210 9530   2.850   4.382   7.514 -0.0116 -0.5134 -0.9621
   96SAPS  H10R 9531   2.760   4.319   7.528 -1.1134  1.5641  2.4990
   96SAPS  H10S 9532   2.844   4.434   7.416 -0.7927  0.6351 -0.3286
   96SAPS  C211 9533   2.862   4.478   7.636 -0.5147 -0.0059  0.2911
   96SAPS  H11R 9534   2.936   4.560   7.632  0.8511 -1.2344 -0.4196
   96SAPS  C212 9535   2.816   4.463   7.757  0.1499  0.1348  0.1177
   96SAPS  H12R 9536   2.819   4.537   7.839 -0.8570  0.0873  0.2146
   96SAPS  C213 9537   2.752   4.338   7.799  0.2209  0.6093  0.0708
   96SAPS  H13R 9538   2.711   4.268   7.724 -0.0839  1.8686 -0.9823
   96SAPS  H13S 9539   2.672   4.363   7.872  0.4987  2.1470 -0.1000
   96SAPS  C214 9540   2.847   4.255   7.870 -0.6130  0.1382  0.3102
   96SAPS  H14R 9541   2.928   4.213   7.808 -0.0910  0.5666  0.6866
   96SAPS  C215 9542   2.856   4.227   7.999 -0.6287 -0.4896 -0.6411
   96SAPS  H15R 9543   2.950   4.179   8.029 -0.0811  1.3950  0.8973
   96SAPS  C216 9544   2.758   4.275   8.107  0.4850 -0.1654  0.0217
   96SAPS  H16R 9545   2.763   4.207   8.195  2.3149 -0.4774 -0.2917
   96SAPS  H16S 9546   2.657   4.265   8.062  0.2009  0.3498  0.5360
   96SAPS  C217 9547   2.762   4.421   8.146 -0.5604  0.2818 -0.7576
   96SAPS  H17R 9548   2.667   4.439   8.202 -0.9060 -2.9745 -0.1491
   96SAPS  H17S 9549   2.760   4.477   8.049  1.3842 -0.5331 -1.2953
   96SAPS  C218 9550   2.869   4.444   8.256  0.6582 -0.3351  0.0898
   96SAPS  H18R 9551   2.960   4.424   8.196  1.0407  0.3208  0.4432
   96SAPS  H18S 9552   2.854   4.380   8.345 -1.6318 -0.9970 -0.7095
   96SAPS  C219 9553   2.867   4.591   8.306  0.1086 -0.1696 -0.2290
   96SAPS  H19R 9554   2.783   4.618   8.373 -0.9786  2.4382 -2.4487
   96SAPS  H19S 9555   2.855   4.659   8.219 -2.1321  1.1709  1.0155
   96SAPS  C220 9556   2.996   4.637   8.376 -0.6866  0.8246 -0.5641
   96SAPS  H20R 9557   3.011   4.563   8.458 -1.6152 -1.1445 -2.0767
   96SAPS  H20S 9558   2.988   4.731   8.433  4.3907  0.3940  1.3093
   96SAPS  H20T 9559   3.086   4.636   8.311  0.3857 -0.5310  0.8540
   96SAPS   C33 9560   2.765   3.775   7.231 -0.5706  0.4145  0.6475
   96SAPS   H3X 9561   2.863   3.828   7.237 -1.9476  3.2196  0.2791
   96SAPS   H3Y 9562   2.783   3.669   7.258  1.2670  0.2105 -1.1775
   96SAPS   C34 9563   2.663   3.837   7.333  0.0891  0.6743  0.7652
   96SAPS   H4X 9564   2.575   3.776   7.305  1.2589  0.3067 -2.5293
   96SAPS   H4Y 9565   2.652   3.944   7.305  2.0256  0.3927 -1.3618
   96SAPS   C35 9566   2.722   3.822   7.475 -0.3714  0.3404  0.1153
   96SAPS   H5X 9567   2.823   3.868   7.483  0.8824 -2.1230 -0.7018
   96SAPS   H5Y 9568   2.738   3.715   7.501  1.7154 -0.2128 -2.8850
   96SAPS   C36 9569   2.638   3.884   7.580  0.9436 -0.0530  0.0349
   96SAPS   H6X 9570   2.529   3.871   7.565  0.7982  1.7682 -0.7033
   96SAPS   H6Y 9571   2.657   3.993   7.570 -0.7773  0.3431  0.7116
   96SAPS   C37 9572   2.699   3.866   7.719  0.2774 -0.5998 -0.9887
   96SAPS   H7X 9573   2.795   3.923   7.723  0.7651 -1.4510  2.0176
   96SAPS   H7Y 9574   2.720   3.763   7.755 -1.9702 -0.5595  0.6119
   96SAPS   C38 9575   2.625   3.932   7.839 -0.2477  0.0892 -0.2089
   96SAPS   H8X 9576   2.516   3.916   7.824 -0.3899  2.0563 -1.7095
   96SAPS   H8Y 9577   2.637   4.042   7.826 -0.4557  0.3981  1.8996
   96SAPS   C39 9578   2.683   3.900   7.971 -0.5213  0.3738 -0.0080
   96SAPS   H9X 9579   2.671   3.987   8.038  2.7836  0.1441  1.0257
   96SAPS   H9Y 9580   2.792   3.884   7.956 -0.0591  0.5425  2.6941
   96SAPS  C310 9581   2.628   3.780   8.050  0.5532 -0.2966 -0.3050
   96SAPS  H10X 9582   2.621   3.691   7.984  1.1587 -0.4265 -0.2015
   96SAPS  H10Y 9583   2.524   3.799   8.083  1.6733 -0.1195  3.6298
   96SAPS  C311 9584   2.707   3.745   8.180 -0.5287 -0.6731  0.0074
   96SAPS  H11X 9585   2.813   3.762   8.152 -1.2033  2.0760 -1.1563
   96SAPS  H11Y 9586   2.696   3.638   8.206  2.1588 -1.3237 -1.1522
   96SAPS  C312 9587   2.682   3.839   8.298  0.1250 -0.7270 -0.6060
   96SAPS  H12X 9588   2.572   3.846   8.312  0.2253 -1.8066  0.9664
   96SAPS  H12Y 9589   2.733   3.934   8.271 -0.1447 -0.6957 -1.0252
   96SAPS  C313 9590   2.732   3.784   8.428  0.8899 -0.6227 -0.1007
   96SAPS  H13X 9591   2.840   3.758   8.422  1.7099  1.4964  2.9741
   96SAPS  H13Y 9592   2.670   3.698   8.460  1.0545 -0.1826  1.5038
   96SAPS  C314 9593   2.735   3.878   8.555 -0.3751  0.0658  0.1236
   96SAPS  H14X 9594   2.640   3.934   8.565 -0.7019 -0.5062  0.2375
   96SAPS  H14Y 9595   2.818   3.951   8.542  0.4345 -0.8940 -0.2084
   96SAPS  C315 9596   2.750   3.798   8.685 -0.1257  0.3922 -0.4262
   96SAPS  H15X 9597   2.849   3.751   8.670  0.8819  3.2305 -4.3329
   96SAPS  H15Y 9598   2.679   3.713   8.685  0.5549 -0.2095  1.2493
   96SAPS  C316 9599   2.740   3.887   8.817  1.0586  0.0885  0.2055
   96SAPS  H16X 9600   2.813   3.970   8.813  1.4291 -0.2665 -0.5756
   96SAPS  H16Y 9601   2.772   3.826   8.904  0.3239 -1.5556 -0.6502
   96SAPS  C317 9602   2.594   3.949   8.833  0.9181 -0.0134  0.0075
   96SAPS  H17X 9603   2.519   3.867   8.825  0.7663  0.0968  0.2833
   96SAPS  H17Y 9604   2.564   4.009   8.745 -2.4223 -0.6380  0.5753
   96SAPS  C318 9605   2.572   4.034   8.958 -0.4569  0.0838 -0.3417
   96SAPS  H18X 9606   2.468   4.072   8.957 -0.1769  0.8606 -0.6568
   96SAPS  H18Y 9607   2.644   4.119   8.949  0.1113  0.0539  2.7612
   96SAPS  H18Z 9608   2.598   3.980   9.052  0.7761 -0.3181 -0.8960
   97SAPS     N 9609   1.745   2.959   6.506 -0.2121  0.1978  0.0075
   97SAPS   HN1 9610   1.643   2.972   6.490  0.2163  2.2532 -1.3272
   97SAPS   HN2 9611   1.759   2.880   6.572 -2.4110  1.1439  1.7323
   97SAPS   HN3 9612   1.790   3.041   6.552 -0.6113 -0.6338  2.0106
   97SAPS   C12 9613   1.827   2.919   6.381 -0.1129  0.4163 -0.4002
   97SAPS  H12A 9614   1.781   2.831   6.338 -1.1635  0.4122  0.6759
   97SAPS   C13 9615   1.826   3.016   6.266  0.0435 -0.3408  0.8520
   97SAPS  O13A 9616   1.783   3.134   6.280  0.1256 -0.7776  0.7587
   97SAPS  O13B 9617   1.880   2.977   6.163  0.4877 -0.2426  0.0121
   97SAPS   C11 9618   1.976   2.891   6.419  0.3436  0.1109  0.3642
   97SAPS  H11A 9619   2.025   2.980   6.464  0.7985 -0.6578  1.4315
   97SAPS  H11B 9620   2.029   2.865   6.324 -1.9226  0.4594 -1.0722
   97SAPS     P 9621   2.087   2.677   6.515  0.0352 -0.5643  0.1049
   97SAPS   O13 9622   2.112   2.613   6.382 -0.2344 -0.3068 -0.4255
   97SAPS   O14 9623   2.205   2.747   6.561 -0.1298  0.4085  0.4127
   97SAPS   O12 9624   1.973   2.786   6.508  0.0162  0.1597  0.3336
   97SAPS   O11 9625   2.047   2.575   6.633 -0.0530 -0.2569  0.3102
   97SAPS    C1 9626   1.918   2.521   6.645  0.0637 -0.8378 -0.3222
   97SAPS    HA 9627   1.848   2.595   6.689  1.5355  0.4954 -0.1270
   97SAPS    HB 9628   1.874   2.485   6.549 -1.5158 -0.6927  0.3183
   97SAPS    C2 9629   1.923   2.394   6.736  0.2571 -0.4146  0.0294
   97SAPS    HS 9630   1.828   2.341   6.711  1.1748 -2.0582 -0.0840
   97SAPS   O21 9631   1.932   2.424   6.878  0.0491 -0.7643 -0.3788
   97SAPS   C21 9632   1.833   2.503   6.933  0.2892  0.0530 -0.5595
   97SAPS   O22 9633   1.720   2.518   6.887  0.6123  0.4091  0.1249
   97SAPS   C22 9634   1.883   2.570   7.059 -0.0481  0.0773 -0.0039
   97SAPS   H2R 9635   1.925   2.493   7.127 -1.0101  0.7528  1.3965
   97SAPS   H2S 9636   1.966   2.641   7.036 -1.5679  1.5574 -1.1771
   97SAPS    C3 9637   2.036   2.294   6.696  0.5781  0.6609 -0.3464
   97SAPS    HX 9638   2.133   2.348   6.691  0.7606  0.4157  0.4440
   97SAPS    HY 9639   1.994   2.262   6.598  0.4345 -0.2798  0.0066
   97SAPS   O31 9640   2.033   2.196   6.805 -0.0392 -0.2600  0.1322
   97SAPS   C31 9641   1.974   2.081   6.776  0.1559  0.1406  0.2957
   97SAPS   O32 9642   1.936   2.053   6.663  0.0098  0.5055 -0.1645
   97SAPS   C32 9643   1.961   1.986   6.896  0.0268 -0.0471 -0.2278
   97SAPS   H2X 9644   2.064   1.963   6.930 -0.5224 -2.1055  0.1588
   97SAPS   H2Y 9645   1.917   1.889   6.864 -0.3821 -0.5303  1.6508
   97SAPS   C23 9646   1.768   2.638   7.132 -0.3350  0.7676  0.1293
   97SAPS   H3R 9647   1.715   2.554   7.183  2.0296 -0.6614  0.4107
   97SAPS   H3S 9648   1.713   2.701   7.060 -0.3025 -1.4494 -1.9825
   97SAPS   C24 9649   1.821   2.735   7.235  0.8678 -0.2010  0.5255
   97SAPS   H4R 9650   1.732   2.797   7.260  1.7482  0.0881  3.2985
   97SAPS   H4S 9651   1.900   2.804   7.198  1.0499 -0.6153  0.1290
   97SAPS   C25 9652   1.878   2.678   7.363  0.2086  0.2004 -0.0183
   97SAPS   H5R 9653   1.941   2.590   7.342  0.3664  0.2251  0.3413
   97SAPS   C26 9654   1.835   2.699   7.490 -0.2126  0.5735 -0.1686
   97SAPS   H6R 9655   1.871   2.639   7.575 -0.2297 -0.9250 -1.1906
   97SAPS   C27 9656   1.732   2.802   7.541 -0.0710  0.6038  0.4723
   97SAPS   H7R 9657   1.697   2.775   7.643 -2.3179 -3.7980 -1.1976
   97SAPS   H7S 9658   1.641   2.793   7.479 -0.4041  0.0719  1.0226
   97SAPS   C28 9659   1.793   2.942   7.549  0.1775 -0.4407  0.1602
   97SAPS   H8R 9660   1.774   3.003   7.460 -1.1351  0.2286  0.8590
   97SAPS   C29 9661   1.860   2.997   7.656 -0.3269  0.7597  0.1007
   97SAPS   H9R 9662   1.921   3.086   7.638  0.0071 -0.0867 -4.0165
   97SAPS  C210 9663   1.900   2.918   7.777  0.5251 -0.6061 -0.0049
   97SAPS  H10R 9664   2.002   2.945   7.812  0.1451  0.6364  0.1915
   97SAPS  H10S 9665   1.920   2.812   7.750  0.1623 -0.2937 -1.6002
   97SAPS  C211 9666   1.791   2.929   7.884 -0.6613 -0.0347 -0.5087
   97SAPS  H11R 9667   1.710   3.000   7.863  0.6776  1.2512 -1.5156
   97SAPS  C212 9668   1.801   2.856   7.997  0.4763  0.0435  0.5676
   97SAPS  H12R 9669   1.718   2.871   8.067 -0.0782  2.6797 -0.5270
   97SAPS  C213 9670   1.917   2.769   8.040 -0.6262 -0.0928  0.3537
   97SAPS  H13R 9671   1.963   2.809   8.133 -0.0995 -0.1787  0.1338
   97SAPS  H13S 9672   2.000   2.766   7.966 -1.1855 -1.7057 -0.2551
   97SAPS  C214 9673   1.880   2.626   8.064 -0.4651 -0.4119 -0.1383
   97SAPS  H14R 9674   1.800   2.585   8.001 -1.4516  0.5675  0.4306
   97SAPS  C215 9675   1.929   2.556   8.161  0.5208  0.5776  0.4972
   97SAPS  H15R 9676   1.883   2.457   8.176 -0.9679  1.1703 -0.0094
   97SAPS  C216 9677   2.038   2.590   8.257 -0.4912 -0.0485 -0.1109
   97SAPS  H16R 9678   2.032   2.691   8.304  2.3573  0.2356 -0.1685
   97SAPS  H16S 9679   2.133   2.598   8.200 -0.3372  0.1698  0.1776
   97SAPS  C217 9680   2.052   2.490   8.379  0.2899 -0.1294 -0.0919
   97SAPS  H17R 9681   2.162   2.487   8.399  0.5832  0.4421 -1.4480
   97SAPS  H17S 9682   2.016   2.393   8.340 -3.3029  1.0165  0.0840
   97SAPS  C218 9683   1.958   2.511   8.503 -0.0069 -0.2669 -0.3567
   97SAPS  H18R 9684   1.855   2.489   8.469  0.7733 -1.6417 -1.9727
   97SAPS  H18S 9685   1.965   2.610   8.554  0.2208 -0.5634  0.1978
   97SAPS  C219 9686   1.987   2.412   8.615  0.0056 -0.0919 -0.1280
   97SAPS  H19R 9687   2.083   2.452   8.654  0.3887 -0.2658 -0.8663
   97SAPS  H19S 9688   2.009   2.309   8.578  0.5413 -0.5675  1.4254
   97SAPS  C220 9689   1.883   2.418   8.726 -0.3931 -0.6629  0.4119
   97SAPS  H20R 9690   1.933   2.376   8.816  1.8178  0.5056 -0.2019
   97SAPS  H20S 9691   1.790   2.364   8.698 -0.1072 -0.7700 -0.3856
   97SAPS  H20T 9692   1.855   2.524   8.742  2.6186  0.6996 -2.2148
   97SAPS   C33 9693   1.878   2.042   7.016 -0.5616 -0.0730 -0.1157
   97SAPS   H3X 9694   1.827   1.955   7.064  0.0907 -0.5945 -0.3632
   97SAPS   H3Y 9695   1.798   2.118   6.999 -0.0860  0.8280  1.4779
   97SAPS   C34 9696   1.976   2.102   7.130  1.1393  0.1442  0.5745
   97SAPS   H4X 9697   2.039   2.180   7.083  1.7182 -0.5412  0.1964
   97SAPS   H4Y 9698   2.047   2.020   7.154  1.9277  0.7715  0.4093
   97SAPS   C35 9699   1.901   2.136   7.261 -0.0151  0.3246  0.5360
   97SAPS   H5X 9700   1.825   2.057   7.276 -1.0601  1.2350  0.2172
   97SAPS   H5Y 9701   1.844   2.230   7.241 -0.8783 -0.1532  0.7094
   97SAPS   C36 9702   1.999   2.147   7.384  0.6969  0.2477  0.8976
   97SAPS   H6X 9703   2.083   2.204   7.338  1.8938 -0.4622  2.1510
   97SAPS   H6Y 9704   2.022   2.043   7.413  0.7559 -0.5210 -1.6767
   97SAPS   C37 9705   1.932   2.207   7.503  0.5882 -0.1114  0.6550
   97SAPS   H7X 9706   1.828   2.169   7.510  0.1355  0.7107 -1.0871
   97SAPS   H7Y 9707   1.915   2.316   7.490  0.9465  0.1011  1.8790
   97SAPS   C38 9708   2.009   2.191   7.631 -0.4778 -0.5964  0.3123
   97SAPS   H8X 9709   2.117   2.193   7.605 -0.4936 -0.1530  0.2671
   97SAPS   H8Y 9710   1.990   2.089   7.671 -0.5461  0.0794  2.1316
   97SAPS   C39 9711   1.981   2.307   7.735 -0.3592  0.4034  0.0667
   97SAPS   H9X 9712   1.873   2.331   7.740 -0.5593 -0.4506  0.0295
   97SAPS   H9Y 9713   2.031   2.399   7.698  0.0610  0.3614  0.5183
   97SAPS  C310 9714   2.023   2.263   7.877  0.8116  0.6927 -0.7933
   97SAPS  H10X 9715   1.981   2.163   7.898  0.4072  0.9393 -0.4059
   97SAPS  H10Y 9716   1.986   2.341   7.947 -0.0978  2.0502 -2.6803
   97SAPS  C311 9717   2.176   2.259   7.892  0.0661  0.2376  0.4612
   97SAPS  H11X 9718   2.202   2.347   7.956  1.0028  0.9519 -0.8622
   97SAPS  H11Y 9719   2.227   2.277   7.796 -1.0189 -2.3005 -0.6839
   97SAPS  C312 9720   2.221   2.116   7.943  0.1706  0.6450 -0.6535
   97SAPS  H12X 9721   2.332   2.115   7.940  0.1887 -0.9203 -0.4498
   97SAPS  H12Y 9722   2.193   2.040   7.867  0.5515  0.2894 -0.4353
   97SAPS  C313 9723   2.169   2.088   8.090  0.0008  0.3534  0.0958
   97SAPS  H13X 9724   2.163   1.978   8.102 -1.3544 -0.0111 -2.9863
   97SAPS  H13Y 9725   2.065   2.126   8.085 -0.9719 -2.1872 -1.1183
   97SAPS  C314 9726   2.255   2.140   8.206 -0.5456  0.1469 -0.8318
   97SAPS  H14X 9727   2.232   2.248   8.221  0.4983 -0.0158  2.8944
   97SAPS  H14Y 9728   2.364   2.124   8.193  0.2420  1.0395  3.4222
   97SAPS  C315 9729   2.215   2.059   8.331 -0.2964 -0.5809 -0.4461
   97SAPS  H15X 9730   2.256   1.956   8.330  0.1946 -0.4145  0.7677
   97SAPS  H15Y 9731   2.105   2.057   8.339 -0.1885  0.7813  3.1216
   97SAPS  C316 9732   2.267   2.140   8.449  0.1610  0.1955 -0.0206
   97SAPS  H16X 9733   2.225   2.243   8.454  0.0779  0.1043  2.4420
   97SAPS  H16Y 9734   2.373   2.168   8.431 -0.6975  1.7690 -3.5502
   97SAPS  C317 9735   2.231   2.090   8.589  0.0477 -0.4091 -0.1849
   97SAPS  H17X 9736   2.273   1.989   8.606  1.3293 -0.1181 -1.3191
   97SAPS  H17Y 9737   2.121   2.080   8.598 -0.0306 -0.5847 -1.1962
   97SAPS  C318 9738   2.295   2.185   8.694  0.3017 -0.5594 -0.1916
   97SAPS  H18X 9739   2.264   2.169   8.800  0.5567  1.2005  0.1735
   97SAPS  H18Y 9740   2.270   2.286   8.654 -2.6261 -1.3083 -0.5082
   97SAPS  H18Z 9741   2.405   2.183   8.684  0.4033 -0.7708  0.8503
   98SAPS     N 9742   1.134   4.680   6.049  0.6964  0.3337 -0.1475
   98SAPS   HN1 9743   1.074   4.762   6.027  0.7641  0.9939  1.9566
   98SAPS   HN2 9744   1.084   4.589   6.035  1.0196 -0.1470  1.5339
   98SAPS   HN3 9745   1.159   4.700   6.148 -1.3201  0.8266  0.2975
   98SAPS   C12 9746   1.259   4.685   5.974 -0.5398 -0.1079 -0.1029
   98SAPS  H12A 9747   1.241   4.668   5.868  1.6747 -0.7275 -0.4226
   98SAPS   C13 9748   1.333   4.819   5.994 -0.4928 -0.1368  0.5565
   98SAPS  O13A 9749   1.281   4.917   6.057 -0.7502  0.0948  0.4054
   98SAPS  O13B 9750   1.425   4.849   5.915 -0.4283 -0.6009  0.0942
   98SAPS   C11 9751   1.357   4.578   6.020 -0.0495 -0.1478  0.6399
   98SAPS  H11A 9752   1.453   4.592   5.965 -1.4620 -0.5397 -2.1055
   98SAPS  H11B 9753   1.327   4.477   5.984 -0.4103 -0.2693  1.2675
   98SAPS     P 9754   1.491   4.504   6.228 -0.0912 -0.5796 -0.0551
   98SAPS   O13 9755   1.556   4.414   6.130 -0.2951  0.1827  0.9003
   98SAPS   O14 9756   1.580   4.600   6.294  0.0356  0.0083  0.4398
   98SAPS   O12 9757   1.365   4.579   6.164 -0.9885  0.0365 -0.2271
   98SAPS   O11 9758   1.425   4.417   6.341  0.1758 -0.0936 -0.8457
   98SAPS    C1 9759   1.326   4.466   6.420  0.5475 -0.3912 -0.2056
   98SAPS    HA 9760   1.342   4.574   6.439  1.8313 -0.3101 -1.5682
   98SAPS    HB 9761   1.228   4.449   6.370 -0.3128 -1.0970  1.6360
   98SAPS    C2 9762   1.295   4.398   6.554 -0.5350 -0.3811  0.4875
   98SAPS    HS 9763   1.209   4.445   6.606  0.1098  0.1604  1.0846
   98SAPS   O21 9764   1.408   4.404   6.642 -0.0066 -0.3484  0.7786
   98SAPS   C21 9765   1.413   4.520   6.710 -0.1463 -0.0905 -1.0022
   98SAPS   O22 9766   1.344   4.618   6.701  0.3887 -0.1395  0.0999
   98SAPS   C22 9767   1.521   4.501   6.814  0.0806 -0.7685 -0.4021
   98SAPS   H2R 9768   1.613   4.495   6.753  0.5506  2.1054 -0.1609
   98SAPS   H2S 9769   1.535   4.593   6.876 -0.7218  0.3250 -1.7811
   98SAPS    C3 9770   1.258   4.252   6.534  0.3308 -0.5874 -0.4110
   98SAPS    HX 9771   1.343   4.198   6.489  0.6487  0.5474 -1.2169
   98SAPS    HY 9772   1.173   4.246   6.463 -1.1959 -1.3786  1.4052
   98SAPS   O31 9773   1.224   4.195   6.658  0.4846 -0.0069 -0.5347
   98SAPS   C31 9774   1.099   4.165   6.686  0.6670  0.2596  0.1008
   98SAPS   O32 9775   1.007   4.186   6.606  0.9965 -0.2318  0.3342
   98SAPS   C32 9776   1.095   4.113   6.828 -0.2509  0.5173 -0.3003
   98SAPS   H2X 9777   1.031   4.183   6.886  0.1006  1.4070 -0.9545
   98SAPS   H2Y 9778   1.200   4.120   6.864 -0.1455 -1.3693 -0.1583
   98SAPS   C23 9779   1.512   4.374   6.910  0.6733  0.5197  0.6331
   98SAPS   H3R 9780   1.602   4.397   6.970  0.5137  3.4446 -0.0532
   98SAPS   H3S 9781   1.522   4.279   6.855  3.6362  1.5303 -0.7625
   98SAPS   C24 9782   1.395   4.358   7.007  0.0139  0.3149 -0.3177
   98SAPS   H4R 9783   1.300   4.353   6.950 -1.5309 -1.6248  2.2410
   98SAPS   H4S 9784   1.388   4.447   7.073 -2.4149  1.1145 -1.5465
   98SAPS   C25 9785   1.402   4.227   7.079  0.3863 -0.0246  0.3706
   98SAPS   H5R 9786   1.435   4.146   7.012  1.9798  1.1692 -0.3437
   98SAPS   C26 9787   1.379   4.210   7.212  0.1106  0.2802  0.9141
   98SAPS   H6R 9788   1.387   4.107   7.251 -1.5219 -0.5436 -0.7781
   98SAPS   C27 9789   1.339   4.307   7.312  0.1775 -0.0409 -0.8519
   98SAPS   H7R 9790   1.287   4.391   7.261 -1.2200  0.0088  0.6152
   98SAPS   H7S 9791   1.410   4.357   7.381  0.1144 -0.2938 -0.6058
   98SAPS   C28 9792   1.229   4.243   7.398 -0.1475  0.0545  0.1904
   98SAPS   H8R 9793   1.168   4.162   7.356 -1.8184  1.4368 -0.1525
   98SAPS   C29 9794   1.184   4.274   7.520 -0.1136 -0.4376  0.1144
   98SAPS   H9R 9795   1.096   4.215   7.550 -1.1130  0.5361 -0.8004
   98SAPS  C210 9796   1.222   4.393   7.594 -0.7147  0.2713 -0.7353
   98SAPS  H10R 9797   1.151   4.477   7.582  0.1129  0.9631 -0.8258
   98SAPS  H10S 9798   1.305   4.441   7.539  0.9066 -1.3712  0.1773
   98SAPS  C211 9799   1.265   4.363   7.738  0.1591  0.2741 -1.0925
   98SAPS  H11R 9800   1.363   4.315   7.745 -0.9161 -1.7908  1.6798
   98SAPS  C212 9801   1.203   4.394   7.858  0.4966  0.3417  0.2573
   98SAPS  H12R 9802   1.248   4.357   7.951 -0.9151 -1.7094  0.1829
   98SAPS  C213 9803   1.072   4.466   7.865  0.2010  0.3947  0.5082
   98SAPS  H13R 9804   1.032   4.497   7.766  1.3498  1.2280  0.2787
   98SAPS  H13S 9805   1.092   4.561   7.920 -0.9374  0.5582  0.6528
   98SAPS  C214 9806   0.972   4.374   7.932  0.2624 -0.2543 -0.4586
   98SAPS  H14R 9807   0.984   4.265   7.922  2.7452  0.0072 -1.0302
   98SAPS  C215 9808   0.875   4.428   8.009  0.4686  0.2830 -0.4119
   98SAPS  H15R 9809   0.788   4.365   8.031  0.3085  0.8495  0.6404
   98SAPS  C216 9810   0.847   4.572   8.050 -0.0246  0.0028 -0.4280
   98SAPS  H16R 9811   0.935   4.641   8.051 -1.0708  1.3838  0.3417
   98SAPS  H16S 9812   0.807   4.563   8.153  0.0912  0.5214 -0.3323
   98SAPS  C217 9813   0.712   4.632   7.987 -0.0732  0.2220  0.3481
   98SAPS  H17R 9814   0.704   4.737   8.022  0.4997  0.8252 -1.2306
   98SAPS  H17S 9815   0.621   4.590   8.034  1.1043 -1.8242  0.9129
   98SAPS  C218 9816   0.701   4.639   7.838  0.4033 -0.0446 -0.1363
   98SAPS  H18R 9817   0.797   4.612   7.788  0.4099  1.8332 -1.2161
   98SAPS  H18S 9818   0.675   4.737   7.793  1.2594 -0.5423 -1.8179
   98SAPS  C219 9819   0.596   4.540   7.776  0.6854 -0.1612  0.8576
   98SAPS  H19R 9820   0.508   4.513   7.839 -0.9753  1.7008 -0.5150
   98SAPS  H19S 9821   0.642   4.440   7.759  0.5050 -0.3084  1.2194
   98SAPS  C220 9822   0.547   4.592   7.641 -0.3153 -0.1266  0.2204
   98SAPS  H20R 9823   0.487   4.517   7.585  1.4890 -0.9790 -0.6709
   98SAPS  H20S 9824   0.640   4.614   7.585 -1.3252  1.2682 -0.9653
   98SAPS  H20T 9825   0.491   4.687   7.649 -1.5189 -0.7859 -0.1620
   98SAPS   C33 9826   1.040   3.970   6.831 -0.1063  0.0350  0.0625
   98SAPS   H3X 9827   1.079   3.916   6.742  0.6179  0.4516  0.1165
   98SAPS   H3Y 9828   0.931   3.987   6.821 -0.3781 -0.9576  1.1820
   98SAPS   C34 9829   1.095   3.878   6.941  0.0927 -0.3883 -1.4490
   98SAPS   H4X 9830   1.205   3.865   6.933  0.2830  1.3146 -2.0608
   98SAPS   H4Y 9831   1.053   3.775   6.948  2.8345 -1.5919 -1.6243
   98SAPS   C35 9832   1.055   3.936   7.080  0.0430 -0.0216  0.0602
   98SAPS   H5X 9833   0.954   3.982   7.071 -1.0841 -1.8555  2.3757
   98SAPS   H5Y 9834   1.131   4.007   7.118  0.5354 -0.7222  0.3945
   98SAPS   C36 9835   1.046   3.827   7.191 -0.2048  0.4752 -0.5705
   98SAPS   H6X 9836   1.148   3.782   7.185 -0.9721 -2.4576  3.3676
   98SAPS   H6Y 9837   0.983   3.737   7.174  2.0415 -1.4721  0.7366
   98SAPS   C37 9838   1.015   3.882   7.330 -0.3576  0.1763  0.3156
   98SAPS   H7X 9839   0.909   3.917   7.333 -0.4572 -0.2037  2.2919
   98SAPS   H7Y 9840   1.081   3.971   7.335 -2.1298  1.6035 -0.3302
   98SAPS   C38 9841   1.033   3.781   7.440 -0.1396 -0.2193  0.2418
   98SAPS   H8X 9842   1.126   3.737   7.397 -1.4052 -0.4328 -2.4439
   98SAPS   H8Y 9843   0.946   3.713   7.444 -0.0517 -0.3204  0.4541
   98SAPS   C39 9844   1.045   3.854   7.574  0.3010 -0.2856 -0.3478
   98SAPS   H9X 9845   0.952   3.909   7.599 -0.2761 -1.3670 -0.0481
   98SAPS   H9Y 9846   1.122   3.934   7.572 -0.0289  0.0354 -0.3442
   98SAPS  C310 9847   1.071   3.756   7.687 -0.2749 -0.1945 -0.5348
   98SAPS  H10X 9848   1.161   3.695   7.661  1.1445 -0.1793  3.6413
   98SAPS  H10Y 9849   0.988   3.683   7.697 -0.6684  0.2555 -0.4895
   98SAPS  C311 9850   1.108   3.815   7.825 -0.3195 -0.2236 -0.1750
   98SAPS  H11X 9851   1.021   3.881   7.846  0.0049  1.0558 -2.4380
   98SAPS  H11Y 9852   1.195   3.885   7.827  0.2030 -0.8836  0.7235
   98SAPS  C312 9853   1.142   3.714   7.939 -0.2920  0.0009  0.6931
   98SAPS  H12X 9854   1.242   3.671   7.916 -0.9870 -0.9951 -0.6438
   98SAPS  H12Y 9855   1.068   3.631   7.936 -0.4511  0.1619  0.0589
   98SAPS  C313 9856   1.129   3.785   8.074 -0.5942  0.8621 -0.3417
   98SAPS  H13X 9857   1.023   3.810   8.094 -0.1702  2.9230 -0.4632
   98SAPS  H13Y 9858   1.179   3.884   8.078  1.0528  0.0413  2.3216
   98SAPS  C314 9859   1.187   3.686   8.181  0.1597 -0.3491 -0.2089
   98SAPS  H14X 9860   1.297   3.679   8.170  0.3425  1.1933  0.4781
   98SAPS  H14Y 9861   1.130   3.590   8.177  0.1511 -0.5239  2.1565
   98SAPS  C315 9862   1.162   3.754   8.322  0.5570  0.5528  0.2942
   98SAPS  H15X 9863   1.054   3.767   8.345  0.8024  0.3519  1.6903
   98SAPS  H15Y 9864   1.205   3.855   8.339  1.9475 -0.1657  1.2923
   98SAPS  C316 9865   1.226   3.663   8.422 -0.5521 -0.9670 -0.2394
   98SAPS  H16X 9866   1.332   3.641   8.397 -0.3528 -0.5795  0.2480
   98SAPS  H16Y 9867   1.167   3.569   8.420  0.1685 -1.5926  2.8348
   98SAPS  C317 9868   1.226   3.725   8.558 -0.4285  0.3795 -0.5745
   98SAPS  H17X 9869   1.125   3.717   8.604 -0.2729 -0.2200 -0.3263
   98SAPS  H17Y 9870   1.247   3.834   8.557  1.4361  0.1339  2.1065
   98SAPS  C318 9871   1.316   3.654   8.668 -0.2738  0.2230  0.2493
   98SAPS  H18X 9872   1.277   3.551   8.681  3.3398 -1.5035 -0.9976
   98SAPS  H18Y 9873   1.300   3.699   8.768  1.8977 -0.0554  0.7798
   98SAPS  H18Z 9874   1.425   3.664   8.647  0.2508 -1.5061  1.8778
   99SAPS     N 9875   2.263   1.339   6.052  0.4452  0.2359 -0.3228
   99SAPS   HN1 9876   2.317   1.423   6.022 -1.3007  1.1951 -0.9457
   99SAPS   HN2 9877   2.186   1.366   6.116 -0.4640  1.1162 -1.7281
   99SAPS   HN3 9878   2.326   1.268   6.094 -0.5789 -0.0906  0.6903
   99SAPS   C12 9879   2.192   1.275   5.933  0.3331 -0.4060  0.3374
   99SAPS  H12A 9880   2.122   1.350   5.900 -0.3650 -0.7976  0.8959
   99SAPS   C13 9881   2.287   1.242   5.810  0.2992 -0.2610 -0.4486
   99SAPS  O13A 9882   2.405   1.271   5.818 -0.3305 -0.0296 -0.0869
   99SAPS  O13B 9883   2.235   1.192   5.709 -0.1930  0.7042 -0.5912
   99SAPS   C11 9884   2.107   1.155   5.971  0.2189  0.1014  0.0280
   99SAPS  H11A 9885   2.176   1.068   5.972 -0.8117 -0.7383 -0.2372
   99SAPS  H11B 9886   2.038   1.135   5.886  0.8146  0.3728 -0.5276
   99SAPS     P 9887   1.919   1.055   6.114 -0.6529  0.1842 -0.2010
   99SAPS   O13 9888   1.791   1.114   6.070 -0.5557 -0.6306 -0.3093
   99SAPS   O14 9889   1.950   0.923   6.058 -0.1261  0.6803 -0.0101
   99SAPS   O12 9890   2.039   1.164   6.099  0.3082 -0.0891 -0.3351
   99SAPS   O11 9891   1.909   1.047   6.272  0.0070 -0.5650 -0.0602
   99SAPS    C1 9892   2.008   1.102   6.358 -0.2538 -0.5803  0.1446
   99SAPS    HA 9893   2.052   1.199   6.324  2.7502 -1.7552  0.3604
   99SAPS    HB 9894   1.957   1.112   6.456  1.7916  0.5787  1.1513
   99SAPS    C2 9895   2.132   1.021   6.396 -0.1302  0.3136 -1.1911
   99SAPS    HS 9896   2.183   1.002   6.300 -0.2141 -1.1019 -0.9656
   99SAPS   O21 9897   2.088   0.901   6.457 -0.2304 -0.6464  0.2913
   99SAPS   C21 9898   2.178   0.811   6.485  0.3180  0.5494 -0.0512
   99SAPS   O22 9899   2.290   0.798   6.441  0.1046 -0.4496  0.0938
   99SAPS   C22 9900   2.108   0.706   6.576  0.0896 -0.4382 -0.3200
   99SAPS   H2R 9901   2.072   0.761   6.665  0.5263 -0.4371 -0.1451
   99SAPS   H2S 9902   2.019   0.671   6.519 -1.7166 -0.6268  2.4352
   99SAPS    C3 9903   2.237   1.095   6.488  0.7707  0.1760  0.6060
   99SAPS    HX 9904   2.278   1.180   6.428  0.6217  0.1856  0.5186
   99SAPS    HY 9905   2.327   1.032   6.507 -0.4866 -1.5134  1.1471
   99SAPS   O31 9906   2.172   1.155   6.605 -0.0220  0.5404 -0.5292
   99SAPS   C31 9907   2.194   1.085   6.716 -0.1023  0.1239 -0.2441
   99SAPS   O32 9908   2.262   0.982   6.733  0.1807  0.2051 -0.5508
   99SAPS   C32 9909   2.134   1.164   6.831 -0.2452 -0.8926  0.9261
   99SAPS   H2X 9910   2.065   1.243   6.795 -0.0087 -0.0883  2.1762
   99SAPS   H2Y 9911   2.218   1.224   6.873  2.1765  1.2042 -5.6655
   99SAPS   C23 9912   2.203   0.590   6.631  0.2701  0.4336  0.6520
   99SAPS   H3R 9913   2.285   0.620   6.700  0.3763 -1.4566  1.4101
   99SAPS   H3S 9914   2.233   0.525   6.545 -0.1060  0.2488  0.6573
   99SAPS   C24 9915   2.115   0.494   6.720  0.0882  0.0553  0.2390
   99SAPS   H4R 9916   2.069   0.555   6.801 -0.5060 -0.0783  0.0095
   99SAPS   H4S 9917   2.180   0.423   6.775  1.1216 -0.6029 -1.7556
   99SAPS   C25 9918   2.002   0.418   6.653 -0.1582 -0.3829  0.0494
   99SAPS   H5R 9919   1.934   0.486   6.599  1.0000  0.6287 -0.1922
   99SAPS   C26 9920   1.980   0.287   6.652 -0.2179  0.0409 -0.1369
   99SAPS   H6R 9921   1.892   0.255   6.593  0.1838  0.7236 -1.1366
   99SAPS   C27 9922   2.073   0.185   6.710 -0.5338 -0.0450 -0.2614
   99SAPS   H7R 9923   2.102   0.204   6.815  0.1769 -1.0581 -0.2603
   99SAPS   H7S 9924   2.157   0.170   6.639 -0.6652 -3.5288  0.1467
   99SAPS   C28 9925   2.007   0.049   6.696  0.3118  0.4562 -0.3864
   99SAPS   H8R 9926   2.023   0.002   6.598 -1.9499  0.4378 -0.7984
   99SAPS   C29 9927   1.941  -0.019   6.799 -0.5838  0.1445 -0.2067
   99SAPS   H9R 9928   1.899  -0.120   6.788  0.8503 -0.6655  1.2627
   99SAPS  C210 9929   1.926   0.028   6.941  0.1246 -0.5211 -0.1497
   99SAPS  H10R 9930   1.815   0.030   6.953  0.0813 -2.0821 -0.0544
   99SAPS  H10S 9931   1.950   0.136   6.945 -1.4792 -0.1747  3.1888
   99SAPS  C211 9932   1.993  -0.065   7.034 -0.0929 -0.1551  0.9560
   99SAPS  H11R 9933   2.048  -0.150   6.991 -0.9588 -0.4315  0.3612
   99SAPS  C212 9934   1.990  -0.033   7.167 -0.1672  0.0487 -0.4367
   99SAPS  H12R 9935   2.036  -0.106   7.235  1.1294 -1.0647 -2.4257
   99SAPS  C213 9936   1.923   0.087   7.238 -0.3687  0.3006  0.4092
   99SAPS  H13R 9937   1.835   0.126   7.183  0.5916  0.5839 -0.9780
   99SAPS  H13S 9938   1.993   0.172   7.245  1.4264 -1.1167  0.4314
   99SAPS  C214 9939   1.869   0.048   7.383  0.5384 -0.1095  0.0467
   99SAPS  H14R 9940   1.796  -0.035   7.393 -0.4048  0.7815  0.7519
   99SAPS  C215 9941   1.900   0.113   7.502 -0.0894  0.4552  0.3385
   99SAPS  H15R 9942   1.853   0.069   7.591 -0.9433  0.3560 -0.1497
   99SAPS  C216 9943   2.002   0.225   7.522  0.5208 -0.5762 -0.2333
   99SAPS  H16R 9944   1.948   0.321   7.534  0.0308 -0.9903  1.1268
   99SAPS  H16S 9945   2.069   0.237   7.435  2.0123 -0.3617  0.9069
   99SAPS  C217 9946   2.095   0.211   7.643 -0.0275 -0.1638  0.1339
   99SAPS  H17R 9947   2.153   0.301   7.673  0.7674 -0.3415 -0.8443
   99SAPS  H17S 9948   2.159   0.121   7.629  0.1745 -0.8852  4.3279
   99SAPS  C218 9949   2.026   0.181   7.773 -0.0845 -0.1792  0.1562
   99SAPS  H18R 9950   1.954   0.097   7.760 -3.0435  2.2782 -0.4076
   99SAPS  H18S 9951   1.971   0.272   7.804  1.2995 -0.3882  3.6541
   99SAPS  C219 9952   2.100   0.148   7.902 -0.3709  0.3116 -0.4145
   99SAPS  H19R 9953   2.021   0.166   7.978 -3.0359  0.8321 -3.0912
   99SAPS  H19S 9954   2.176   0.227   7.920 -0.1145 -0.3180  1.4749
   99SAPS  C220 9955   2.155   0.006   7.915 -0.5937 -1.4603  0.4860
   99SAPS  H20R 9956   2.244   0.001   7.848 -0.7692  0.0000  0.1239
   99SAPS  H20S 9957   2.086  -0.078   7.890 -0.2532 -1.5580 -0.1418
   99SAPS  H20T 9958   2.190  -0.011   8.019 -1.3466 -1.0858  0.8103
   99SAPS   C33 9959   2.078   1.063   6.935 -0.1420 -0.6154  0.0149
   99SAPS   H3X 9960   2.165   1.007   6.977 -0.1751 -0.7191 -0.0543
   99SAPS   H3Y 9961   2.011   0.993   6.880 -0.0812 -0.5286 -0.1696
   99SAPS   C34 9962   1.993   1.133   7.047 -1.0621  0.0539  0.2255
   99SAPS   H4X 9963   1.934   1.047   7.084  1.3147 -2.6716 -1.7927
   99SAPS   H4Y 9964   1.918   1.206   7.012 -0.4548  0.6850  0.2224
   99SAPS   C35 9965   2.073   1.178   7.173  0.7311  0.6371 -0.2370
   99SAPS   H5X 9966   2.114   1.276   7.142  1.4641  0.0807 -1.0665
   99SAPS   H5Y 9967   2.157   1.106   7.186  0.3974  0.5351  1.6196
   99SAPS   C36 9968   1.987   1.171   7.300  0.5108 -0.6196 -0.8762
   99SAPS   H6X 9969   1.960   1.067   7.324 -0.3864  0.0194  1.0435
   99SAPS   H6Y 9970   1.896   1.232   7.282  0.0075 -1.0493  0.1793
   99SAPS   C37 9971   2.066   1.236   7.413  0.4637  0.3162  0.4448
   99SAPS   H7X 9972   2.003   1.264   7.500 -0.6396  1.5143 -0.7160
   99SAPS   H7Y 9973   2.109   1.334   7.384 -1.1626  1.0663  0.4602
   99SAPS   C38 9974   2.185   1.146   7.453  0.3527  0.6978  0.3775
   99SAPS   H8X 9975   2.268   1.146   7.378  0.2697 -0.4161  0.2658
   99SAPS   H8Y 9976   2.156   1.041   7.474 -0.1275  0.4595 -1.3187
   99SAPS   C39 9977   2.239   1.204   7.593  0.1781 -0.2993 -0.1789
   99SAPS   H9X 9978   2.147   1.209   7.656 -0.8624 -1.9263 -1.4715
   99SAPS   H9Y 9979   2.276   1.308   7.579  3.2264 -0.8848  2.5386
   99SAPS  C310 9980   2.342   1.126   7.671  0.3188  0.2809  0.4489
   99SAPS  H10X 9981   2.428   1.106   7.604 -0.6913 -0.7401 -0.5926
   99SAPS  H10Y 9982   2.304   1.029   7.709  0.7874  0.1100  0.4849
   99SAPS  C311 9983   2.402   1.207   7.789  0.1828 -0.6161  0.0234
   99SAPS  H11X 9984   2.416   1.313   7.758  1.5319 -0.5595  0.7677
   99SAPS  H11Y 9985   2.502   1.166   7.814  0.3857 -1.6932 -2.2812
   99SAPS  C312 9986   2.312   1.201   7.915  0.1432 -0.8090 -0.0391
   99SAPS  H12X 9987   2.284   1.099   7.950  2.9361 -1.2125  1.2945
   99SAPS  H12Y 9988   2.217   1.258   7.909  1.7859  2.1651  0.2066
   99SAPS  C313 9989   2.377   1.272   8.033 -0.3401 -0.2535 -0.5688
   99SAPS  H13X 9990   2.424   1.370   8.008 -1.7931  0.7191  0.3911
   99SAPS  H13Y 9991   2.457   1.198   8.054 -0.4278  0.4750  2.9622
   99SAPS  C314 9992   2.294   1.282   8.157 -0.0872 -0.0077  0.4995
   99SAPS  H14X 9993   2.262   1.177   8.175  0.0541 -0.7285 -2.8611
   99SAPS  H14Y 9994   2.210   1.349   8.129  0.0074 -0.0112  0.2079
   99SAPS  C315 9995   2.377   1.330   8.273  0.0722  0.0445  0.6413
   99SAPS  H15X 9996   2.426   1.428   8.252 -1.7111  0.7960 -0.3162
   99SAPS  H15Y 9997   2.458   1.255   8.286  1.1461  0.6177 -1.9461
   99SAPS  C316 9998   2.286   1.336   8.398 -0.4401 -0.1670 -0.0211
   99SAPS  H16X 9999   2.252   1.231   8.410 -1.5046  0.2994  1.3142
   99SAPS  H16Y10000   2.194   1.397   8.380  0.5136  0.6733 -2.4762
   99SAPS  C31710001   2.353   1.381   8.526 -0.4241  0.1270 -0.7347
   99SAPS  H17X10002   2.377   1.488   8.508 -2.4059  0.7726  0.2012
   99SAPS  H17Y10003   2.436   1.308   8.537 -0.0220  0.7017  0.1688
   99SAPS  C31810004   2.268   1.374   8.654  0.4390 -0.5618 -0.4267
   99SAPS  H18X10005   2.167   1.410   8.626  0.2443 -1.0067 -0.3039
   99SAPS  H18Y10006   2.320   1.441   8.727 -0.0628 -1.0864  0.4296
   99SAPS  H18Z10007   2.261   1.269   8.688  0.7026  0.0617  1.7366
  100SAPS     N10008   4.287   3.235   6.401 -0.0092  0.4803  0.2531
  100SAPS   HN110009   4.357   3.181   6.455 -0.0803  0.1733  0.0397
  100SAPS   HN210010   4.197   3.241   6.454 -0.6849  0.1518 -0.8362
  100SAPS   HN310011   4.277   3.179   6.315 -0.6429  0.1672  0.5224
  100SAPS   C1210012   4.335   3.371   6.372  0.2663  0.1758  0.7488
  100SAPS  H12A10013   4.388   3.406   6.460  1.0857 -1.2095  0.8357
  100SAPS   C1310014   4.437   3.378   6.252  0.7546 -0.2552  0.2788
  100SAPS  O13A10015   4.491   3.272   6.215 -0.1982  1.2330  0.1589
  100SAPS  O13B10016   4.497   3.491   6.241 -0.0895  0.2180 -0.4313
  100SAPS   C1110017   4.214   3.463   6.330  0.1446  0.3407 -0.4806
  100SAPS  H11A10018   4.162   3.407   6.249  0.5183 -0.1286 -0.4059
  100SAPS  H11B10019   4.245   3.559   6.284  0.1941 -0.0318 -1.2394
  100SAPS     P10020   4.125   3.583   6.552 -0.4985 -0.4588  0.1021
  100SAPS   O1310021   4.218   3.689   6.498 -0.3162  0.0139 -0.6066
  100SAPS   O1410022   3.988   3.616   6.596 -0.1682 -0.9664 -0.3677
  100SAPS   O1210023   4.125   3.469   6.446  0.1409 -0.0474 -0.0887
  100SAPS   O1110024   4.207   3.516   6.663  0.0018  0.1879 -0.4244
  100SAPS    C110025   4.172   3.389   6.722  0.1517 -0.5442  0.0139
  100SAPS    HA10026   4.100   3.337   6.655  1.7411 -0.2491 -2.0376
  100SAPS    HB10027   4.260   3.322   6.739 -0.2060 -0.6986  1.3184
  100SAPS    C210028   4.111   3.407   6.868  0.5463  0.7211 -0.2296
  100SAPS    HS10029   4.037   3.489   6.871  2.4239  2.4945  2.3099
  100SAPS   O2110030   4.217   3.452   6.962  0.2808 -0.4359  0.2133
  100SAPS   C2110031   4.184   3.560   7.045 -0.1758  0.1135  0.7723
  100SAPS   O2210032   4.073   3.598   7.061  0.2502  0.0129 -0.4704
  100SAPS   C2210033   4.313   3.603   7.115  0.2408 -0.5997  0.0385
  100SAPS   H2R10034   4.402   3.576   7.054 -1.0597 -1.2559 -1.6435
  100SAPS   H2S10035   4.304   3.713   7.123 -3.9963 -0.8140  0.4968
  100SAPS    C310036   4.035   3.279   6.918 -0.0493  0.0765 -0.0837
  100SAPS    HX10037   4.105   3.193   6.927 -0.0003  0.1488  0.2565
  100SAPS    HY10038   3.963   3.250   6.839 -0.9505  1.0896  0.3405
  100SAPS   O3110039   3.968   3.300   7.046 -0.2610 -0.4232 -0.0724
  100SAPS   C3110040   3.851   3.233   7.058 -0.2791  0.9077  0.2529
  100SAPS   O3210041   3.800   3.154   6.980 -0.2429 -0.4230  0.0756
  100SAPS   C3210042   3.787   3.276   7.183 -0.1311 -0.1106 -0.5905
  100SAPS   H2X10043   3.685   3.232   7.182  0.6949 -2.3072  1.6857
  100SAPS   H2Y10044   3.773   3.386   7.172  0.5759  0.0148 -0.2637
  100SAPS   C2310045   4.337   3.538   7.250 -0.1870 -0.8996 -0.3574
  100SAPS   H3R10046   4.445   3.539   7.274  0.5799  0.2087 -3.3364
  100SAPS   H3S10047   4.314   3.430   7.241  0.9269 -1.1305 -0.5369
  100SAPS   C2410048   4.246   3.609   7.364 -0.3347  1.3738 -0.3576
  100SAPS   H4R10049   4.140   3.593   7.335  0.1408 -2.0851 -0.5939
  100SAPS   H4S10050   4.272   3.717   7.360  0.2891  1.2126 -3.3367
  100SAPS   C2510051   4.268   3.533   7.495  0.0876  0.1926 -0.4526
  100SAPS   H5R10052   4.218   3.436   7.510 -1.3550  1.0729  0.7030
  100SAPS   C2610053   4.352   3.585   7.587  0.1234 -0.4080  0.5450
  100SAPS   H6R10054   4.367   3.534   7.683 -2.1539 -0.8894  0.7053
  100SAPS   C2710055   4.426   3.718   7.567 -0.0898  0.8061 -0.2466
  100SAPS   H7R10056   4.489   3.709   7.476  0.7453 -0.7695  0.4545
  100SAPS   H7S10057   4.509   3.706   7.640  0.4458 -0.0059 -0.9690
  100SAPS   C2810058   4.344   3.848   7.592 -0.3836 -0.2721  0.5158
  100SAPS   H8R10059   4.253   3.870   7.536  0.1418 -1.6542 -0.9547
  100SAPS   C2910060   4.356   3.935   7.701  0.3151  0.6512  0.4657
  100SAPS   H9R10061   4.279   4.013   7.714 -2.0575 -1.4085 -0.4331
  100SAPS  C21010062   4.459   3.925   7.814  0.6035  0.0012 -0.4282
  100SAPS  H10R10063   4.503   4.026   7.830 -0.7740  0.7216 -1.0318
  100SAPS  H10S10064   4.544   3.861   7.785 -1.4620 -2.7406 -0.9026
  100SAPS  C21110065   4.412   3.869   7.943  0.2205 -0.0539 -0.6884
  100SAPS  H11R10066   4.385   3.763   7.950  0.2434 -0.1440 -1.8042
  100SAPS  C21210067   4.406   3.948   8.054  1.0629  0.5358 -0.2535
  100SAPS  H12R10068   4.379   3.895   8.147  1.5250  0.8775  0.0815
  100SAPS  C21310069   4.426   4.099   8.069 -0.3525  0.1503  0.2856
  100SAPS  H13R10070   4.361   4.146   7.992 -1.6028 -1.3811  0.3587
  100SAPS  H13S10071   4.529   4.134   8.045  0.1212 -0.8351  0.8152
  100SAPS  C21410072   4.381   4.134   8.211  0.4125  0.3625  0.6008
  100SAPS  H14R10073   4.281   4.179   8.213 -0.6216 -1.5740 -1.5819
  100SAPS  C21510074   4.462   4.145   8.316 -0.1264 -0.0501 -0.8765
  100SAPS  H15R10075   4.408   4.180   8.405  0.4846 -0.7400 -0.2192
  100SAPS  C21610076   4.612   4.111   8.329  0.7779  0.2072 -0.3183
  100SAPS  H16R10077   4.638   4.054   8.237  0.7139 -0.3224 -0.0129
  100SAPS  H16S10078   4.628   4.045   8.417  1.0773  1.8701  0.9244
  100SAPS  C21710079   4.705   4.231   8.354 -0.0700 -0.4690  0.0490
  100SAPS  H17R10080   4.703   4.298   8.265  0.0994  0.2113  0.5554
  100SAPS  H17S10081   4.806   4.191   8.375  0.2182  0.4414  0.4304
  100SAPS  C21810082   4.666   4.312   8.480  0.0271 -0.1379 -0.1071
  100SAPS  H18R10083   4.682   4.235   8.559  2.3559  0.4270  0.0319
  100SAPS  H18S10084   4.563   4.353   8.480 -1.3282 -3.1316 -2.5318
  100SAPS  C21910085   4.764   4.428   8.501 -0.1065 -0.1288  0.3069
  100SAPS  H19R10086   4.720   4.488   8.583  1.2420 -0.1904  1.0858
  100SAPS  H19S10087   4.767   4.488   8.408  1.4821 -0.8830 -0.1559
  100SAPS  C22010088   4.909   4.391   8.540  0.6680 -0.1702 -0.1406
  100SAPS  H20R10089   4.916   4.350   8.643 -0.1020  0.0935  0.0233
  100SAPS  H20S10090   4.969   4.485   8.540 -0.6966  0.7602 -1.2020
  100SAPS  H20T10091   4.955   4.320   8.468  1.5373  0.6538 -0.4309
  100SAPS   C3310092   3.869   3.250   7.309  0.4380  0.8580  0.0229
  100SAPS   H3X10093   3.960   3.314   7.306  0.1141  1.3374  0.3008
  100SAPS   H3Y10094   3.902   3.144   7.322 -1.0717  0.4007  0.3987
  100SAPS   C3410095   3.784   3.274   7.432  0.0103 -0.4162  0.3590
  100SAPS   H4X10096   3.693   3.211   7.423 -0.9069  0.8254  0.5793
  100SAPS   H4Y10097   3.742   3.376   7.445  0.0457 -0.3755  0.1607
  100SAPS   C3510098   3.856   3.245   7.558  0.4287  0.1176  0.2439
  100SAPS   H5X10099   3.947   3.308   7.559 -0.0461  0.8907 -1.3992
  100SAPS   H5Y10100   3.888   3.139   7.550  1.6715  0.5236 -0.6069
  100SAPS   C3610101   3.776   3.260   7.690 -0.0825 -0.2931 -0.0672
  100SAPS   H6X10102   3.681   3.204   7.688 -0.9144  1.0355  0.3880
  100SAPS   H6Y10103   3.746   3.367   7.694  0.8613  0.0934 -2.2680
  100SAPS   C3710104   3.852   3.221   7.822 -0.3006 -0.3122  1.1356
  100SAPS   H7X10105   3.956   3.260   7.819 -0.5511  0.3238  0.5982
  100SAPS   H7Y10106   3.865   3.111   7.831  1.6256 -0.3734 -1.4081
  100SAPS   C3810107   3.794   3.267   7.949 -0.0094 -0.9992 -0.6299
  100SAPS   H8X10108   3.687   3.243   7.963 -0.4002  0.8730 -0.0643
  100SAPS   H8Y10109   3.794   3.378   7.943  0.3735 -0.9412  0.2963
  100SAPS   C3910110   3.870   3.221   8.072 -0.6207  0.1474  0.1307
  100SAPS   H9X10111   3.962   3.283   8.077 -0.0403 -0.5775 -1.2281
  100SAPS   H9Y10112   3.911   3.119   8.060  0.9717  0.8461 -0.5789
  100SAPS  C31010113   3.790   3.240   8.204 -0.3011 -0.3238  0.1879
  100SAPS  H10X10114   3.694   3.184   8.207  0.2639 -1.3699 -0.4701
  100SAPS  H10Y10115   3.766   3.348   8.197  0.1751 -0.2601 -0.5178
  100SAPS  C31110116   3.885   3.227   8.324 -0.1776  0.0799 -0.0253
  100SAPS  H11X10117   3.963   3.306   8.325 -0.3338  0.3332 -2.4066
  100SAPS  H11Y10118   3.934   3.130   8.302 -1.6002 -0.2599 -1.9810
  100SAPS  C31210119   3.832   3.229   8.469 -0.1375 -0.3393  0.4819
  100SAPS  H12X10120   3.774   3.322   8.485  2.4655  1.6371 -0.8331
  100SAPS  H12Y10121   3.913   3.227   8.545  1.9785  0.5555 -1.6269
  100SAPS  C31310122   3.742   3.108   8.492 -0.1016 -0.0347 -0.5742
  100SAPS  H13X10123   3.813   3.023   8.487  0.3575  0.3116 -0.0561
  100SAPS  H13Y10124   3.659   3.107   8.419 -1.2011 -0.1491  0.6327
  100SAPS  C31410125   3.674   3.097   8.626  0.1288 -0.7392  0.1764
  100SAPS  H14X10126   3.753   3.108   8.704 -1.5165 -0.5997  1.8716
  100SAPS  H14Y10127   3.642   2.995   8.654 -0.1291 -0.9616 -0.8807
  100SAPS  C31510128   3.559   3.198   8.650 -0.4231  0.5489 -0.5383
  100SAPS  H15X10129   3.470   3.178   8.586 -0.8795  0.6717  0.0510
  100SAPS  H15Y10130   3.589   3.302   8.624 -1.0912  1.5313  2.2640
  100SAPS  C31610131   3.498   3.207   8.789 -0.2894 -0.2647  0.3445
  100SAPS  H16X10132   3.560   3.275   8.852 -2.4843  3.2704 -1.0290
  100SAPS  H16Y10133   3.511   3.107   8.835 -0.8726 -0.2727  0.4958
  100SAPS  C31710134   3.354   3.256   8.788  0.4758  0.5514 -0.6409
  100SAPS  H17X10135   3.348   3.350   8.729  0.8298  0.6126 -0.5838
  100SAPS  H17Y10136   3.328   3.276   8.894  3.7563  1.6089  0.0795
  100SAPS  C31810137   3.253   3.159   8.720  0.2350  0.0873 -0.1335
  100SAPS  H18X10138   3.247   3.167   8.609 -1.8955  1.1913  0.0142
  100SAPS  H18Y10139   3.152   3.184   8.758  0.3946  1.4701 -0.5491
  100SAPS  H18Z10140   3.272   3.055   8.754  0.8339  0.6954  1.5059
  101OSM      N10141   4.563   5.217  11.061 -0.2489  0.4788 -0.3199
  101OSM    C1510142   4.651   5.335  11.051 -1.0692 -0.2925  0.0201
  101OSM   H15A10143   4.600   5.412  10.994 -0.5959  0.0546  0.0655
  101OSM   H15B10144   4.740   5.300  11.002  1.1217  2.2429  1.8914
  101OSM   H15C10145   4.679   5.383  11.143 -4.7714  2.4083 -0.0001
  101OSM    C1410146   4.636   5.106  11.125 -0.1615  0.4811  0.0648
  101OSM   H14A10147   4.573   5.018  11.119  0.6864 -0.0411 -2.2287
  101OSM   H14B10148   4.653   5.125  11.230  0.1676  1.6564 -0.1805
  101OSM   H14C10149   4.724   5.086  11.066  0.2175 -0.1414  0.8421
  101OSM    C1310150   4.440   5.238  11.139  0.3670 -0.0193  0.0521
  101OSM   H13A10151   4.385   5.317  11.089  1.6439 -0.4480 -2.1657
  101OSM   H13B10152   4.454   5.261  11.243  0.4965 -2.4679  0.6561
  101OSM   H13C10153   4.364   5.160  11.135  0.9927 -0.6043 -0.9966
  101OSM    C1210154   4.527   5.186  10.914  0.9335  0.4210  0.9757
  101OSM   H12A10155   4.621   5.175  10.861  2.0631  1.7553  2.6006
  101OSM   H12B10156   4.464   5.267  10.880  0.4369 -0.2262  0.3208
  101OSM    C1110157   4.434   5.059  10.894  0.5673 -0.8574  0.8005
  101OSM   H11A10158   4.434   5.043  10.784  1.8169 -0.6796  0.7689
  101OSM   H11B10159   4.330   5.087  10.922 -0.7315 -2.4536 -1.9439
  101OSM      P10160   4.571   4.830  10.892  0.2698  0.1196 -0.0310
  101OSM    O1310161   4.648   4.769  10.997 -0.2238 -0.5638 -0.3706
  101OSM    O1410162   4.489   4.738  10.807  0.4107  0.2524 -0.4818
  101OSM    O1110163   4.661   4.911  10.791  0.3617  0.1801 -0.6542
  101OSM    O1210164   4.483   4.941  10.953 -1.3746  0.6420 -0.5126
  101OSM    C1S10165   4.742   4.842  10.700 -0.7036 -0.3937  0.4345
  101OSM    H1S10166   4.688   4.753  10.659 -0.5490 -0.6258  0.7309
  101OSM    H1T10167   4.836   4.813  10.751  0.5050  0.2176 -1.3700
  101OSM     NF10168   4.846   4.860  10.478 -0.2444 -0.2628  0.0755
  101OSM    HNF10169   4.942   4.848  10.457  0.5529  0.9366  2.6044
  101OSM    C2S10170   4.790   4.937  10.585 -0.3913  0.0763 -0.6559
  101OSM    H2S10171   4.702   4.984  10.536  1.2483  3.5281 -0.5915
  101OSM    C3S10172   4.882   5.047  10.648  0.6625 -0.3568  0.3027
  101OSM    H3S10173   4.977   4.989  10.658 -1.0594 -3.6478 -0.8704
  101OSM     O310174   4.856   5.098  10.778 -0.0386 -0.1796  0.0390
  101OSM    HO310175   4.794   5.033  10.813  0.3374  1.1191  3.5902
  101OSM    C4S10176   4.899   5.148  10.543 -0.5106  0.1496 -0.0379
  101OSM    H4S10177   4.969   5.115  10.466 -1.4420 -1.0111 -0.4193
  101OSM    C5S10178   4.834   5.264  10.531 -0.3463 -0.4448  0.6458
  101OSM    H5S10179   4.759   5.296  10.604 -0.0769  1.0891  0.2823
  101OSM    C6S10180   4.866   5.373  10.422 -0.3135 -0.0159  0.2773
  101OSM    H6S10181   4.902   5.467  10.468 -1.6705  0.6997 -0.0666
  101OSM    H6T10182   4.772   5.410  10.376 -0.2385 -1.6932 -1.3549
  101OSM    C7S10183   4.960   5.339  10.300  0.0726  0.9993 -1.0114
  101OSM    H7S10184   5.063   5.331  10.340 -0.5462  0.3348  0.5498
  101OSM    H7T10185   4.961   5.432  10.239 -3.0808  0.7849 -1.5547
  101OSM    C8S10186   4.912   5.227  10.209  0.1549 -0.2944 -0.1198
  101OSM    H8S10187   4.801   5.222  10.218  0.2408 -0.8820  0.6724
  101OSM    H8T10188   4.951   5.129  10.243  0.6011 -0.7482 -1.8079
  101OSM    C9S10189   4.951   5.261  10.062 -0.2558 -0.3861 -0.4580
  101OSM    H9S10190   5.059   5.286  10.055 -0.1628 -0.5671  0.2421
  101OSM    H9T10191   4.895   5.350  10.029 -1.9700 -1.4264 -0.4658
  101OSM   C10S10192   4.903   5.153   9.968  0.3130  0.0577  0.1837
  101OSM   H10S10193   4.793   5.145   9.985  0.0555  4.1726  1.7009
  101OSM   H10T10194   4.940   5.053   9.997 -0.6948 -0.4541 -0.2240
  101OSM   C11S10195   4.917   5.170   9.820  0.6825  0.3415  0.1541
  101OSM   H11S10196   5.020   5.194   9.785  1.1774 -1.1129  0.5365
  101OSM   H11T10197   4.863   5.261   9.786 -0.4056 -0.2405  0.2528
  101OSM   C12S10198   4.865   5.054   9.724 -0.0196 -0.5261 -0.0338
  101OSM   H12S10199   4.760   5.036   9.756 -0.5098  1.3992 -0.4280
  101OSM   H12T10200   4.917   4.958   9.744  0.7715  0.0287  0.6531
  101OSM   C13S10201   4.864   5.103   9.585 -0.0333  0.3882  0.1093
  101OSM   H13S10202   4.963   5.152   9.574 -0.3883  0.6287 -2.5192
  101OSM   H13T10203   4.783   5.178   9.583  0.7677  1.2631 -1.8190
  101OSM   C14S10204   4.836   5.001   9.476  0.1634  0.2518  0.8579
  101OSM   H14S10205   4.773   4.916   9.511  0.0816 -0.9064 -1.7949
  101OSM   H14T10206   4.928   4.958   9.431  0.3985  0.4516  1.1426
  101OSM   C15S10207   4.765   5.074   9.356  0.2661 -0.2708 -0.1994
  101OSM   H15S10208   4.826   5.156   9.312  2.0711 -0.7815  1.2178
  101OSM   H15T10209   4.673   5.116   9.399 -0.0763 -1.5718  0.3939
  101OSM   C16S10210   4.734   4.977   9.239 -0.7707 -0.0237  0.6007
  101OSM   H16S10211   4.658   4.910   9.284 -0.1703 -1.5591 -0.5744
  101OSM   H16T10212   4.821   4.912   9.212 -1.0543 -0.7273  1.3129
  101OSM   C17S10213   4.676   5.027   9.106 -0.1835  0.0211 -0.1655
  101OSM   H17S10214   4.638   4.937   9.053  1.9929  0.1675 -2.1066
  101OSM   H17T10215   4.755   5.062   9.037 -0.6799  0.7307 -0.3867
  101OSM   C18S10216   4.572   5.134   9.107 -0.3210 -0.1165  0.5092
  101OSM   H18S10217   4.592   5.208   9.187  0.6606 -2.2314  2.3026
  101OSM   H18T10218   4.469   5.097   9.127 -0.0651 -0.6531  0.8654
  101OSM   H18U10219   4.573   5.187   9.009 -0.0094  0.5784  0.8824
  101OSM    C1F10220   4.770   4.792  10.396  0.1275  0.4443  0.0582
  101OSM     OF10221   4.645   4.791  10.411 -0.1872  0.6423 -0.1638
  101OSM    C2F10222   4.838   4.716  10.282  0.6648 -0.5792  0.7378
  101OSM    H2F10223   4.914   4.646  10.325 -0.0422 -0.7083  1.8150
  101OSM    H2G10224   4.901   4.782  10.219 -2.5733  0.7582 -1.2957
  101OSM    C3F10225   4.740   4.648  10.185 -0.2882  0.0526 -0.3188
  101OSM    H3F10226   4.661   4.591  10.240  0.0955 -0.0985  0.0806
  101OSM    H3G10227   4.803   4.565  10.147  1.9262  1.0985  0.8997
  101OSM    C4F10228   4.664   4.743  10.082 -0.0090 -0.5084 -1.0385
  101OSM    H4F10229   4.632   4.836  10.135  1.1682  0.5041 -2.0450
  101OSM    H4G10230   4.576   4.696  10.033  0.6710 -0.3640 -2.4330
  101OSM    C5F10231   4.754   4.808   9.969 -0.1269  0.1449 -0.5085
  101OSM    H5F10232   4.830   4.875  10.016 -0.7556  1.3724 -1.1992
  101OSM    H5G10233   4.691   4.852   9.890 -2.4651  0.4678  1.4206
  101OSM    C6F10234   4.836   4.699   9.891  0.2344  0.1987  0.2725
  101OSM    H6F10235   4.902   4.654   9.968 -1.6608 -0.2222  1.7298
  101OSM    H6G10236   4.900   4.759   9.823  0.7264 -1.7744 -1.0811
  101OSM    C7F10237   4.741   4.598   9.825  0.3835  0.3157 -0.5395
  101OSM    H7F10238   4.681   4.552   9.906  2.2332  0.0782  0.7521
  101OSM    H7G10239   4.797   4.516   9.775 -0.7443 -0.6294 -0.3221
  101OSM    C8F10240   4.649   4.665   9.718  0.0302  0.8898  0.1573
  101OSM    H8F10241   4.716   4.719   9.649  0.3030 -2.2818 -2.2788
  101OSM    H8G10242   4.580   4.742   9.759 -0.3882 -0.8738  3.0633
  101OSM    C9F10243   4.574   4.560   9.654  0.1045  0.8209 -0.1790
  101OSM    H9F10244   4.493   4.510   9.710  0.7783 -2.8289 -2.1140
  101OSM   C10F10245   4.597   4.502   9.534 -0.5435  0.4015  0.0717
  101OSM   H10F10246   4.526   4.429   9.493 -0.3979 -1.0405  2.2521
  101OSM   C11F10247   4.709   4.556   9.437  0.0919  0.5965  0.1726
  101OSM   H11F10248   4.811   4.543   9.477 -0.0596  0.0899  0.4004
  101OSM   H11G10249   4.696   4.666   9.425  2.5163  0.9467  0.2986
  101OSM   C12F10250   4.694   4.483   9.305 -0.0073 -0.7422  0.1753
  101OSM   H12F10251   4.688   4.372   9.316  0.3120 -1.1321 -2.6824
  101OSM   H12G10252   4.791   4.494   9.252 -0.4338  0.3404 -0.4070
  101OSM   C13F10253   4.579   4.528   9.210 -0.3223 -0.4494  0.2817
  101OSM   H13F10254   4.603   4.625   9.161 -0.5818 -0.8971 -0.7588
  101OSM   H13G10255   4.497   4.567   9.274  0.6532 -1.1905  2.0534
  101OSM   C14F10256   4.539   4.419   9.115 -0.2757 -0.4962 -0.0068
  101OSM   H14F10257   4.497   4.337   9.176 -3.8774  0.5706 -0.8076
  101OSM   H14G10258   4.626   4.382   9.056 -1.3500 -5.1767  0.9394
  101OSM   C15F10259   4.421   4.467   9.024 -0.8963  0.1034  0.7117
  101OSM   H15F10260   4.461   4.556   8.972  1.1415  0.8906  3.4012
  101OSM   H15G10261   4.334   4.510   9.079 -0.1874  0.4655  1.5707
  101OSM   C16F10262   4.366   4.356   8.931 -0.1372  0.0985  0.8042
  101OSM   H16F10263   4.332   4.275   8.999  0.7863 -1.4890 -0.5536
  101OSM   H16G10264   4.454   4.311   8.881 -2.1364 -4.1236  0.6195
  101OSM   C17F10265   4.270   4.395   8.825 -0.4026  0.4733  0.6377
  101OSM   H17F10266   4.182   4.447   8.868 -0.0790  1.2739  0.3532
  101OSM   H17G10267   4.234   4.301   8.777  1.0781  0.0456  0.3215
  101OSM   C18F10268   4.325   4.479   8.709 -0.1903 -0.1620 -0.1047
  101OSM   H18F10269   4.348   4.579   8.750  1.5127 -0.2324 -0.7915
  101OSM   H18G10270   4.246   4.494   8.632 -0.1746 -1.2248 -0.3503
  101OSM   H18H10271   4.426   4.447   8.676  1.2635  2.9250  1.0013
  102OSM      N10272   5.958   2.843  10.779  0.8236 -0.3429 -0.2803
  102OSM    C1510273   6.019   2.753  10.879  0.4915 -0.9206  0.4362
  102OSM   H15A10274   5.968   2.657  10.884 -0.9085 -0.2426 -0.3584
  102OSM   H15B10275   6.018   2.797  10.977  3.0072 -0.2611  0.2066
  102OSM   H15C10276   6.120   2.737  10.844  0.3712  0.2781 -0.5104
  102OSM    C1410277   6.030   2.972  10.792  0.0035  0.2549 -0.1952
  102OSM   H14A10278   6.026   3.018  10.889  2.1552 -1.7096  0.8989
  102OSM   H14B10279   5.977   3.043  10.730 -2.3793 -0.1992  1.2116
  102OSM   H14C10280   6.137   2.965  10.777  0.2616  0.4119  1.4501
  102OSM    C1310281   5.991   2.782  10.647  0.6031 -0.1502  0.1493
  102OSM   H13A10282   6.098   2.768  10.636  0.3271 -1.6433 -0.7299
  102OSM   H13B10283   5.955   2.844  10.566 -0.4982 -2.0839 -0.8973
  102OSM   H13C10284   5.956   2.681  10.651  0.4357 -0.0959  0.0209
  102OSM    C1210285   5.806   2.858  10.819 -0.3806 -0.2776  0.9154
  102OSM   H12A10286   5.808   2.917  10.909 -1.3928 -2.6769  2.6215
  102OSM   H12B10287   5.765   2.761  10.843  0.6378 -0.5499  1.6278
  102OSM    C1110288   5.718   2.940  10.712 -0.2006 -0.5038 -0.5710
  102OSM   H11A10289   5.613   2.940  10.748 -0.0659 -0.0291 -0.1624
  102OSM   H11B10290   5.711   2.883  10.617 -0.1964  0.7350 -1.3477
  102OSM      P10291   5.711   3.179  10.798  0.1415 -0.7186  0.1972
  102OSM    O1310292   5.691   3.104  10.923 -0.1116 -0.6592 -0.1112
  102OSM    O1410293   5.803   3.299  10.798  0.1620  0.4768  0.1859
  102OSM    O1110294   5.575   3.209  10.730  0.3105 -0.2593  0.0727
  102OSM    O1210295   5.769   3.073  10.688 -0.7168 -0.0264 -0.7646
  102OSM    C1S10296   5.539   3.341  10.689  0.4140 -0.1062  0.2986
  102OSM    H1S10297   5.595   3.421  10.741  0.6653 -0.4941  0.6280
  102OSM    H1T10298   5.430   3.356  10.704  0.2586 -0.7370 -0.1795
  102OSM     NF10299   5.515   3.489  10.493 -0.5816 -0.1657  0.1063
  102OSM    HNF10300   5.421   3.502  10.461  0.0416  2.0185 -1.0874
  102OSM    C2S10301   5.556   3.361  10.536  0.1256  0.3112 -0.3915
  102OSM    H2S10302   5.663   3.351  10.508 -0.4423  0.8664 -2.9947
  102OSM    C3S10303   5.485   3.247  10.462 -0.3215 -0.0657 -0.9345
  102OSM    H3S10304   5.380   3.251  10.500 -0.3551 -1.9013 -0.7353
  102OSM     O310305   5.523   3.105  10.488 -0.4261 -0.1991  0.3267
  102OSM    HO310306   5.601   3.117  10.543  1.1194  0.5612 -1.9227
  102OSM    C4S10307   5.496   3.260  10.318  0.4028 -0.3772 -0.1519
  102OSM    H4S10308   5.591   3.246  10.262 -0.3252 -0.5185 -1.3971
  102OSM    C5S10309   5.384   3.276  10.240  0.2393  0.0670 -0.3199
  102OSM    H5S10310   5.283   3.281  10.281  0.0767 -0.6066 -0.6267
  102OSM    C6S10311   5.386   3.297  10.096  0.3236 -0.5300 -0.3845
  102OSM    H6S10312   5.362   3.399  10.061  0.3215 -0.0444  0.9878
  102OSM    H6T10313   5.304   3.229  10.065 -1.0430  0.9879 -0.2389
  102OSM    C7S10314   5.509   3.250  10.018 -0.1492  0.5106  0.8573
  102OSM    H7S10315   5.513   3.140  10.026  2.6521  0.1669 -2.8001
  102OSM    H7T10316   5.607   3.294  10.048  1.1701 -0.5886 -1.5488
  102OSM    C8S10317   5.510   3.291   9.866 -0.4795  0.3089 -0.6938
  102OSM    H8S10318   5.503   3.402   9.865  0.7253  0.3909 -1.9039
  102OSM    H8T10319   5.413   3.255   9.826 -1.0272  2.2750 -1.2393
  102OSM    C9S10320   5.635   3.260   9.785  0.8136 -0.2534 -1.0540
  102OSM    H9S10321   5.653   3.152   9.806 -0.3041 -0.1681  0.5794
  102OSM    H9T10322   5.720   3.313   9.833 -0.8330 -1.0049  3.1276
  102OSM   C10S10323   5.629   3.297   9.633 -0.2501 -0.5665  0.2383
  102OSM   H10S10324   5.607   3.405   9.619 -3.4189 -1.2183 -0.5305
  102OSM   H10T10325   5.536   3.265   9.581 -0.0338 -0.4951 -0.1889
  102OSM   C11S10326   5.756   3.255   9.558 -0.2293 -0.3845 -0.1256
  102OSM   H11S10327   5.766   3.147   9.579 -1.4540 -0.4160  0.4082
  102OSM   H11T10328   5.836   3.308   9.614  0.2546  0.9218 -1.9564
  102OSM   C12S10329   5.769   3.309   9.422  0.5144  0.1948  0.3384
  102OSM   H12S10330   5.774   3.420   9.418 -1.0729  0.3213  1.3675
  102OSM   H12T10331   5.680   3.278   9.363  1.0339  0.9061 -0.8425
  102OSM   C13S10332   5.903   3.266   9.360 -0.4615 -0.0210 -0.8612
  102OSM   H13S10333   5.912   3.156   9.358 -1.2037 -0.1564  1.0870
  102OSM   H13T10334   5.983   3.312   9.421  0.7011  0.8864 -2.9597
  102OSM   C14S10335   5.911   3.319   9.215  0.5752  0.6125 -0.3699
  102OSM   H14S10336   5.959   3.419   9.216  0.6438  0.5808  0.2155
  102OSM   H14T10337   5.813   3.313   9.163  0.1401  2.1529  0.2273
  102OSM   C15S10338   6.008   3.235   9.140  0.2156 -0.3195  0.3835
  102OSM   H15S10339   6.011   3.125   9.155 -1.7223 -0.6529 -1.2236
  102OSM   H15T10340   6.110   3.263   9.176 -0.3393  1.2036  0.8271
  102OSM   C16S10341   6.014   3.277   8.987 -0.4283  0.1602 -0.7186
  102OSM   H16S10342   5.985   3.383   8.972  0.9409  0.7822  0.7223
  102OSM   H16T10343   5.940   3.208   8.941  1.7161 -1.7400 -1.5190
  102OSM   C17S10344   6.152   3.251   8.922 -0.6236 -0.2878 -0.1296
  102OSM   H17S10345   6.196   3.164   8.976 -1.8756 -0.1987  1.0897
  102OSM   H17T10346   6.214   3.343   8.932 -1.2207  0.6539 -3.8297
  102OSM   C18S10347   6.137   3.224   8.777  0.3962  0.9492  0.0692
  102OSM   H18S10348   6.234   3.244   8.727 -0.1539 -0.1325 -1.5040
  102OSM   H18T10349   6.065   3.295   8.731 -1.0239 -0.2467  0.3703
  102OSM   H18U10350   6.103   3.122   8.752  1.6887  0.2452  1.0699
  102OSM    C1F10351   5.591   3.590  10.517  0.1957 -0.1924 -0.3060
  102OSM     OF10352   5.703   3.572  10.564 -0.3265  0.3452  0.1218
  102OSM    C2F10353   5.547   3.724  10.483 -0.1415  0.1580  0.4575
  102OSM    H2F10354   5.437   3.718  10.496  0.1694 -3.6410  3.1712
  102OSM    H2G10355   5.574   3.751  10.379  1.1003 -0.2366  0.6577
  102OSM    C3F10356   5.623   3.833  10.572  0.1355 -0.0745  0.9031
  102OSM    H3F10357   5.734   3.836  10.559  0.1885 -2.5435  0.3899
  102OSM    H3G10358   5.596   3.803  10.675 -0.3301 -2.1063  0.2314
  102OSM    C4F10359   5.562   3.977  10.543  0.1808  0.4780  0.7764
  102OSM    H4F10360   5.598   4.039  10.627 -0.4485  0.5719  0.9824
  102OSM    H4G10361   5.451   3.977  10.552  0.0695  0.9242 -0.3946
  102OSM    C5F10362   5.599   4.044  10.405  0.1752  0.3795 -0.4283
  102OSM    H5F10363   5.572   4.151  10.396  1.8360  0.9200  0.6936
  102OSM    H5G10364   5.533   3.986  10.337  0.5317  0.6221 -0.9855
  102OSM    C6F10365   5.736   4.015  10.353  0.2911 -0.6420 -0.8379
  102OSM    H6F10366   5.749   3.913  10.311 -3.1877 -1.3158 -0.5719
  102OSM    H6G10367   5.811   4.028  10.434 -1.1624  0.8664  0.3274
  102OSM    C7F10368   5.777   4.097  10.240 -0.6388 -0.2847  0.0807
  102OSM    H7F10369   5.882   4.077  10.208  0.3573  1.0054  2.3163
  102OSM    H7G10370   5.789   4.201  10.275 -2.1873 -0.2084  0.4558
  102OSM    C8F10371   5.690   4.079  10.115  0.2485  0.9808 -0.2771
  102OSM    H8F10372   5.584   4.090  10.148  0.6569 -0.6501  1.7967
  102OSM    H8G10373   5.710   3.980  10.070 -0.7145  1.5045 -1.9394
  102OSM    C9F10374   5.714   4.182  10.012 -0.7171  0.4431  0.3916
  102OSM    H9F10375   5.744   4.283  10.046  2.1750 -0.7740  1.7725
  102OSM   C10F10376   5.718   4.170   9.873  0.4450 -0.9851  0.2778
  102OSM   H10F10377   5.735   4.265   9.820  0.4461 -0.0606  1.8535
  102OSM   C11F10378   5.693   4.044   9.792 -0.1444 -0.3726 -0.4546
  102OSM   H11F10379   5.597   4.056   9.738  0.6359  0.4422 -1.7287
  102OSM   H11G10380   5.686   3.965   9.869  2.4735  1.6378  2.0574
  102OSM   C12F10381   5.806   3.994   9.702  0.5555  0.4353 -0.1936
  102OSM   H12F10382   5.794   3.888   9.673 -0.7567  0.6378 -0.4403
  102OSM   H12G10383   5.897   4.008   9.764  2.5961  1.2956 -3.1446
  102OSM   C13F10384   5.825   4.070   9.566  0.2633 -0.7164  0.7064
  102OSM   H13F10385   5.854   4.171   9.601 -1.2215 -0.3523  0.9171
  102OSM   H13G10386   5.738   4.064   9.497  2.1791 -1.7855 -1.7933
  102OSM   C14F10387   5.926   3.998   9.472 -0.3561  0.0894 -0.5413
  102OSM   H14F10388   5.898   3.896   9.439  1.7828  0.1705 -2.9540
  102OSM   H14G10389   6.023   3.996   9.526 -0.3397 -0.4029 -0.5899
  102OSM   C15F10390   5.952   4.089   9.346 -0.5838  0.1210 -0.7009
  102OSM   H15F10391   5.992   4.182   9.391 -3.5549  1.2442 -0.1609
  102OSM   H15G10392   5.857   4.123   9.301  0.7716  2.7362 -1.8400
  102OSM   C16F10393   6.058   4.039   9.249 -0.3262  0.5784 -0.0880
  102OSM   H16F10394   6.026   3.935   9.225  3.8685 -1.0263  0.5264
  102OSM   H16G10395   6.156   4.022   9.298  0.0233 -0.3566 -1.0774
  102OSM   C17F10396   6.069   4.114   9.118 -0.4378 -0.1544  0.1377
  102OSM   H17F10397   6.093   4.220   9.141 -1.6130 -0.1709  1.5541
  102OSM   H17G10398   5.978   4.105   9.056 -0.9569  0.3119  0.8216
  102OSM   C18F10399   6.189   4.063   9.040  0.2170  0.9513  0.5738
  102OSM   H18F10400   6.207   4.115   8.944 -0.8474 -0.4495 -0.4331
  102OSM   H18G10401   6.165   3.956   9.019  0.9599  1.0486 -0.8178
  102OSM   H18H10402   6.282   4.058   9.100 -1.9210 -2.8443  4.1638
  103OSM      N10403   0.957   2.434  11.097  0.7929  0.3709  0.1285
  103OSM    C1510404   0.940   2.315  11.182  0.0488  0.3781 -0.1468
  103OSM   H15A10405   0.935   2.233  11.111  0.3486  2.5394 -2.7963
  103OSM   H15B10406   0.841   2.316  11.227  0.8635 -0.3661  1.7840
  103OSM   H15C10407   1.023   2.299  11.249 -1.4751 -2.4247  1.2813
  103OSM    C1410408   0.985   2.560  11.179 -0.3394  0.1958  0.7218
  103OSM   H14A10409   0.913   2.562  11.260  1.9756  0.7116  2.9053
  103OSM   H14B10410   0.964   2.646  11.118  2.1723 -0.2268 -0.8801
  103OSM   H14C10411   1.081   2.556  11.228  1.2253 -2.7964 -2.1902
  103OSM    C1310412   1.084   2.407  11.027  0.4835 -0.0934  0.6929
  103OSM   H13A10413   1.078   2.314  10.972  1.0129  0.5208 -0.4496
  103OSM   H13B10414   1.175   2.414  11.083  2.4547  2.2004 -2.4359
  103OSM   H13C10415   1.096   2.487  10.955  1.4559 -0.4777  0.4241
  103OSM    C1210416   0.841   2.447  11.000  1.6259 -0.5606  0.0395
  103OSM   H12A10417   0.842   2.545  10.955  0.2768 -0.5278  0.0274
  103OSM   H12B10418   0.749   2.451  11.057 -0.5056 -1.5375 -3.0262
  103OSM    C1110419   0.808   2.336  10.890 -0.1803  0.0662 -0.0126
  103OSM   H11A10420   0.893   2.317  10.821 -0.0934  0.2187  0.0505
  103OSM   H11B10421   0.722   2.373  10.831 -0.2316 -0.1162 -0.0513
  103OSM      P10422   0.644   2.144  10.968 -0.1534  0.2618 -0.0550
  103OSM    O1310423   0.666   2.003  11.012 -0.2260 -0.0905  0.4103
  103OSM    O1410424   0.557   2.228  11.051 -0.1441 -0.3723  0.4768
  103OSM    O1110425   0.594   2.137  10.821  0.4011  0.5588  0.2055
  103OSM    O1210426   0.787   2.214  10.954 -0.0608  0.6880 -0.0594
  103OSM    C1S10427   0.456   2.168  10.792 -0.2698  0.4778 -0.9857
  103OSM    H1S10428   0.435   2.276  10.809  1.1538  0.9643 -2.0857
  103OSM    H1T10429   0.389   2.107  10.857  3.4955 -1.7626  1.1736
  103OSM     NF10430   0.306   2.188  10.599 -0.3735 -0.7783  0.1726
  103OSM    HNF10431   0.222   2.134  10.600  0.0211 -1.4873 -1.4828
  103OSM    C2S10432   0.429   2.124  10.642  0.0547 -0.3838  0.5348
  103OSM    H2S10433   0.512   2.166  10.581 -0.6372 -1.1045 -0.9325
  103OSM    C3S10434   0.428   1.968  10.618  0.5719 -0.6732  0.5243
  103OSM    H3S10435   0.338   1.924  10.666 -0.5943 -0.6868 -1.5520
  103OSM     O310436   0.544   1.897  10.664 -1.0083  0.3627 -0.8924
  103OSM    HO310437   0.588   1.967  10.712  1.5480 -1.7631  0.0870
  103OSM    C4S10438   0.400   1.932  10.477 -0.1749 -0.4781  0.0335
  103OSM    H4S10439   0.292   1.931  10.457 -0.2797 -1.4805  0.5733
  103OSM    C5S10440   0.490   1.902  10.382 -0.1904 -0.7036 -0.3133
  103OSM    H5S10441   0.598   1.901  10.402  0.0017 -1.1782 -1.2996
  103OSM    C6S10442   0.450   1.862  10.244  0.0548 -0.1486  0.1817
  103OSM    H6S10443   0.340   1.847  10.234  0.0438 -0.0868  0.2076
  103OSM    H6T10444   0.506   1.771  10.214 -1.8485 -0.8256 -1.5401
  103OSM    C7S10445   0.500   1.977  10.149 -0.0895  0.1178  0.3331
  103OSM    H7S10446   0.610   1.981  10.159 -0.3009  1.6710  2.8495
  103OSM    H7T10447   0.470   2.080  10.177  1.1263  0.8013 -0.7416
  103OSM    C8S10448   0.454   1.941  10.001  0.6539  0.6210  0.0434
  103OSM    H8S10449   0.344   1.951   9.995  0.5675 -0.7751 -1.2941
  103OSM    H8T10450   0.476   1.833   9.982 -0.3238  0.3915  0.1702
  103OSM    C9S10451   0.521   2.030   9.901  0.1519  0.6537  0.1897
  103OSM    H9S10452   0.628   2.036   9.929  0.1100 -0.1128  0.5652
  103OSM    H9T10453   0.494   2.136   9.920  1.1189  0.8945  0.2406
  103OSM   C10S10454   0.498   1.998   9.750 -0.5442 -0.6309  0.5187
  103OSM   H10S10455   0.392   1.967   9.742 -0.6211 -0.0540 -1.2810
  103OSM   H10T10456   0.562   1.911   9.723  0.2756 -0.0542  0.5276
  103OSM   C11S10457   0.527   2.114   9.653 -0.0256  0.1402 -0.3114
  103OSM   H11S10458   0.630   2.154   9.662 -0.5894  1.7183 -0.6556
  103OSM   H11T10459   0.458   2.194   9.686  1.8141  1.5680  0.2062
  103OSM   C12S10460   0.500   2.074   9.505  0.3279  0.6016  0.3790
  103OSM   H12S10461   0.402   2.028   9.479  0.3770  0.4003  0.5475
  103OSM   H12T10462   0.570   1.992   9.478  0.2853  0.3953  0.8955
  103OSM   C13S10463   0.533   2.199   9.416 -0.0692  0.1115 -0.4968
  103OSM   H13S10464   0.636   2.240   9.432 -1.5113  3.9225  0.2237
  103OSM   H13T10465   0.463   2.283   9.434 -1.0570 -0.2105 -2.5725
  103OSM   C14S10466   0.519   2.165   9.267 -0.0609  0.2351 -0.8035
  103OSM   H14S10467   0.416   2.129   9.246  0.0584  0.2973 -1.5319
  103OSM   H14T10468   0.582   2.076   9.246  1.3513  1.1216 -0.4617
  103OSM   C15S10469   0.573   2.273   9.177  0.3183  0.3288 -0.1014
  103OSM   H15S10470   0.683   2.260   9.168  0.4150  1.4360 -0.6307
  103OSM   H15T10471   0.558   2.370   9.229 -1.2238 -0.5458  1.1753
  103OSM   C16S10472   0.507   2.294   9.039 -0.5189  0.4977 -0.2770
  103OSM   H16S10473   0.397   2.299   9.053 -0.5128 -0.8447  0.3827
  103OSM   H16T10474   0.537   2.206   8.978 -0.6918  1.2897 -1.5483
  103OSM   C17S10475   0.557   2.415   8.957 -0.6236 -1.3838  0.5736
  103OSM   H17S10476   0.661   2.398   8.921 -0.7094 -0.9154  0.0834
  103OSM   H17T10477   0.560   2.502   9.026 -1.7679 -0.7668 -0.1249
  103OSM   C18S10478   0.449   2.433   8.846  0.1004 -0.5067  0.4274
  103OSM   H18S10479   0.462   2.525   8.784 -0.7958 -1.5583 -1.3834
  103OSM   H18T10480   0.349   2.446   8.892 -0.1095  0.5854 -0.2965
  103OSM   H18U10481   0.457   2.348   8.775  0.0529 -0.0091 -0.1901
  103OSM    C1F10482   0.308   2.321  10.583  0.1453 -0.3518  0.4357
  103OSM     OF10483   0.408   2.391  10.589 -0.4197  0.2764  0.0812
  103OSM    C2F10484   0.171   2.381  10.557  0.0201  0.2984 -1.0503
  103OSM    H2F10485   0.161   2.459  10.636 -0.3320 -1.7604  1.0769
  103OSM    H2G10486   0.091   2.305  10.575  0.6135 -0.1712 -0.3101
  103OSM    C3F10487   0.161   2.455  10.429  0.2407  0.4461  0.2099
  103OSM    H3F10488   0.228   2.544  10.427  1.0980 -0.1896  0.1319
  103OSM    H3G10489   0.058   2.489  10.407 -0.1905 -1.1526 -0.3721
  103OSM    C4F10490   0.209   2.364  10.310  0.2480 -0.2191 -0.4150
  103OSM    H4F10491   0.155   2.269  10.329  0.7378 -0.0716  2.0584
  103OSM    H4G10492   0.319   2.347  10.315 -0.1049 -3.6150 -1.8467
  103OSM    C5F10493   0.167   2.413  10.170  0.1758 -0.2433  0.1928
  103OSM    H5F10494   0.218   2.508  10.144 -3.6539  2.2056  0.7461
  103OSM    H5G10495   0.058   2.433  10.179  0.6104  2.0152  1.0602
  103OSM    C6F10496   0.189   2.322  10.060  0.5150  0.6940 -0.1098
  103OSM    H6F10497   0.098   2.259  10.058 -0.6357  2.2438  0.9637
  103OSM    H6G10498   0.281   2.261  10.075  0.0200 -0.3828 -1.2868
  103OSM    C7F10499   0.180   2.397   9.920  0.8346 -0.3940  0.0180
  103OSM    H7F10500   0.241   2.489   9.930  0.2282  0.1340 -0.9001
  103OSM    H7G10501   0.074   2.432   9.919 -0.2570 -3.3875 -0.4504
  103OSM    C8F10502   0.208   2.316   9.794 -0.0082 -0.0790  0.0719
  103OSM    H8F10503   0.304   2.265   9.821  1.1013  0.6243 -2.2757
  103OSM    H8G10504   0.227   2.387   9.711  0.4110  1.7744  1.6820
  103OSM    C9F10505   0.113   2.201   9.751 -0.1580  0.1952  0.0016
  103OSM    H9F10506   0.101   2.119   9.824 -0.3788 -0.9876 -1.3128
  103OSM   C10F10507   0.033   2.206   9.641 -0.4712  0.7183  0.6183
  103OSM   H10F10508  -0.044   2.129   9.622 -0.9705  1.3745 -0.0869
  103OSM   C11F10509   0.023   2.322   9.545  0.1383 -0.0319  0.2738
  103OSM   H11F10510   0.096   2.402   9.568  0.7805 -0.8079  0.9946
  103OSM   H11G10511  -0.082   2.360   9.549 -0.2832 -0.9039 -1.2765
  103OSM   C12F10512   0.052   2.271   9.406 -0.0915  0.6082  0.1758
  103OSM   H12F10513  -0.011   2.182   9.385 -0.5535  1.0606 -0.3894
  103OSM   H12G10514   0.160   2.252   9.392 -0.1426  0.4464  0.0022
  103OSM   C13F10515   0.013   2.382   9.301  0.3328 -0.4146 -0.4027
  103OSM   H13F10516  -0.093   2.366   9.273 -0.1384 -2.3908  2.1052
  103OSM   H13G10517   0.035   2.482   9.344 -1.2975 -0.2202  0.0431
  103OSM   C14F10518   0.094   2.398   9.176  0.2256 -0.3479  0.3693
  103OSM   H14F10519   0.111   2.294   9.140 -0.8202 -1.0741  1.8444
  103OSM   H14G10520   0.184   2.461   9.193 -0.6075  0.1510  3.5585
  103OSM   C15F10521   0.001   2.477   9.076 -0.3950  0.4151  0.0712
  103OSM   H15F10522   0.024   2.582   9.105  2.1473 -0.1968  0.4082
  103OSM   H15G10523  -0.107   2.468   9.103  0.1008 -0.4341  1.8898
  103OSM   C16F10524   0.046   2.443   8.934  0.3090 -0.1513 -0.0382
  103OSM   H16F10525   0.007   2.343   8.907 -1.8049  0.5792  0.1249
  103OSM   H16G10526   0.156   2.428   8.929  0.4424  0.0934  1.5410
  103OSM   C17F10527   0.001   2.551   8.834  0.1188  0.0448 -0.3174
  103OSM   H17F10528   0.017   2.647   8.887 -0.8809 -0.5591  1.1059
  103OSM   H17G10529  -0.106   2.527   8.816  0.9230 -1.8943 -3.2972
  103OSM   C18F10530   0.070   2.541   8.700  0.1386  0.1740 -1.6332
  103OSM   H18F10531   0.053   2.439   8.659 -2.4570 -0.1264 -0.0713
  103OSM   H18G10532   0.178   2.562   8.715  0.4805 -1.5805 -1.4116
  103OSM   H18H10533   0.031   2.621   8.634 -2.4734  0.4735  0.1034
  104OSM      N10534   4.534   6.279  11.022 -0.3805 -1.0496  0.1856
  104OSM    C1510535   4.654   6.233  11.098  0.2656 -0.0316  0.7975
  104OSM   H15A10536   4.743   6.245  11.039 -1.0056  0.4072 -1.1352
  104OSM   H15B10537   4.648   6.126  11.110  2.8644 -0.1343  1.7311
  104OSM   H15C10538   4.668   6.290  11.189  0.1038  1.1767  0.0938
  104OSM    C1410539   4.550   6.405  10.951  0.2346 -0.0416 -0.4209
  104OSM   H14A10540   4.649   6.423  10.912  0.8617 -1.0959  0.6094
  104OSM   H14B10541   4.532   6.486  11.019 -0.5237  1.0038 -1.8165
  104OSM   H14C10542   4.476   6.419  10.874 -0.0780  0.9220  0.0477
  104OSM    C1310543   4.495   6.176  10.920 -0.6647  0.0395 -0.0257
  104OSM   H13A10544   4.575   6.171  10.848 -0.9602 -0.7072 -0.3103
  104OSM   H13B10545   4.410   6.206  10.860  1.1254  3.0906 -1.2981
  104OSM   H13C10546   4.466   6.088  10.975 -0.8669  0.3094  0.3044
  104OSM    C1210547   4.420   6.293  11.125  0.7953 -0.1775 -0.6196
  104OSM   H12A10548   4.467   6.347  11.206 -0.3872 -0.9228  0.6178
  104OSM   H12B10549   4.392   6.195  11.160 -0.1469  0.6737  1.1757
  104OSM    C1110550   4.285   6.373  11.081 -0.1816  0.7838 -0.1416
  104OSM   H11A10551   4.309   6.480  11.068  0.6960  0.6687  0.4150
  104OSM   H11B10552   4.215   6.355  11.166  0.3313  0.6074  0.2565
  104OSM      P10553   4.091   6.359  10.913  0.4190 -0.0921  0.0410
  104OSM    O1310554   4.020   6.254  10.839  0.0049  0.1950 -0.7937
  104OSM    O1410555   4.020   6.428  11.025  0.0011  0.5109  0.9053
  104OSM    O1110556   4.124   6.472  10.813  0.1156  0.0467  0.3330
  104OSM    O1210557   4.238   6.314  10.966  0.1063 -0.4522 -0.0171
  104OSM    C1S10558   4.234   6.442  10.721  0.1834  0.3523  0.3815
  104OSM    H1S10559   4.301   6.362  10.758  0.6520  1.8486  3.0741
  104OSM    H1T10560   4.285   6.539  10.705 -0.9205  0.6187 -1.8402
  104OSM     NF10561   4.283   6.398  10.479  0.2780 -0.8758 -0.8073
  104OSM    HNF10562   4.310   6.483  10.434 -1.8953  0.4393  0.2050
  104OSM    C2S10563   4.172   6.424  10.575 -0.5540  0.3370 -0.8822
  104OSM    H2S10564   4.122   6.325  10.577  1.0487 -0.5434  1.8463
  104OSM    C3S10565   4.068   6.523  10.527 -0.2677 -0.1185 -0.8630
  104OSM    H3S10566   4.117   6.621  10.509  0.8485 -0.8333 -1.7781
  104OSM     O310567   3.960   6.548  10.625  0.0794  0.4003 -0.1387
  104OSM    HO310568   3.993   6.513  10.709 -3.1166 -0.8800  0.7319
  104OSM    C4S10569   4.002   6.469  10.399  0.2110 -0.5281  0.3847
  104OSM    H4S10570   4.043   6.506  10.304 -0.8544  0.6379  0.3508
  104OSM    C5S10571   3.910   6.368  10.397 -0.5913  0.2609  0.3989
  104OSM    H5S10572   3.877   6.318  10.490  2.0811 -1.1120  0.7217
  104OSM    C6S10573   3.843   6.307  10.283  0.5611 -0.2600 -0.3517
  104OSM    H6S10574   3.733   6.320  10.297  0.3343 -2.5301  0.4336
  104OSM    H6T10575   3.868   6.199  10.277  0.7492 -0.2128 -0.4171
  104OSM    C7S10576   3.886   6.370  10.155  0.4991  0.0488  0.0941
  104OSM    H7S10577   3.996   6.358  10.148  0.2733 -3.3270  0.7367
  104OSM    H7T10578   3.859   6.478  10.145 -0.3441  0.1469  2.8321
  104OSM    C8S10579   3.817   6.292  10.040  0.8097 -0.0506  0.3254
  104OSM    H8S10580   3.707   6.302  10.057  1.1327  0.8279  2.1826
  104OSM    H8T10581   3.847   6.185  10.045 -1.3304 -0.7603 -0.8959
  104OSM    C9S10582   3.840   6.327   9.898  0.3671  0.8936 -0.2152
  104OSM    H9S10583   3.792   6.256   9.828  0.7830 -0.4439  0.8154
  104OSM    H9T10584   3.945   6.320   9.861 -0.1678 -0.7732 -1.5426
  104OSM   C10S10585   3.790   6.467   9.864 -1.3028 -0.2155  0.0196
  104OSM   H10S10586   3.789   6.535   9.952 -0.6362  0.5789 -0.5705
  104OSM   H10T10587   3.688   6.450   9.823 -2.1404  1.9336  1.0809
  104OSM   C11S10588   3.871   6.552   9.763  0.1840 -0.2100 -0.2296
  104OSM   H11S10589   3.979   6.543   9.785  0.5595  1.0149 -1.4178
  104OSM   H11T10590   3.832   6.657   9.764 -1.7711 -0.8758 -0.9004
  104OSM   C12S10591   3.857   6.487   9.622 -0.4370 -0.5305 -0.8095
  104OSM   H12S10592   3.749   6.469   9.601 -0.2282 -0.7993 -1.7012
  104OSM   H12T10593   3.910   6.389   9.626  2.4496  0.8934 -1.3223
  104OSM   C13S10594   3.934   6.573   9.520 -0.9291 -0.1033 -0.2739
  104OSM   H13S10595   3.955   6.513   9.429 -2.5098  2.8441 -2.8278
  104OSM   H13T10596   4.035   6.604   9.555 -1.3863 -0.1827  1.1635
  104OSM   C14S10597   3.851   6.697   9.462 -0.1708  0.4677 -0.3531
  104OSM   H14S10598   3.916   6.751   9.390 -1.9895 -1.2589 -3.4861
  104OSM   H14T10599   3.833   6.762   9.551  2.1760  0.5736  0.1147
  104OSM   C15S10600   3.716   6.661   9.396 -0.7858  0.0144  0.4923
  104OSM   H15S10601   3.668   6.759   9.377 -2.7275 -1.2456 -1.5030
  104OSM   H15T10602   3.638   6.600   9.446 -0.3542 -1.7112 -0.8302
  104OSM   C16S10603   3.735   6.591   9.261 -0.2122  0.1298 -0.2315
  104OSM   H16S10604   3.645   6.533   9.231  0.8425 -2.6466  1.5868
  104OSM   H16T10605   3.811   6.511   9.273 -0.2498  0.3233  1.5986
  104OSM   C17S10606   3.779   6.692   9.157 -0.5383  0.2974  0.1302
  104OSM   H17S10607   3.859   6.638   9.103 -1.7460 -1.0193 -0.4205
  104OSM   H17T10608   3.831   6.776   9.208 -1.1632  0.8616 -0.1490
  104OSM   C18S10609   3.679   6.719   9.043  0.1138  0.0207  0.1369
  104OSM   H18S10610   3.701   6.815   8.990 -2.7262  1.5106  1.4038
  104OSM   H18T10611   3.589   6.736   9.107  1.7666  2.5301  1.9611
  104OSM   H18U10612   3.662   6.636   8.971  0.2308  0.7720 -0.7820
  104OSM    C1F10613   4.363   6.296  10.472  0.7459 -0.0994  0.2466
  104OSM     OF10614   4.350   6.196  10.543 -0.5383 -0.2432  0.1707
  104OSM    C2F10615   4.471   6.315  10.373 -0.2734 -0.2911  0.3264
  104OSM    H2F10616   4.534   6.396  10.415  1.6454 -0.0504 -2.6500
  104OSM    H2G10617   4.435   6.360  10.278 -1.5307 -0.1234  0.8630
  104OSM    C3F10618   4.568   6.193  10.352  0.0882  0.5577  0.0532
  104OSM    H3F10619   4.508   6.111  10.308  0.2039  1.5235 -2.0232
  104OSM    H3G10620   4.605   6.149  10.447 -0.8249 -0.2992  0.0174
  104OSM    C4F10621   4.684   6.235  10.262  0.1766 -0.5461  0.0342
  104OSM    H4F10622   4.763   6.289  10.318 -1.2245  0.3868  1.1715
  104OSM    H4G10623   4.641   6.297  10.181 -1.4060  0.1410  1.3456
  104OSM    C5F10624   4.751   6.104  10.206 -0.0219  0.0096 -0.2213
  104OSM    H5F10625   4.670   6.032  10.185  1.6189 -1.5663 -1.4666
  104OSM    H5G10626   4.813   6.053  10.283  1.3835  1.0507 -0.6182
  104OSM    C6F10627   4.828   6.136  10.074  0.9299 -0.4078 -0.0853
  104OSM    H6F10628   4.902   6.217  10.090 -1.2198  1.7302 -0.2668
  104OSM    H6G10629   4.747   6.188  10.018  0.4355  2.0542  2.6556
  104OSM    C7F10630   4.881   6.015   9.990  0.0201 -0.3630 -0.0916
  104OSM    H7F10631   4.816   5.927  10.009 -1.0092  1.0150  3.6106
  104OSM    H7G10632   4.986   5.998  10.021  0.4139  1.4205 -0.3179
  104OSM    C8F10633   4.873   6.053   9.838  0.2304  0.0802 -0.0111
  104OSM    H8F10634   4.947   6.136   9.836  0.8580 -0.4722 -0.4124
  104OSM    H8G10635   4.770   6.085   9.812 -0.5664  1.8313  4.4541
  104OSM    C9F10636   4.925   5.941   9.746 -0.1759 -0.4167 -0.0589
  104OSM    H9F10637   5.009   5.890   9.795  0.6903 -1.3126 -2.3125
  104OSM   C10F10638   4.878   5.889   9.628  0.8965 -0.6822  0.7919
  104OSM   H10F10639   4.936   5.814   9.573 -0.4881  1.2494 -3.7934
  104OSM   C11F10640   4.760   5.946   9.552 -0.5200  0.1342  0.0090
  104OSM   H11F10641   4.692   5.995   9.625 -2.9383  1.2169 -2.7839
  104OSM   H11G10642   4.701   5.860   9.513  2.2177 -1.2516 -1.3831
  104OSM   C12F10643   4.795   6.039   9.442  0.1111  0.5359 -0.7532
  104OSM   H12F10644   4.826   6.136   9.487  1.1874 -0.8339  1.6582
  104OSM   H12G10645   4.702   6.075   9.393 -1.0372  2.4199  2.4979
  104OSM   C13F10646   4.908   5.992   9.345  0.1587 -0.4319  0.5687
  104OSM   H13F10647   4.874   5.894   9.305 -0.7332 -0.1270  0.5603
  104OSM   H13G10648   5.005   5.967   9.393  0.2756 -1.6195 -0.2401
  104OSM   C14F10649   4.929   6.094   9.225 -0.2486  0.4917 -0.2193
  104OSM   H14F10650   4.979   6.188   9.258 -1.1403  1.5299 -1.6907
  104OSM   H14G10651   4.829   6.118   9.182  0.7814 -0.6026 -3.4983
  104OSM   C15F10652   5.023   6.044   9.110 -0.6029  0.3247 -0.7513
  104OSM   H15F10653   5.008   5.939   9.078  0.3915 -0.1050  0.1190
  104OSM   H15G10654   5.131   6.043   9.137 -0.5725 -1.4509 -0.8201
  104OSM   C16F10655   4.996   6.143   8.998  0.1796 -0.5175 -0.1117
  104OSM   H16F10656   5.003   6.242   9.047 -0.0530  0.5634 -2.1503
  104OSM   H16G10657   4.889   6.133   8.969  0.0260 -1.0189  0.6116
  104OSM   C17F10658   5.073   6.132   8.866  0.3826 -0.1368 -0.0459
  104OSM   H17F10659   5.041   6.035   8.822  2.1728 -0.4774 -0.6850
  104OSM   H17G10660   5.184   6.138   8.871  0.4295  1.7606 -1.8719
  104OSM   C18F10661   5.026   6.231   8.763 -0.1101  0.2862 -0.3548
  104OSM   H18F10662   5.078   6.205   8.668 -0.5656 -1.2937 -0.1989
  104OSM   H18G10663   5.056   6.331   8.801 -0.2282  0.8628 -1.6885
  104OSM   H18H10664   4.915   6.234   8.761 -0.0970  2.0048 -0.1509
  105OSM      N10665   3.140   5.956  11.253 -0.2546  0.1077 -0.3027
  105OSM    C1510666   3.092   5.919  11.389  1.2912 -0.0256 -0.6521
  105OSM   H15A10667   2.987   5.902  11.375  1.0916  0.4710  0.1824
  105OSM   H15B10668   3.090   5.993  11.468  0.1459 -0.4668 -0.2562
  105OSM   H15C10669   3.126   5.825  11.431 -1.3342 -0.8846 -0.3106
  105OSM    C1410670   3.078   6.087  11.211 -0.4320 -0.7941  0.8429
  105OSM   H14A10671   3.097   6.164  11.284  0.8830 -0.5985  0.3283
  105OSM   H14B10672   2.977   6.082  11.175 -0.3968  0.1531  0.5695
  105OSM   H14C10673   3.126   6.115  11.118 -1.3434 -0.1975  0.5381
  105OSM    C1310674   3.292   5.969  11.254  0.1484 -0.1280 -0.1185
  105OSM   H13A10675   3.332   5.878  11.297 -2.2722 -0.2147  2.2323
  105OSM   H13B10676   3.315   6.056  11.313 -3.0471 -0.3659  1.7440
  105OSM   H13C10677   3.326   5.997  11.156  2.3248  1.8090  1.1119
  105OSM    C1210678   3.093   5.850  11.157  0.5999  0.2084 -0.6805
  105OSM   H12A10679   2.986   5.842  11.153  0.6112 -1.5124  1.1273
  105OSM   H12B10680   3.122   5.754  11.198  0.3345 -0.2644 -1.5678
  105OSM    C1110681   3.156   5.840  11.014  0.1145  0.3099 -0.4246
  105OSM   H11A10682   3.112   5.756  10.957 -0.5840  0.4037 -0.0401
  105OSM   H11B10683   3.263   5.820  11.037 -0.3581 -0.5292  1.1875
  105OSM      P10684   3.017   5.997  10.873  0.2267  0.2609  0.0211
  105OSM    O1310685   2.904   5.922  10.930 -0.6917 -0.3147 -0.2070
  105OSM    O1410686   3.000   6.143  10.852 -0.0676 -0.0732 -0.0511
  105OSM    O1110687   3.053   5.921  10.746  0.3679 -0.2294  0.1599
  105OSM    O1210688   3.151   5.967  10.947 -0.0770 -0.1663 -0.5666
  105OSM    C1S10689   3.175   5.946  10.678  0.0776 -0.1248  0.4990
  105OSM    H1S10690   3.267   5.909  10.727  0.7615 -2.9798 -2.5863
  105OSM    H1T10691   3.185   6.054  10.653 -3.8971 -0.0981 -1.8915
  105OSM     NF10692   3.309   5.877  10.489  0.1987 -0.3542 -0.1232
  105OSM    HNF10693   3.327   5.951  10.425  0.3936 -0.1803  0.1295
  105OSM    C2S10694   3.165   5.878  10.538 -0.9473  0.3552  0.4474
  105OSM    H2S10695   3.137   5.772  10.554 -0.1865  0.5212  3.3569
  105OSM    C3S10696   3.077   5.942  10.438  0.7060 -0.5384  0.5797
  105OSM    H3S10697   3.123   6.040  10.415  0.4843  0.1927  3.0048
  105OSM     O310698   2.949   5.964  10.488  0.3592 -0.2644 -0.0636
  105OSM    HO310699   2.964   5.925  10.575 -1.1209 -1.7602 -0.4338
  105OSM    C4S10700   3.074   5.852  10.316  0.2664  0.6886  0.1255
  105OSM    H4S10701   3.174   5.848  10.269 -0.9323  0.9465 -2.6210
  105OSM    C5S10702   2.979   5.785  10.253 -0.1997  0.4036 -0.1345
  105OSM    H5S10703   2.875   5.784  10.289  0.3255  1.5427  1.5852
  105OSM    C6S10704   3.001   5.717  10.118  0.2545 -0.3621 -0.8016
  105OSM    H6S10705   2.978   5.609  10.118 -0.0702 -0.3459 -3.3385
  105OSM    H6T10706   3.109   5.716  10.090  0.1949  0.5499 -1.0972
  105OSM    C7S10707   2.924   5.782  10.005  0.2873 -0.3751  0.4865
  105OSM    H7S10708   2.948   5.890   9.994  0.2478 -0.4480 -0.4549
  105OSM    H7T10709   2.814   5.769  10.016  0.3317 -1.4759 -0.1368
  105OSM    C8S10710   2.971   5.718   9.871  0.9970  0.2818  0.0664
  105OSM    H8S10711   2.961   5.609   9.888  1.3972  0.3362  0.6831
  105OSM    H8T10712   3.078   5.735   9.850  0.8386  0.6965 -0.4434
  105OSM    C9S10713   2.891   5.767   9.755 -0.3064 -0.6076  0.7199
  105OSM    H9S10714   2.881   5.877   9.766  2.6804 -0.2302  0.5440
  105OSM    H9T10715   2.792   5.718   9.762 -0.1009 -1.8057 -2.8048
  105OSM   C10S10716   2.964   5.737   9.620  0.8321 -0.7510 -0.1906
  105OSM   H10S10717   2.974   5.627   9.611 -1.8225 -1.1144  0.4180
  105OSM   H10T10718   3.069   5.773   9.627  0.3233  0.8743 -0.4279
  105OSM   C11S10719   2.898   5.799   9.499  0.7855 -0.0659  0.0297
  105OSM   H11S10720   2.854   5.897   9.528 -1.3409 -1.6338  2.6328
  105OSM   H11T10721   2.810   5.734   9.478 -1.1664  1.4255  2.9363
  105OSM   C12S10722   2.976   5.805   9.366  0.2086 -0.0974 -0.0916
  105OSM   H12S10723   3.033   5.710   9.356 -0.2080 -0.3810  0.1571
  105OSM   H12T10724   3.061   5.875   9.377 -1.0959  1.4039  0.8994
  105OSM   C13S10725   2.888   5.826   9.247 -0.8179 -0.4975  0.4813
  105OSM   H13S10726   2.955   5.826   9.158 -1.3168  1.4486  0.0471
  105OSM   H13T10727   2.851   5.931   9.248  2.1193  0.6316  1.0143
  105OSM   C14S10728   2.782   5.715   9.225  0.1631 -0.3522 -0.3886
  105OSM   H14S10729   2.712   5.715   9.311 -1.7216 -0.8650 -1.8581
  105OSM   H14T10730   2.819   5.610   9.221  2.0507  0.1083  2.3404
  105OSM   C15S10731   2.700   5.740   9.091  0.1131 -0.1177 -0.6772
  105OSM   H15S10732   2.644   5.833   9.114  0.1985 -0.7255  2.3961
  105OSM   H15T10733   2.638   5.650   9.070  0.6517 -0.2114 -1.9903
  105OSM   C16S10734   2.777   5.778   8.964 -1.0083  0.1388 -0.2320
  105OSM   H16S10735   2.857   5.704   8.946 -0.1701  1.6412 -3.2675
  105OSM   H16T10736   2.827   5.876   8.984  0.0482 -0.0112 -1.9549
  105OSM   C17S10737   2.703   5.782   8.832 -0.7747 -0.2293  0.1275
  105OSM   H17S10738   2.630   5.865   8.839 -2.0670 -1.4215  1.5505
  105OSM   H17T10739   2.641   5.694   8.807 -0.1572 -0.5514 -0.2945
  105OSM   C18S10740   2.802   5.807   8.718  0.3504  0.3756 -0.2853
  105OSM   H18S10741   2.836   5.913   8.722  0.3774  0.3321  2.0564
  105OSM   H18T10742   2.754   5.784   8.620 -2.9610 -1.6546  1.6287
  105OSM   H18U10743   2.899   5.752   8.723 -0.6581 -1.6967 -1.8969
  105OSM    C1F10744   3.405   5.804  10.536 -0.0897  0.0657  0.0749
  105OSM     OF10745   3.366   5.704  10.600 -0.1183  0.4812 -0.1735
  105OSM    C2F10746   3.553   5.830  10.525 -0.4044 -0.0238 -0.1972
  105OSM    H2F10747   3.599   5.732  10.549  3.7848  2.2876  2.4669
  105OSM    H2G10748   3.594   5.897  10.604  4.3314 -0.4007 -1.9681
  105OSM    C3F10749   3.595   5.880  10.384 -0.4205 -0.1980  0.5932
  105OSM    H3F10750   3.550   5.979  10.358  0.0268 -0.0723  0.2692
  105OSM    H3G10751   3.566   5.808  10.305  2.8671 -0.8122 -0.2026
  105OSM    C4F10752   3.750   5.913  10.358  0.2193  0.8116 -0.0594
  105OSM    H4F10753   3.814   5.829  10.393  0.8722  0.6080 -1.6664
  105OSM    H4G10754   3.774   6.002  10.420  0.4498  0.1108  0.9006
  105OSM    C5F10755   3.779   5.938  10.211 -0.2583  0.4226 -0.3494
  105OSM    H5F10756   3.878   5.988  10.200 -1.1144  1.7341 -2.5788
  105OSM    H5G10757   3.692   5.991  10.168 -0.0959  1.5520  0.6539
  105OSM    C6F10758   3.804   5.812  10.115 -0.1374 -0.2766  0.7123
  105OSM    H6F10759   3.709   5.763  10.086  0.6666 -1.4177 -0.0880
  105OSM    H6G10760   3.867   5.742  10.174  0.4163  0.6175  1.2033
  105OSM    C7F10761   3.883   5.853   9.988 -0.6427  0.3769  0.0997
  105OSM    H7F10762   3.929   5.764   9.940 -1.8773 -1.1175  1.5478
  105OSM    H7G10763   3.974   5.904  10.024  0.3169 -1.3179  0.1679
  105OSM    C8F10764   3.799   5.932   9.887  0.0204 -0.6208  1.0671
  105OSM    H8F10765   3.759   6.022   9.938  3.2916  1.0533  0.8896
  105OSM    H8G10766   3.709   5.872   9.860 -0.1805 -0.4804  1.4235
  105OSM    C9F10767   3.877   5.991   9.771 -0.0740  0.2886  0.1627
  105OSM    H9F10768   3.943   6.076   9.794 -1.2322  1.4627 -0.7187
  105OSM   C10F10769   3.872   5.956   9.641 -0.3405  0.2183 -0.7029
  105OSM   H10F10770   3.936   6.013   9.571  0.3710  0.3340  0.0224
  105OSM   C11F10771   3.793   5.839   9.586  0.3141  0.0552 -0.8803
  105OSM   H11F10772   3.692   5.867   9.549  0.5660  1.5119 -0.5460
  105OSM   H11G10773   3.766   5.766   9.665 -0.4326  0.7655 -0.4660
  105OSM   C12F10774   3.860   5.752   9.480 -0.3698 -0.5798 -0.4053
  105OSM   H12F10775   3.789   5.676   9.443 -0.0350 -0.1641 -1.9892
  105OSM   H12G10776   3.947   5.692   9.516  1.3026  0.7354 -2.0119
  105OSM   C13F10777   3.913   5.836   9.358 -0.1024  0.2575  0.5941
  105OSM   H13F10778   3.981   5.918   9.389  2.7957 -1.2106 -1.3440
  105OSM   H13G10779   3.826   5.881   9.306  0.7700 -0.6437 -1.8267
  105OSM   C14F10780   3.979   5.745   9.266  0.0450  0.4540  0.7239
  105OSM   H14F10781   3.914   5.664   9.228 -0.2747  0.1178  1.9543
  105OSM   H14G10782   4.064   5.689   9.310 -0.0942  1.0779  1.7987
  105OSM   C15F10783   4.021   5.834   9.143 -0.4823  0.1926 -0.7349
  105OSM   H15F10784   4.104   5.784   9.090 -1.5634 -3.1253  0.4278
  105OSM   H15G10785   4.061   5.929   9.184  0.5580 -0.1229 -0.9902
  105OSM   C16F10786   3.906   5.851   9.043 -0.4575 -0.0641  0.2034
  105OSM   H16F10787   3.812   5.862   9.100 -1.2680 -2.6135 -0.5222
  105OSM   H16G10788   3.900   5.750   8.998  0.0503  0.2872 -0.6891
  105OSM   C17F10789   3.923   5.959   8.935  0.3474 -0.1803 -0.4716
  105OSM   H17F10790   4.025   5.942   8.895  0.1284 -3.0550 -0.0102
  105OSM   H17G10791   3.939   6.062   8.973  1.8395 -0.9218  0.9999
  105OSM   C18F10792   3.822   5.938   8.820 -0.3590 -0.6367 -0.4120
  105OSM   H18F10793   3.715   5.960   8.839 -0.2068 -0.2702  0.0219
  105OSM   H18G10794   3.818   5.834   8.782 -2.9609 -0.0493 -1.9731
  105OSM   H18H10795   3.842   6.003   8.732  1.1728 -1.3248 -0.6023
  106OSM      N10796   2.885   3.962  11.240 -0.3338  0.3832 -0.1623
  106OSM    C1510797   2.792   4.041  11.325  0.1244 -0.5543  0.3606
  106OSM   H15A10798   2.707   3.982  11.358 -1.9752  1.6529 -0.8021
  106OSM   H15B10799   2.757   4.131  11.277  0.2353 -0.7379 -0.0584
  106OSM   H15C10800   2.849   4.075  11.410  1.8470  0.7111 -1.2210
  106OSM    C1410801   3.005   4.047  11.228  0.1123 -0.2550 -0.1142
  106OSM   H14A10802   3.033   4.073  11.329  4.4139 -0.4698 -1.0374
  106OSM   H14B10803   2.991   4.139  11.174  3.6323 -0.5853 -1.8914
  106OSM   H14C10804   3.086   4.004  11.171  0.8712  0.2266  0.5748
  106OSM    C1310805   2.913   3.838  11.319 -0.2560 -0.1164  0.2128
  106OSM   H13A10806   2.956   3.753  11.268 -1.1051 -0.5654  0.2130
  106OSM   H13B10807   2.816   3.800  11.348 -0.4385 -0.1184 -0.3711
  106OSM   H13C10808   2.977   3.863  11.402 -0.3894  0.5170  0.1314
  106OSM    C1210809   2.822   3.931  11.108 -0.1029 -0.0729 -0.7597
  106OSM   H12A10810   2.738   3.870  11.135 -0.1104  1.0642  2.1154
  106OSM   H12B10811   2.897   3.884  11.046 -0.0418 -0.8742 -0.0948
  106OSM    C1110812   2.771   4.059  11.023 -0.7316 -0.4028  0.0371
  106OSM   H11A10813   2.721   4.128  11.095 -1.5676  0.4292 -1.3015
  106OSM   H11B10814   2.694   4.019  10.953  0.4932 -2.3158 -0.3096
  106OSM      P10815   2.982   4.062  10.874 -0.1214 -0.3381  0.0740
  106OSM    O1310816   3.085   4.166  10.841  0.2166 -0.1086 -0.0875
  106OSM    O1410817   3.042   3.941  10.941  0.1269 -0.5447  0.3334
  106OSM    O1110818   2.915   4.022  10.745 -0.2140  0.5793  0.2976
  106OSM    O1210819   2.874   4.136  10.964  1.2748  0.1065  0.2226
  106OSM    C1S10820   2.838   4.108  10.656  0.1823  0.3938  0.8155
  106OSM    H1S10821   2.791   4.190  10.714 -0.2010  0.7512  0.0098
  106OSM    H1T10822   2.768   4.041  10.601  2.2295 -1.5613  0.4202
  106OSM     NF10823   2.865   4.254  10.460 -0.0087 -0.4785 -0.4996
  106OSM    HNF10824   2.822   4.212  10.381  0.3233 -1.3938 -0.2113
  106OSM    C2S10825   2.940   4.170  10.549  0.3409 -0.5820  0.6687
  106OSM    H2S10826   2.999   4.238  10.614 -0.0424  1.3731 -0.9121
  106OSM    C3S10827   3.028   4.066  10.472  0.6622 -0.5557  0.1697
  106OSM    H3S10828   2.969   3.988  10.419  0.5187 -1.6601  1.8827
  106OSM     O310829   3.105   3.987  10.556 -0.0612 -0.1866  0.3016
  106OSM    HO310830   3.061   4.004  10.640  1.9804  2.5849  1.0026
  106OSM    C4S10831   3.122   4.116  10.369 -0.6561 -0.0367  0.2079
  106OSM    H4S10832   3.196   4.191  10.401  0.1771 -1.3463  1.5027
  106OSM    C5S10833   3.126   4.083  10.242  0.4533 -0.2746 -0.4739
  106OSM    H5S10834   3.055   4.007  10.204 -2.2255  1.1642  1.3205
  106OSM    C6S10835   3.218   4.149  10.142  0.3171 -0.1884  0.1197
  106OSM    H6S10836   3.244   4.070  10.068 -0.4617  1.0860 -1.6037
  106OSM    H6T10837   3.316   4.184  10.182  1.2934  0.8681 -2.8529
  106OSM    C7S10838   3.173   4.270  10.056  0.5833  0.2304 -0.2021
  106OSM    H7S10839   3.144   4.359  10.115  0.4130 -1.9071  3.2459
  106OSM    H7T10840   3.088   4.249   9.987  0.7348  1.9636 -0.9568
  106OSM    C8S10841   3.278   4.315   9.958 -0.1523 -0.3192 -0.5807
  106OSM    H8S10842   3.316   4.227   9.901  0.0625 -0.7524  0.2206
  106OSM    H8T10843   3.359   4.351  10.024 -0.0907 -0.9679 -0.2947
  106OSM    C9S10844   3.220   4.424   9.865  0.0530 -0.0019  0.5365
  106OSM    H9S10845   3.206   4.516   9.925 -1.2275  0.5054 -0.4870
  106OSM    H9T10846   3.125   4.400   9.812 -1.3778  1.3247  2.3598
  106OSM   C10S10847   3.317   4.448   9.743 -0.2939  0.2152  0.3534
  106OSM   H10S10848   3.296   4.365   9.673 -0.2974  0.5298 -0.0242
  106OSM   H10T10849   3.422   4.431   9.775 -0.0739 -0.9910 -0.9294
  106OSM   C11S10850   3.302   4.576   9.670  0.7501  0.1801  0.4284
  106OSM   H11S10851   3.356   4.654   9.728 -0.0506  0.8663  0.2654
  106OSM   H11T10852   3.196   4.590   9.641  1.5752  1.8570 -2.1653
  106OSM   C12S10853   3.380   4.571   9.535  0.3142  0.9160 -0.0867
  106OSM   H12S10854   3.486   4.545   9.557  0.8834  2.4491 -0.8918
  106OSM   H12T10855   3.386   4.676   9.500 -0.8277  0.8667 -0.4726
  106OSM   C13S10856   3.332   4.478   9.425  0.6975  0.2976  0.0579
  106OSM   H13S10857   3.224   4.494   9.400  0.6360 -2.6706 -2.1756
  106OSM   H13T10858   3.350   4.375   9.461 -0.9123 -0.1806 -0.3838
  106OSM   C14S10859   3.424   4.505   9.305 -0.2607 -0.3477 -0.0628
  106OSM   H14S10860   3.444   4.614   9.302 -0.8699 -0.2295 -0.0652
  106OSM   H14T10861   3.370   4.478   9.211 -1.9047  2.8317 -0.1882
  106OSM   C15S10862   3.554   4.421   9.319  0.6486  0.1654  0.1370
  106OSM   H15S10863   3.519   4.317   9.299 -1.6301  0.8916  0.0394
  106OSM   H15T10864   3.580   4.430   9.427  2.9527  0.4949 -0.3954
  106OSM   C16S10865   3.674   4.458   9.227  0.0060  0.3322  0.0936
  106OSM   H16S10866   3.757   4.384   9.238 -0.4534 -0.5382 -1.9160
  106OSM   H16T10867   3.707   4.562   9.249 -1.4096  0.7205  0.4535
  106OSM   C17S10868   3.628   4.439   9.080  0.0305 -0.5254  0.1951
  106OSM   H17S10869   3.577   4.532   9.048 -0.0635 -0.9487 -0.9450
  106OSM   H17T10870   3.544   4.366   9.073 -0.5406 -0.2105  2.7782
  106OSM   C18S10871   3.745   4.413   8.985 -0.1519  0.1215 -0.3073
  106OSM   H18S10872   3.715   4.402   8.879 -2.2779  2.6372 -0.0694
  106OSM   H18T10873   3.804   4.324   9.016 -0.0953 -0.1609 -1.1993
  106OSM   H18U10874   3.814   4.500   8.996  0.4822 -0.3682 -0.3588
  106OSM    C1F10875   2.819   4.373  10.499  0.1252 -0.0485 -0.4627
  106OSM     OF10876   2.851   4.430  10.599 -0.0803  0.2481  0.0769
  106OSM    C2F10877   2.709   4.437  10.414 -0.1346 -0.0312  0.2132
  106OSM    H2F10878   2.661   4.524  10.463  2.0747  1.7901 -0.6778
  106OSM    H2G10879   2.631   4.358  10.409 -1.3108  1.0567  0.7356
  106OSM    C3F10880   2.758   4.490  10.279 -0.2670 -0.6518  1.0660
  106OSM    H3F10881   2.820   4.417  10.224  2.3754  0.2486  2.6823
  106OSM    H3G10882   2.834   4.566  10.307 -0.0340 -0.4794  0.0158
  106OSM    C4F10883   2.637   4.538  10.191  0.4046  0.2280  0.5950
  106OSM    H4F10884   2.576   4.612  10.248 -0.4543  2.3518 -2.7770
  106OSM    H4G10885   2.571   4.454  10.162  0.4808  0.6447 -0.8784
  106OSM    C5F10886   2.683   4.615  10.070 -0.1426  0.3273  0.3664
  106OSM    H5F10887   2.773   4.560  10.033 -1.1643 -1.2271  0.1050
  106OSM    H5G10888   2.716   4.719  10.094  0.5072  0.6486 -1.7054
  106OSM    C6F10889   2.579   4.622   9.965  0.4779  0.1148 -1.0500
  106OSM    H6F10890   2.489   4.666  10.011  1.4643 -0.2466  1.3378
  106OSM    H6G10891   2.564   4.515   9.939 -0.6122  0.2705 -1.0855
  106OSM    C7F10892   2.613   4.693   9.830  0.1542 -0.3133 -0.3211
  106OSM    H7F10893   2.618   4.803   9.846 -1.4061 -0.2644 -0.0226
  106OSM    H7G10894   2.533   4.674   9.756 -0.7786 -0.7235  0.7564
  106OSM    C8F10895   2.751   4.647   9.772  0.1716 -0.1136 -0.7324
  106OSM    H8F10896   2.752   4.542   9.736  1.1875 -0.3696  0.0000
  106OSM    H8G10897   2.827   4.656   9.852 -0.6002 -0.1216  0.0190
  106OSM    C9F10898   2.793   4.718   9.645 -0.2074 -0.5487 -0.1983
  106OSM    H9F10899   2.840   4.816   9.666 -2.1902  0.3207  0.4850
  106OSM   C10F10900   2.775   4.684   9.512 -0.3885 -0.2896 -0.0616
  106OSM   H10F10901   2.808   4.753   9.432  0.3063  0.2109  0.6427
  106OSM   C11F10902   2.705   4.555   9.469  0.1611  0.0216 -0.2289
  106OSM   H11F10903   2.623   4.578   9.397 -0.5952 -2.2072 -0.1705
  106OSM   H11G10904   2.646   4.516   9.555  2.9375 -0.2376  1.6775
  106OSM   C12F10905   2.790   4.437   9.415 -0.3621 -0.2304 -0.4064
  106OSM   H12F10906   2.723   4.350   9.395 -1.2351  0.5956 -1.1705
  106OSM   H12G10907   2.871   4.417   9.488 -0.7999  2.7344  1.0021
  106OSM   C13F10908   2.846   4.471   9.277 -0.4993  0.3253  0.3048
  106OSM   H13F10909   2.901   4.567   9.280 -0.1300  0.1186  0.1790
  106OSM   H13G10910   2.769   4.480   9.198 -1.5779 -0.3538  1.2424
  106OSM   C14F10911   2.950   4.364   9.230 -0.2522 -0.2419 -0.1867
  106OSM   H14F10912   2.913   4.259   9.221  1.5377 -0.8245 -1.1811
  106OSM   H14G10913   3.022   4.358   9.314 -0.2529  0.3646 -0.1416
  106OSM   C15F10914   3.026   4.415   9.101  0.4813  0.1246 -0.1991
  106OSM   H15F10915   3.131   4.381   9.112  0.2434 -0.0776  1.6377
  106OSM   H15G10916   3.038   4.526   9.103  1.3436  0.0372  0.2321
  106OSM   C16F10917   2.975   4.364   8.971  0.0286 -0.4097  0.4501
  106OSM   H16F10918   2.992   4.254   8.964  0.9778 -0.1807 -1.7335
  106OSM   H16G10919   3.039   4.410   8.893 -1.7106 -0.8240 -1.2769
  106OSM   C17F10920   2.831   4.393   8.938  0.2391 -0.0437  0.5132
  106OSM   H17F10921   2.823   4.502   8.918  0.1393 -0.0356  0.5990
  106OSM   H17G10922   2.771   4.363   9.026  0.3028 -1.9800 -0.0507
  106OSM   C18F10923   2.788   4.324   8.804 -0.3248  0.1185 -0.7588
  106OSM   H18F10924   2.855   4.373   8.730  0.9514  0.7843  0.8100
  106OSM   H18G10925   2.678   4.333   8.785 -0.0251  3.2402 -1.4735
  106OSM   H18H10926   2.826   4.221   8.819  0.0356  0.5046  1.2640
  107OSM      N10927   5.551   1.601  11.213  0.4190  0.8602 -0.5758
  107OSM    C1510928   5.662   1.697  11.249  0.1974 -0.1539  0.1073
  107OSM   H15A10929   5.620   1.773  11.312  0.7234  1.5363 -1.4843
  107OSM   H15B10930   5.694   1.751  11.161 -1.7660  1.4473  0.2988
  107OSM   H15C10931   5.742   1.652  11.306  0.0615 -0.7120 -0.1394
  107OSM    C1410932   5.503   1.529  11.336  0.1234 -0.6366  0.2509
  107OSM   H14A10933   5.444   1.442  11.309  0.1212 -1.2698  2.1985
  107OSM   H14B10934   5.454   1.600  11.401 -1.1967 -0.3732 -0.9638
  107OSM   H14C10935   5.583   1.477  11.385 -0.1216 -0.2815  1.0462
  107OSM    C1310936   5.442   1.679  11.136 -0.1978 -0.0692 -0.5985
  107OSM   H13A10937   5.393   1.624  11.057 -2.1748  1.0262 -0.2089
  107OSM   H13B10938   5.488   1.763  11.086 -1.9813  1.9430  0.9128
  107OSM   H13C10939   5.361   1.708  11.202 -0.7201 -0.3682 -1.1041
  107OSM    C1210940   5.602   1.491  11.121 -0.7714 -0.4336  0.4839
  107OSM   H12A10941   5.687   1.431  11.148 -1.1815  0.0253  3.0429
  107OSM   H12B10942   5.642   1.540  11.033 -1.4904 -2.4470 -1.0455
  107OSM    C1110943   5.495   1.389  11.065 -0.0404  0.5766 -0.4087
  107OSM   H11A10944   5.546   1.319  10.996  0.5357  0.0873  0.4889
  107OSM   H11B10945   5.414   1.440  11.009 -0.8828  1.3179  1.4081
  107OSM      P10946   5.321   1.216  11.154  0.5563  0.2376 -0.2952
  107OSM    O1310947   5.348   1.098  11.240  0.4618  0.1326  0.4416
  107OSM    O1410948   5.194   1.291  11.174  0.3057  0.1126 -0.4633
  107OSM    O1110949   5.336   1.170  11.004  0.4981 -0.0073  0.1080
  107OSM    O1210950   5.440   1.313  11.170 -0.1208  1.0222 -0.1296
  107OSM    C1S10951   5.241   1.094  10.927 -0.0924  0.3858  0.0905
  107OSM    H1S10952   5.148   1.154  10.914 -1.0915 -0.9223  0.9193
  107OSM    H1T10953   5.218   0.998  10.978  1.0944 -0.3543 -0.7171
  107OSM     NF10954   5.200   0.997  10.707 -0.6873  0.4427 -0.2163
  107OSM    HNF10955   5.206   0.898  10.710  0.0605  0.4883  0.4182
  107OSM    C2S10956   5.310   1.058  10.788  0.4126 -0.7569 -0.5241
  107OSM    H2S10957   5.341   1.151  10.736  0.7584 -1.3265 -1.3592
  107OSM    C3S10958   5.442   0.972  10.807 -0.4460  0.6626  0.0335
  107OSM    H3S10959   5.402   0.886  10.864 -0.9309  1.0019  0.2100
  107OSM     O310960   5.538   1.039  10.887  0.0724 -0.7468  0.1251
  107OSM    HO310961   5.483   1.089  10.948 -1.8848 -0.9102 -1.3824
  107OSM    C4S10962   5.492   0.918  10.675 -0.9728  0.1433 -0.5295
  107OSM    H4S10963   5.477   0.810  10.660 -0.3553  0.0316 -0.3487
  107OSM    C5S10964   5.580   0.971  10.584 -0.3357 -0.6194  0.2579
  107OSM    H5S10965   5.621   1.072  10.596 -1.9728  0.0281  0.6848
  107OSM    C6S10966   5.633   0.905  10.461  0.0212 -0.1985  0.1478
  107OSM    H6S10967   5.622   0.795  10.470 -0.0918 -0.3448 -1.4301
  107OSM    H6T10968   5.742   0.928  10.460 -0.2249  1.0360 -0.7657
  107OSM    C7S10969   5.577   0.953  10.324 -0.1888 -0.0563  0.3249
  107OSM    H7S10970   5.571   1.064  10.332 -2.3954 -0.1970  1.7685
  107OSM    H7T10971   5.480   0.898  10.321  0.9240 -2.4182  3.1295
  107OSM    C8S10972   5.650   0.903  10.189 -0.5858 -0.0447  0.2699
  107OSM    H8S10973   5.655   0.792  10.184 -1.9999 -0.0841 -2.1492
  107OSM    H8T10974   5.755   0.939  10.196 -1.0709  1.1612  1.6896
  107OSM    C9S10975   5.580   0.952  10.066  0.5398  0.0405  0.0418
  107OSM    H9S10976   5.595   1.060  10.046  1.7082  0.0456  0.8706
  107OSM    H9T10977   5.471   0.932  10.077  0.0880  1.9579 -0.4989
  107OSM   C10S10978   5.626   0.877   9.941 -0.9727  0.4336 -0.7158
  107OSM   H10S10979   5.552   0.900   9.861 -2.0493  2.3945  0.7364
  107OSM   H10T10980   5.624   0.767   9.950 -2.1382  0.5163  0.2257
  107OSM   C11S10981   5.760   0.918   9.882 -0.3811 -0.0413 -0.2769
  107OSM   H11S10982   5.841   0.883   9.949 -0.3648  0.9765  0.2499
  107OSM   H11T10983   5.774   1.028   9.880  1.0219 -0.1783  0.8037
  107OSM   C12S10984   5.786   0.847   9.745  0.0990  0.2562 -0.0103
  107OSM   H12S10985   5.719   0.881   9.663  1.6953 -0.2879 -1.6302
  107OSM   H12T10986   5.773   0.737   9.756 -0.5420  0.3285 -0.0621
  107OSM   C13S10987   5.928   0.880   9.694  0.3750  0.4689  0.3440
  107OSM   H13S10988   6.005   0.847   9.767  1.0216  4.4518  1.7100
  107OSM   H13T10989   5.932   0.991   9.684  0.0724  0.3770 -1.1065
  107OSM   C14S10990   5.963   0.819   9.553 -0.5211  0.3098 -0.4041
  107OSM   H14S10991   6.073   0.811   9.538 -0.6966  1.1114 -2.5427
  107OSM   H14T10992   5.937   0.887   9.468  1.0467 -2.1690 -3.0670
  107OSM   C15S10993   5.885   0.690   9.517 -0.2658 -0.5518  0.4522
  107OSM   H15S10994   5.778   0.704   9.544  0.7720  1.7002  4.0486
  107OSM   H15T10995   5.911   0.601   9.577 -0.6231 -0.4672  0.7366
  107OSM   C16S10996   5.888   0.638   9.368 -0.5457 -0.2635  0.0730
  107OSM   H16S10997   5.821   0.551   9.351  0.5080 -1.0841  0.0528
  107OSM   H16T10998   5.989   0.606   9.337  0.4436  0.4090  2.4333
  107OSM   C17S10999   5.853   0.738   9.256  0.5142  0.3701  0.1002
  107OSM   H17S11000   5.937   0.810   9.248  1.7700 -1.0305  0.2676
  107OSM   H17T11001   5.759   0.791   9.282  0.3610  0.0120  0.2752
  107OSM   C18S11002   5.833   0.666   9.120 -0.3734  0.0824 -0.4511
  107OSM   H18S11003   5.829   0.745   9.043 -0.0919 -0.1224 -0.6763
  107OSM   H18T11004   5.738   0.610   9.106  0.2121 -1.5147  1.4022
  107OSM   H18U11005   5.925   0.608   9.097  0.3589  0.7950  0.6108
  107OSM    C1F11006   5.104   1.059  10.639 -0.4879  0.5509 -0.2461
  107OSM     OF11007   5.076   1.177  10.660 -0.9346  0.4158  0.1191
  107OSM    C2F11008   5.019   0.969  10.555  0.1000 -0.0637  0.4099
  107OSM    H2F11009   4.916   0.957  10.595  0.1143 -4.7719 -0.4121
  107OSM    H2G11010   5.064   0.868  10.549 -2.9979 -1.6909  2.0970
  107OSM    C3F11011   5.018   1.041  10.416  0.1184 -0.1706 -0.5620
  107OSM    H3F11012   4.994   1.149  10.426  0.8376  0.0785 -1.4407
  107OSM    H3G11013   4.930   1.004  10.359  0.2506 -0.3234 -0.6652
  107OSM    C4F11014   5.149   1.016  10.334 -0.2141 -0.1210 -0.0036
  107OSM    H4F11015   5.163   0.912  10.299  1.1326  0.7203 -2.1776
  107OSM    H4G11016   5.238   1.054  10.389  1.0021 -2.3743 -0.3021
  107OSM    C5F11017   5.146   1.103  10.205  0.1083  0.1361  1.2428
  107OSM    H5F11018   5.155   1.210  10.235  2.1609  0.5306 -0.5241
  107OSM    H5G11019   5.053   1.086  10.147  1.2156  1.2147 -0.9696
  107OSM    C6F11020   5.259   1.081  10.100 -0.4239  0.0896 -0.1098
  107OSM    H6F11021   5.260   0.976  10.062  2.2035  0.2718 -0.7341
  107OSM    H6G11022   5.348   1.099  10.163 -1.1857  0.2415  0.9536
  107OSM    C7F11023   5.266   1.183   9.986  0.7289 -0.0483 -0.0484
  107OSM    H7F11024   5.367   1.171   9.944  0.1401 -0.0899 -1.4925
  107OSM    H7G11025   5.258   1.288  10.023  0.3623 -0.6668  1.7585
  107OSM    C8F11026   5.158   1.172   9.875 -0.1419  0.1013  0.3210
  107OSM    H8F11027   5.175   1.256   9.805 -1.8231 -0.2546 -0.5730
  107OSM    H8G11028   5.058   1.195   9.917  0.4887  3.3348  0.2886
  107OSM    C9F11029   5.163   1.030   9.823  0.8738 -0.3268  0.2169
  107OSM    H9F11030   5.094   0.971   9.884  0.2841  3.1440  3.2829
  107OSM   C10F11031   5.233   0.981   9.722  0.4828  0.2617 -0.7810
  107OSM   H10F11032   5.232   0.874   9.700  0.3128 -0.3721  1.9483
  107OSM   C11F11033   5.337   1.066   9.653  0.5419  0.3467 -1.1495
  107OSM   H11F11034   5.433   1.011   9.660 -0.9701 -2.2180  1.3728
  107OSM   H11G11035   5.358   1.162   9.703  3.3973 -0.1155 -1.2879
  107OSM   C12F11036   5.300   1.107   9.510 -0.1412 -1.3395 -0.1223
  107OSM   H12F11037   5.353   1.199   9.475 -0.8482 -0.7520  0.3161
  107OSM   H12G11038   5.192   1.135   9.507  0.4468  1.6419  1.7493
  107OSM   C13F11039   5.330   1.006   9.401 -1.2846 -0.2432 -0.3436
  107OSM   H13F11040   5.284   0.906   9.421 -0.8869 -0.2518  0.5727
  107OSM   H13G11041   5.439   1.001   9.418 -0.9560  3.0074 -0.8147
  107OSM   C14F11042   5.297   1.067   9.266  0.0811  0.3703 -0.3822
  107OSM   H14F11043   5.336   1.170   9.255 -3.3435  1.6871 -1.5062
  107OSM   H14G11044   5.188   1.090   9.263  0.3760  2.2712  1.0664
  107OSM   C15F11045   5.334   0.974   9.146  0.3620  0.2406 -0.7575
  107OSM   H15F11046   5.266   0.887   9.153 -0.8670  1.2683  0.8275
  107OSM   H15G11047   5.443   0.953   9.145  0.5544  1.1590 -0.3629
  107OSM   C16F11048   5.317   1.049   9.015 -0.6646  0.1578  0.1282
  107OSM   H16F11049   5.330   0.985   8.925  0.3349  2.2284 -1.3022
  107OSM   H16G11050   5.397   1.126   9.016  1.0402 -1.5503  1.2146
  107OSM   C17F11051   5.182   1.122   8.990  0.1593 -0.0174  0.3849
  107OSM   H17F11052   5.166   1.207   9.060 -1.6207 -1.4899  1.8691
  107OSM   H17G11053   5.101   1.048   9.009  2.3179 -2.1277  2.0734
  107OSM   C18F11054   5.188   1.177   8.848 -0.1565  0.1245 -0.6335
  107OSM   H18F11055   5.141   1.096   8.788  0.0447  0.8487 -1.7970
  107OSM   H18G11056   5.291   1.199   8.813  0.3897  0.1402  0.9146
  107OSM   H18H11057   5.136   1.275   8.846 -0.2806  0.1967  2.0648
  108OSM      N11058   2.077   5.697  11.038 -0.3432 -0.2355  0.1054
  108OSM    C1511059   2.040   5.591  11.140  0.5312 -0.8669 -0.1652
  108OSM   H15A11060   1.934   5.593  11.160  0.3918  1.7469 -0.8436
  108OSM   H15B11061   2.078   5.594  11.241 -1.2005 -2.5653  0.6152
  108OSM   H15C11062   2.065   5.495  11.098 -2.1991 -1.5601 -0.4225
  108OSM    C1411063   2.016   5.830  11.080  0.6766 -0.0857  0.5251
  108OSM   H14A11064   1.913   5.838  11.050  1.2882  1.1573 -1.4212
  108OSM   H14B11065   2.067   5.900  11.016  1.5044 -1.2314 -0.1082
  108OSM   H14C11066   2.026   5.859  11.183  1.5200  0.6611  0.2516
  108OSM    C1311067   2.221   5.729  11.040 -0.2022  0.0702 -0.8947
  108OSM   H13A11068   2.266   5.631  11.024 -0.5881  0.0129 -1.6658
  108OSM   H13B11069   2.251   5.763  11.138  2.2407 -2.4355 -0.6416
  108OSM   H13C11070   2.247   5.798  10.961 -2.1446  0.3787 -1.3060
  108OSM    C1211071   2.047   5.642  10.903 -0.4965 -0.2134  0.1873
  108OSM   H12A11072   2.060   5.723  10.832 -1.8665 -1.0287 -1.0415
  108OSM   H12B11073   1.944   5.610  10.901 -0.1714 -1.4936  1.6817
  108OSM    C1111074   2.133   5.531  10.839 -0.0150 -0.9933  0.2229
  108OSM   H11A11075   2.215   5.590  10.794 -1.3410  0.9796  0.2923
  108OSM   H11B11076   2.070   5.497  10.754 -0.5655  0.6308 -0.0414
  108OSM      P11077   2.272   5.332  10.897 -0.2152  0.0329 -0.5391
  108OSM    O1311078   2.379   5.378  10.982 -0.3603 -0.0733 -0.1430
  108OSM    O1411079   2.222   5.191  10.909 -0.5993 -0.2797  0.5292
  108OSM    O1111080   2.306   5.367  10.744  0.6639  0.7671 -0.3642
  108OSM    O1211081   2.155   5.421  10.929  0.7963  0.1250  0.4542
  108OSM    C1S11082   2.268   5.285  10.636  0.6095 -0.0857  0.2772
  108OSM    H1S11083   2.175   5.227  10.651  0.0751  0.4746 -0.7739
  108OSM    H1T11084   2.348   5.210  10.619  0.8333  0.3759 -0.7550
  108OSM     NF11085   2.194   5.308  10.406  0.1313 -0.1373 -0.1530
  108OSM    HNF11086   2.263   5.274  10.343 -0.0832 -1.8223  0.4872
  108OSM    C2S11087   2.244   5.390  10.519  0.2156 -0.1912  0.0304
  108OSM    H2S11088   2.176   5.475  10.538 -1.1358 -1.1748 -0.2580
  108OSM    C3S11089   2.380   5.448  10.478  0.3214 -0.6363  0.2705
  108OSM    H3S11090   2.440   5.356  10.463 -0.6513 -0.8808 -2.6664
  108OSM     O311091   2.446   5.525  10.577 -0.2748  0.1320 -0.2884
  108OSM    HO311092   2.406   5.491  10.658  0.5841 -0.3522 -0.0604
  108OSM    C4S11093   2.376   5.525  10.350 -0.9569 -0.1964 -0.6754
  108OSM    H4S11094   2.331   5.625  10.351  1.4151  1.0252 -2.9845
  108OSM    C5S11095   2.439   5.485  10.242 -0.6197 -0.6930 -0.1851
  108OSM    H5S11096   2.488   5.386  10.239  0.1986 -0.3078  0.1120
  108OSM    C6S11097   2.454   5.560  10.108  0.1766  0.4591  0.2708
  108OSM    H6S11098   2.560   5.588  10.097  0.0336  2.7874  3.3039
  108OSM    H6T11099   2.407   5.661  10.118  1.7151  1.2042  0.2257
  108OSM    C7S11100   2.417   5.483   9.981  0.3657 -0.1454  0.0134
  108OSM    H7S11101   2.322   5.427   9.990  1.1097 -1.3106  0.8765
  108OSM    H7T11102   2.492   5.406   9.953  0.5518  0.8461 -2.4177
  108OSM    C8S11103   2.408   5.573   9.857  0.0219 -0.1819  0.3311
  108OSM    H8S11104   2.506   5.624   9.854  0.5531 -1.1421 -2.7347
  108OSM    H8T11105   2.324   5.646   9.863 -0.6684 -1.0589  1.9374
  108OSM    C9S11106   2.412   5.485   9.729 -0.2284 -0.1947 -0.4575
  108OSM    H9S11107   2.324   5.416   9.730 -0.5861  0.2609  0.5253
  108OSM    H9T11108   2.509   5.432   9.739 -0.8243 -0.7993  3.7604
  108OSM   C10S11109   2.408   5.569   9.598 -0.4401  0.3096  0.6519
  108OSM   H10S11110   2.499   5.630   9.582 -0.9065  1.5592  2.4931
  108OSM   H10T11111   2.321   5.638   9.605  0.6687  1.5938  2.3842
  108OSM   C11S11112   2.397   5.480   9.474 -0.2076  0.1864 -0.0414
  108OSM   H11S11113   2.299   5.428   9.467  0.2944 -0.8464  0.4155
  108OSM   H11T11114   2.477   5.402   9.477 -2.4023 -2.1707  1.4433
  108OSM   C12S11115   2.416   5.565   9.343 -0.3616  0.0072 -1.0281
  108OSM   H12S11116   2.518   5.604   9.322 -0.0165 -0.7840 -0.8455
  108OSM   H12T11117   2.338   5.644   9.350  2.0832  2.4732  0.3811
  108OSM   C13S11118   2.390   5.485   9.218  0.2727 -0.5844  0.0368
  108OSM   H13S11119   2.391   5.558   9.135  1.7399  1.3646  1.6684
  108OSM   H13T11120   2.284   5.454   9.213 -0.2711  0.6939  2.2499
  108OSM   C14S11121   2.488   5.384   9.183  0.2664  0.0322  0.7670
  108OSM   H14S11122   2.462   5.290   9.236  0.4044  0.5683  1.7946
  108OSM   H14T11123   2.596   5.401   9.204  0.8807  0.2789 -2.0715
  108OSM   C15S11124   2.489   5.351   9.032 -0.1498 -0.1960 -0.7756
  108OSM   H15S11125   2.537   5.432   8.973  0.9659  0.0321  0.4262
  108OSM   H15T11126   2.383   5.355   8.999 -0.4551 -0.5506  0.1322
  108OSM   C16S11127   2.543   5.207   9.001  0.0059 -0.1842 -0.2334
  108OSM   H16S11128   2.474   5.139   9.055  0.7579 -1.8985 -1.3413
  108OSM   H16T11129   2.639   5.183   9.051 -0.5837  2.2464  2.3429
  108OSM   C17S11130   2.550   5.185   8.852 -0.1260  0.5434 -0.1830
  108OSM   H17S11131   2.622   5.259   8.811  0.6167 -1.0130 -1.8126
  108OSM   H17T11132   2.445   5.204   8.819 -0.3887  1.2460  1.0012
  108OSM   C18S11133   2.614   5.053   8.816  0.1624 -0.2248 -0.1527
  108OSM   H18S11134   2.603   5.027   8.709  1.0788 -0.7339 -0.1304
  108OSM   H18T11135   2.559   4.976   8.874 -1.5383 -0.1317 -1.5612
  108OSM   H18U11136   2.719   5.052   8.853  0.5461 -0.0010 -1.2100
  108OSM    C1F11137   2.075   5.247  10.395 -0.1088  0.4469 -0.3301
  108OSM     OF11138   1.989   5.259  10.484 -0.4615 -0.2403  0.0119
  108OSM    C2F11139   2.053   5.147  10.287 -0.1662 -0.1997 -0.1139
  108OSM    H2F11140   2.011   5.053  10.329 -0.9907 -0.5738 -1.6962
  108OSM    H2G11141   2.151   5.119  10.242 -0.3948 -0.3465 -0.5293
  108OSM    C3F11142   1.956   5.202  10.177  0.5025  0.0505  0.2126
  108OSM    H3F11143   1.982   5.304  10.144  1.4175 -0.7303 -1.6295
  108OSM    H3G11144   1.865   5.222  10.237  1.6334 -1.7390  2.7247
  108OSM    C4F11145   1.915   5.110  10.066 -0.2467 -0.2349 -0.1230
  108OSM    H4F11146   1.808   5.130  10.043  0.4956  0.8622 -3.0988
  108OSM    H4G11147   1.923   5.001  10.083 -0.5851 -0.2853 -0.2827
  108OSM    C5F11148   1.992   5.151   9.935  0.9518  0.1684 -0.2622
  108OSM    H5F11149   2.100   5.160   9.957  0.9031  4.3142 -0.9861
  108OSM    H5G11150   1.946   5.244   9.896  0.5950  0.6332  1.2227
  108OSM    C6F11151   1.967   5.051   9.824 -0.3151  0.4049 -0.2405
  108OSM    H6F11152   1.861   5.025   9.807  0.0648 -0.7544 -0.9817
  108OSM    H6G11153   1.997   4.948   9.855  1.5616  0.7627 -0.7181
  108OSM    C7F11154   2.048   5.075   9.696 -0.2768  0.3190  0.8094
  108OSM    H7F11155   2.051   4.986   9.629 -1.0809  1.2372 -0.4924
  108OSM    H7G11156   2.153   5.093   9.729 -0.1956 -0.7272  1.1586
  108OSM    C8F11157   1.999   5.191   9.612  0.3450  0.0074 -0.1989
  108OSM    H8F11158   2.079   5.195   9.536 -0.9527  0.3267 -1.5808
  108OSM    H8G11159   1.997   5.282   9.676  0.1560  0.2981 -0.6172
  108OSM    C9F11160   1.861   5.155   9.557  0.5262  0.5693 -0.2300
  108OSM    H9F11161   1.772   5.157   9.621  1.0075 -0.2296  0.4854
  108OSM   C10F11162   1.830   5.150   9.425 -0.0846  0.1459 -0.5362
  108OSM   H10F11163   1.725   5.129   9.400 -0.3164  0.5314  0.0960
  108OSM   C11F11164   1.917   5.190   9.308  0.6369 -0.3935  0.1942
  108OSM   H11F11165   1.925   5.091   9.259  0.0533 -0.6407  0.5783
  108OSM   H11G11166   2.017   5.230   9.334  0.7752 -0.6872  0.1162
  108OSM   C12F11167   1.851   5.270   9.191 -0.2079  0.0286 -0.3412
  108OSM   H12F11168   1.825   5.374   9.221  1.1889  0.5727 -0.9646
  108OSM   H12G11169   1.756   5.234   9.145 -0.7523  1.2091 -0.1704
  108OSM   C13F11170   1.944   5.294   9.075  0.1396 -0.4591 -0.9571
  108OSM   H13F11171   1.993   5.198   9.046  1.7096 -0.5402  1.6556
  108OSM   H13G11172   2.017   5.378   9.084 -1.2508  0.8839 -1.7212
  108OSM   C14F11173   1.859   5.355   8.956  0.1393 -0.1646  0.4862
  108OSM   H14F11174   1.814   5.451   8.991  0.9679  0.3135  0.2729
  108OSM   H14G11175   1.772   5.286   8.957 -0.1750  0.2284  0.9106
  108OSM   C15F11176   1.943   5.363   8.831  0.9344 -0.5942 -0.0745
  108OSM   H15F11177   1.874   5.353   8.744  0.6843 -0.2197  0.0795
  108OSM   H15G11178   2.025   5.288   8.830  1.4084 -0.0844  0.3038
  108OSM   C16F11179   2.001   5.507   8.817 -0.5911  0.0156  0.5040
  108OSM   H16F11180   2.036   5.542   8.916 -1.0258 -0.0141  0.6717
  108OSM   H16G11181   1.917   5.573   8.785  1.3714  1.6629 -1.6030
  108OSM   C17F11182   2.112   5.523   8.709  0.3507 -0.1920 -0.0388
  108OSM   H17F11183   2.067   5.488   8.614 -1.8961  0.9713  0.5186
  108OSM   H17G11184   2.199   5.461   8.740  0.1608  0.6927  2.5034
  108OSM   C18F11185   2.154   5.668   8.708 -0.1645 -0.0269 -0.0938
  108OSM   H18F11186   2.072   5.740   8.725 -1.0668 -1.1083  0.2503
  108OSM   H18G11187   2.194   5.686   8.606 -1.6498 -0.6394 -0.8176
  108OSM   H18H11188   2.223   5.699   8.790  0.5122  3.5712 -1.8102
  109OSM      N11189   2.695   1.071  10.917 -0.0090 -0.0784 -0.6340
  109OSM    C1511190   2.650   1.013  11.052 -0.1872 -0.1766 -0.2583
  109OSM   H15A11191   2.635   0.907  11.063 -0.1163 -0.1335  0.3089
  109OSM   H15B11192   2.560   1.070  11.073 -0.3036 -0.8908  1.3673
  109OSM   H15C11193   2.728   1.038  11.122  0.1243 -2.3568  0.2459
  109OSM    C1411194   2.580   1.046  10.827 -0.0917  0.2179 -0.4346
  109OSM   H14A11195   2.592   1.081  10.725 -0.6365  1.1423 -0.1977
  109OSM   H14B11196   2.489   1.097  10.857  0.3932  1.6919 -1.3178
  109OSM   H14C11197   2.557   0.942  10.810 -1.8693 -0.2704  3.7966
  109OSM    C1311198   2.731   1.215  10.927 -0.2734 -0.0681  0.4775
  109OSM   H13A11199   2.655   1.279  10.970 -0.7684 -2.2344  3.1516
  109OSM   H13B11200   2.766   1.266  10.839 -3.2412  0.8395 -0.2859
  109OSM   H13C11201   2.809   1.224  11.001 -0.7700  1.3402  0.8483
  109OSM    C1211202   2.813   0.986  10.875  0.3857  0.3579 -0.5169
  109OSM   H12A11203   2.895   1.010  10.940 -1.0249  1.8487  0.8050
  109OSM   H12B11204   2.842   1.007  10.773  1.6952 -0.6646 -0.3728
  109OSM    C1111205   2.794   0.832  10.873  0.8261 -0.0152  0.7580
  109OSM   H11A11206   2.745   0.796  10.965  1.0030 -0.4615  0.6805
  109OSM   H11B11207   2.893   0.784  10.855  0.6804 -0.2110  0.4791
  109OSM      P11208   2.686   0.655  10.724  0.7337  0.0116  0.0112
  109OSM    O1311209   2.658   0.577  10.845 -0.3521  0.1563 -0.0596
  109OSM    O1411210   2.574   0.638  10.622  0.0685 -0.0684 -0.1249
  109OSM    O1111211   2.825   0.619  10.663  0.5662 -0.2867  0.1101
  109OSM    O1211212   2.711   0.810  10.764 -0.4457  0.2203 -0.0377
  109OSM    C1S11213   2.833   0.499  10.594 -0.2072 -0.3505 -0.6725
  109OSM    H1S11214   2.780   0.514  10.497  1.4607  1.0099 -1.4235
  109OSM    H1T11215   2.795   0.410  10.649  0.0845  0.2775  0.5711
  109OSM     NF11216   2.992   0.346  10.475 -0.1870 -0.1747  0.0814
  109OSM    HNF11217   3.031   0.271  10.527 -1.1272 -1.7820 -1.4228
  109OSM    C2S11218   2.988   0.464  10.564 -0.1834 -0.0698  0.6968
  109OSM    H2S11219   3.032   0.554  10.517  0.8905 -0.4340  0.9671
  109OSM    C3S11220   3.077   0.445  10.695  0.7117 -0.9959 -0.4778
  109OSM    H3S11221   3.033   0.363  10.757  1.6423 -0.7443  0.5339
  109OSM     O311222   3.067   0.561  10.782  0.0093  0.0379 -0.3398
  109OSM    HO311223   2.986   0.599  10.746 -1.0216  0.3150  2.0401
  109OSM    C4S11224   3.221   0.408  10.668  0.0530 -0.4833 -0.1537
  109OSM    H4S11225   3.230   0.306  10.628 -0.2555 -0.6616  0.2198
  109OSM    C5S11226   3.327   0.488  10.656 -0.2091 -0.8940 -0.5327
  109OSM    H5S11227   3.305   0.595  10.672 -0.3887 -0.3977 -3.4677
  109OSM    C6S11228   3.472   0.452  10.614  0.0263 -0.1538 -0.5230
  109OSM    H6S11229   3.540   0.432  10.699 -1.7971 -0.6151  0.8905
  109OSM    H6T11230   3.524   0.539  10.569 -1.7009  1.0023 -0.3627
  109OSM    C7S11231   3.470   0.325  10.529 -0.2918 -0.4806 -0.1709
  109OSM    H7S11232   3.421   0.342  10.431  0.2879 -1.8063 -0.7121
  109OSM    H7T11233   3.426   0.237  10.579  0.9646 -1.6647 -1.0869
  109OSM    C8S11234   3.615   0.283  10.491  0.1663  0.3674  0.2424
  109OSM    H8S11235   3.670   0.261  10.584 -1.3065 -0.5964  0.9197
  109OSM    H8T11236   3.655   0.367  10.431  3.0206  0.0877  1.6268
  109OSM    C9S11237   3.624   0.150  10.408  0.7995 -0.4121 -0.2427
  109OSM    H9S11238   3.583   0.164  10.305  3.3095  1.3883 -1.1072
  109OSM    H9T11239   3.558   0.083  10.466 -0.2559  3.3449  3.4294
  109OSM   C10S11240   3.771   0.101  10.398 -0.3253  0.2903  0.2471
  109OSM   H10S11241   3.766   0.000  10.352 -1.4135  0.9639 -1.2209
  109OSM   H10T11242   3.811   0.100  10.501 -3.2779 -1.9017  1.5135
  109OSM   C11S11243   3.869   0.187  10.322 -0.7063  0.4783  0.1380
  109OSM   H11S11244   3.971   0.144  10.320 -0.9525 -0.1532  0.6250
  109OSM   H11T11245   3.884   0.284  10.374  1.6974  0.4350 -0.3532
  109OSM   C12S11246   3.828   0.206  10.176 -0.3003  0.9591 -0.0846
  109OSM   H12S11247   3.746   0.278  10.159 -0.3543  0.6942 -1.0121
  109OSM   H12T11248   3.774   0.115  10.142  1.6993  0.0876 -1.1258
  109OSM   C13S11249   3.945   0.242  10.075  0.5217 -0.4129 -0.1897
  109OSM   H13S11250   4.014   0.157  10.054 -0.1676 -1.3351  1.1335
  109OSM   H13T11251   4.010   0.322  10.117  3.3053 -2.0369 -1.1693
  109OSM   C14S11252   3.900   0.301   9.942  0.0019 -0.3420 -0.0131
  109OSM   H14S11253   3.989   0.316   9.877  0.2915 -1.5219  0.0894
  109OSM   H14T11254   3.852   0.400   9.956 -1.3040 -0.6900 -1.8373
  109OSM   C15S11255   3.799   0.220   9.871  0.4090  0.5433  0.8195
  109OSM   H15S11256   3.715   0.194   9.938 -1.4276  3.3511 -0.1918
  109OSM   H15T11257   3.856   0.128   9.845  2.3369  1.7608  0.5248
  109OSM   C16S11258   3.736   0.278   9.742 -0.4932  0.0970  0.0224
  109OSM   H16S11259   3.695   0.378   9.767  0.4322  0.4533  0.1461
  109OSM   H16T11260   3.663   0.204   9.703  2.0701 -0.9355 -3.3434
  109OSM   C17S11261   3.830   0.293   9.620  0.2422  0.7551 -0.3445
  109OSM   H17S11262   3.913   0.219   9.623 -1.9909 -2.0620 -2.0236
  109OSM   H17T11263   3.881   0.391   9.630  0.9664  0.2660  0.8677
  109OSM   C18S11264   3.759   0.273   9.478  0.0871  0.5291 -0.6595
  109OSM   H18S11265   3.705   0.367   9.453 -3.6919 -1.1714  0.3533
  109OSM   H18T11266   3.685   0.191   9.477 -0.8782  1.3750 -0.4201
  109OSM   H18U11267   3.840   0.256   9.403 -1.0850  0.4746 -1.9539
  109OSM    C1F11268   2.956   0.360  10.352  0.1701  0.6334  0.0742
  109OSM     OF11269   2.916   0.464  10.302  0.2771  0.4866  0.5301
  109OSM    C2F11270   2.972   0.233  10.266 -0.4275 -0.3308  0.4114
  109OSM    H2F11271   2.923   0.147  10.318 -1.7524 -0.5962 -1.1832
  109OSM    H2G11272   3.078   0.219  10.237 -0.9937 -0.2759 -1.8740
  109OSM    C3F11273   2.918   0.254  10.131 -0.0831 -0.1172 -0.6134
  109OSM    H3F11274   2.947   0.353  10.090  4.1948 -1.7715 -2.1247
  109OSM    H3G11275   2.808   0.260  10.149  0.1451  1.0726  0.6036
  109OSM    C4F11276   2.945   0.150  10.023 -0.0170  0.0544  0.2618
  109OSM    H4F11277   2.905   0.051  10.055 -1.5572  0.0310 -1.5874
  109OSM    H4G11278   3.054   0.145  10.001 -0.2697  0.1402 -1.0979
  109OSM    C5F11279   2.871   0.165   9.890  0.5331 -0.5809  0.5920
  109OSM    H5F11280   2.890   0.270   9.857 -0.3467 -0.6173 -0.0534
  109OSM    H5G11281   2.762   0.145   9.901  0.2650  0.6618  0.3943
  109OSM    C6F11282   2.921   0.072   9.778  0.2194 -0.4365  0.3613
  109OSM    H6F11283   2.942  -0.019   9.838 -0.9210 -0.5610  0.5945
  109OSM    H6G11284   3.015   0.112   9.734  0.0417 -0.7465 -0.3163
  109OSM    C7F11285   2.807   0.050   9.671  0.5035 -0.1011  0.8649
  109OSM    H7F11286   2.714   0.008   9.715 -0.3686 -2.8398 -3.1539
  109OSM    H7G11287   2.829  -0.032   9.601 -1.0074  0.9427 -0.9198
  109OSM    C8F11288   2.775   0.178   9.583  0.0514  0.6840 -0.2561
  109OSM    H8F11289   2.764   0.265   9.650 -0.9123  0.8782 -0.6552
  109OSM    H8G11290   2.675   0.171   9.536  0.0892  1.2796 -0.4374
  109OSM    C9F11291   2.872   0.216   9.481 -0.7161  0.2833 -0.6687
  109OSM    H9F11292   2.941   0.295   9.511  0.6320 -1.1404  0.1539
  109OSM   C10F11293   2.908   0.140   9.374  0.2314  0.8446 -0.0734
  109OSM   H10F11294   2.989   0.175   9.308  1.9889 -1.3088  0.8061
  109OSM   C11F11295   2.835   0.011   9.338  0.0219 -0.2603  0.1256
  109OSM   H11F11296   2.730   0.014   9.376 -0.2889  0.2257 -0.7453
  109OSM   H11G11297   2.889  -0.077   9.378  1.5574  0.0171 -1.2190
  109OSM   C12F11298   2.825  -0.014   9.186 -0.0254  0.1106  0.8887
  109OSM   H12F11299   2.778  -0.115   9.179  1.9151 -0.7461 -0.3714
  109OSM   H12G11300   2.926  -0.019   9.142 -1.1566  1.5214 -2.1304
  109OSM   C13F11301   2.743   0.093   9.112 -0.2477 -0.1364  0.0391
  109OSM   H13F11302   2.801   0.166   9.052 -2.1932 -0.7481 -2.7933
  109OSM   H13G11303   2.680   0.152   9.183  0.1011 -1.0585  1.1447
  109OSM   C14F11304   2.641   0.044   9.008 -0.0237 -0.0684 -0.4023
  109OSM   H14F11305   2.586   0.126   8.957 -0.7258  0.7643  1.5824
  109OSM   H14G11306   2.574  -0.021   9.069  1.1145  1.8039  3.1360
  109OSM   C15F11307   2.706  -0.041   8.906  0.1902  0.6404  0.3705
  109OSM   H15F11308   2.769  -0.114   8.959 -1.3880 -0.1574  1.2126
  109OSM   H15G11309   2.785   0.014   8.850  1.3382 -0.5264  0.8137
  109OSM   C16F11310   2.610  -0.106   8.801 -0.5779 -0.2034  0.5394
  109OSM   H16F11311   2.570  -0.029   8.731  0.3607  1.7754  2.0572
  109OSM   H16G11312   2.528  -0.144   8.865 -1.8813  0.5758 -0.6014
  109OSM   C17F11313   2.674  -0.227   8.735 -0.9160 -0.1585  0.3892
  109OSM   H17F11314   2.763  -0.258   8.793 -1.1531  0.5216  1.1187
  109OSM   H17G11315   2.707  -0.196   8.633 -1.3403  2.0535  0.8847
  109OSM   C18F11316   2.578  -0.346   8.715  0.9837  0.9343 -0.3168
  109OSM   H18F11317   2.623  -0.448   8.711 -1.4055 -0.5783  4.2000
  109OSM   H18G11318   2.512  -0.339   8.626 -0.8266 -1.0240  0.7850
  109OSM   H18H11319   2.516  -0.355   8.806  0.9342  1.2700 -0.3157
  110OSM      N11320   3.983   5.593  11.125 -0.3759 -0.1017 -0.4229
  110OSM    C1511321   3.924   5.655  11.000  0.0247  0.0212 -0.4620
  110OSM   H15A11322   3.853   5.580  10.969 -1.5374  0.5951  1.4884
  110OSM   H15B11323   3.995   5.672  10.921  2.9490 -0.6554  1.8348
  110OSM   H15C11324   3.868   5.743  11.027 -1.1540  0.3417 -3.6012
  110OSM    C1411325   4.093   5.674  11.178  0.2428  0.2092  0.0438
  110OSM   H14A11326   4.150   5.625  11.255 -1.5283  1.1398  2.0202
  110OSM   H14B11327   4.061   5.771  11.212  2.0233  0.7051  0.3765
  110OSM   H14C11328   4.169   5.689  11.102  1.4589  0.3609  1.2544
  110OSM    C1311329   3.869   5.589  11.223 -0.0232  0.6006 -0.3222
  110OSM   H13A11330   3.891   5.523  11.305  3.0043  2.3539  0.4150
  110OSM   H13B11331   3.777   5.562  11.174  0.3534  1.9844 -1.8968
  110OSM   H13C11332   3.851   5.686  11.267  2.4402  1.4272 -0.9625
  110OSM    C1211333   4.031   5.457  11.092  0.1057  0.6002 -0.2573
  110OSM   H12A11334   3.938   5.411  11.063 -0.4306  0.1082  2.0453
  110OSM   H12B11335   4.075   5.405  11.176 -3.1237  0.1229  1.2579
  110OSM    C1111336   4.126   5.431  10.968 -0.5267 -0.2484 -0.0621
  110OSM   H11A11337   4.080   5.464  10.873 -4.5097 -0.6295  1.5429
  110OSM   H11B11338   4.142   5.321  10.967  1.3870 -0.0110 -0.0441
  110OSM      P11339   4.362   5.558  10.894  0.3789 -0.3814 -0.3360
  110OSM    O1311340   4.448   5.649  10.974  0.3693 -0.0820 -0.1356
  110OSM    O1411341   4.430   5.440  10.831 -0.2981  0.0146 -0.0749
  110OSM    O1111342   4.290   5.636  10.778  0.1543 -0.3692  0.1142
  110OSM    O1211343   4.252   5.499  10.990  0.6516  0.5332 -0.1181
  110OSM    C1S11344   4.356   5.714  10.684 -0.2922  0.3540 -0.2722
  110OSM    H1S11345   4.467   5.704  10.677 -0.2025  0.6679  0.5615
  110OSM    H1T11346   4.329   5.820  10.699  0.7878  0.5321  0.5273
  110OSM     NF11347   4.391   5.733  10.434  1.0609  0.3061  0.1129
  110OSM    HNF11348   4.344   5.806  10.385  0.0393  0.4498  1.2547
  110OSM    C2S11349   4.305   5.676  10.537  0.1104 -0.0871  0.3089
  110OSM    H2S11350   4.315   5.566  10.523  1.8640  0.0126  0.5227
  110OSM    C3S11351   4.157   5.707  10.506 -0.0501 -0.1300  0.8521
  110OSM    H3S11352   4.157   5.819  10.509  1.0607 -0.1172  0.9122
  110OSM     O311353   4.076   5.657  10.612  0.3146  0.2457 -0.2373
  110OSM    HO311354   4.118   5.672  10.698  0.0930  0.2982 -0.1375
  110OSM    C4S11355   4.111   5.651  10.378 -0.1726  0.3992 -0.3803
  110OSM    H4S11356   4.114   5.730  10.301 -5.2926  2.0712  0.7207
  110OSM    C5S11357   4.080   5.521  10.342 -0.8380  0.0188  1.3911
  110OSM    H5S11358   4.081   5.435  10.410  2.4961 -1.3434 -0.1547
  110OSM    C6S11359   4.042   5.482  10.203  1.0952  0.3663  0.1940
  110OSM    H6S11360   4.032   5.568  10.133 -1.0462  0.9080  1.0635
  110OSM    H6T11361   3.934   5.456  10.214  1.5505 -0.8443  2.3592
  110OSM    C7S11362   4.134   5.373  10.141  0.6055 -0.2559  0.7036
  110OSM    H7S11363   4.151   5.284  10.205 -3.3687 -1.8326 -0.1367
  110OSM    H7T11364   4.236   5.408  10.114 -0.1909 -0.2455 -2.6131
  110OSM    C8S11365   4.079   5.331   9.998 -0.7716 -0.1623  0.0044
  110OSM    H8S11366   3.968   5.328  10.001 -0.7365 -0.8633  1.8690
  110OSM    H8T11367   4.124   5.232   9.975  0.5391  0.7670 -1.7437
  110OSM    C9S11368   4.122   5.424   9.881 -0.1626  0.1509  0.7569
  110OSM    H9S11369   4.228   5.448   9.905  0.0924 -0.6464  0.4449
  110OSM    H9T11370   4.069   5.520   9.900 -0.9689 -0.2619  0.6073
  110OSM   C10S11371   4.099   5.371   9.740 -0.1618 -0.1122  0.7701
  110OSM   H10S11372   3.994   5.344   9.717  0.2632 -0.1077 -1.4800
  110OSM   H10T11373   4.154   5.274   9.740 -1.0737 -0.6498 -0.1147
  110OSM   C11S11374   4.150   5.471   9.635  0.2172  0.6850  1.0583
  110OSM   H11S11375   4.260   5.471   9.618 -0.2251  1.1156 -2.4353
  110OSM   H11T11376   4.124   5.574   9.666  0.5901  0.8497  0.8264
  110OSM   C12S11377   4.100   5.451   9.494 -0.0528  0.0265 -0.4945
  110OSM   H12S11378   4.152   5.525   9.429  0.9147 -2.7100 -3.1113
  110OSM   H12T11379   3.990   5.463   9.484  0.2138  1.6345 -1.9650
  110OSM   C13S11380   4.133   5.321   9.414  0.0008  0.1810 -0.3022
  110OSM   H13S11381   4.103   5.235   9.476  0.8815  0.2936  0.3072
  110OSM   H13T11382   4.241   5.302   9.397 -0.1051 -1.4073  0.6232
  110OSM   C14S11383   4.065   5.315   9.277  0.3619 -0.1695 -0.2999
  110OSM   H14S11384   3.962   5.351   9.300  0.0787 -1.8067  1.1667
  110OSM   H14T11385   4.053   5.206   9.256 -0.7648 -0.0985 -0.1067
  110OSM   C15S11386   4.127   5.388   9.156 -0.3216 -0.1611 -0.2921
  110OSM   H15S11387   4.145   5.492   9.189  0.9901 -0.4136 -0.1674
  110OSM   H15T11388   4.057   5.376   9.071  0.3401  0.3954 -0.9241
  110OSM   C16S11389   4.264   5.321   9.107  0.4295 -0.0224 -0.2178
  110OSM   H16S11390   4.249   5.213   9.128 -4.3487  0.9473  2.8320
  110OSM   H16T11391   4.342   5.357   9.177 -0.6326  0.9280  0.5114
  110OSM   C17S11392   4.293   5.347   8.960 -0.4922 -0.5847  0.0799
  110OSM   H17S11393   4.389   5.296   8.937  1.0832  1.0154  2.5754
  110OSM   H17T11394   4.309   5.453   8.932  0.2434 -0.5460  0.6125
  110OSM   C18S11395   4.184   5.285   8.866 -0.1995 -0.2652 -0.4923
  110OSM   H18S11396   4.235   5.254   8.772  1.2795  0.5924 -0.0076
  110OSM   H18T11397   4.102   5.358   8.850 -1.5200 -1.5723  0.0495
  110OSM   H18U11398   4.131   5.199   8.913 -1.0559  0.6107  0.1645
  110OSM    C1F11399   4.520   5.697  10.415  0.7314  0.6581 -1.0999
  110OSM     OF11400   4.558   5.600  10.479 -0.5041  0.5987  0.0300
  110OSM    C2F11401   4.600   5.792  10.337  0.1373 -0.2998 -0.2211
  110OSM    H2F11402   4.650   5.852  10.417  0.5126  0.1401 -0.7696
  110OSM    H2G11403   4.536   5.850  10.267 -0.5855 -2.4305 -1.3852
  110OSM    C3F11404   4.693   5.725  10.238 -1.0668 -0.3327  0.1803
  110OSM    H3F11405   4.762   5.661  10.297 -0.6170  1.5163  1.7416
  110OSM    H3G11406   4.755   5.807  10.197 -0.9387  0.5762  2.0627
  110OSM    C4F11407   4.633   5.649  10.122  0.1345 -0.7297 -0.9235
  110OSM    H4F11408   4.546   5.703  10.077  0.5369  1.0416  0.3193
  110OSM    H4G11409   4.585   5.554  10.154  0.4348 -0.6568 -0.2579
  110OSM    C5F11410   4.732   5.611  10.017  0.7710 -0.0480 -0.0541
  110OSM    H5F11411   4.818   5.562  10.068 -0.0167  0.6452  2.0334
  110OSM    H5G11412   4.774   5.698   9.962  0.1643  1.1280  1.2789
  110OSM    C6F11413   4.675   5.524   9.906 -0.2103  0.3636 -0.0409
  110OSM    H6F11414   4.623   5.435   9.947 -0.1803  1.1471  1.8459
  110OSM    H6G11415   4.761   5.478   9.853 -0.0924 -0.0442  0.4950
  110OSM    C7F11416   4.585   5.609   9.810 -0.0483 -0.3493  0.4037
  110OSM    H7F11417   4.659   5.666   9.750  0.1640 -0.1806  0.8181
  110OSM    H7G11418   4.514   5.676   9.862 -0.3855 -1.1429  0.9856
  110OSM    C8F11419   4.504   5.517   9.715 -0.1119  0.2568  0.6391
  110OSM    H8F11420   4.438   5.578   9.650 -0.1554 -1.3787 -0.9046
  110OSM    H8G11421   4.430   5.476   9.787  0.4088  2.9630  2.9210
  110OSM    C9F11422   4.587   5.417   9.643  0.2043 -0.0842  0.0925
  110OSM    H9F11423   4.639   5.339   9.700  2.7386  0.2178 -1.6520
  110OSM   C10F11424   4.576   5.402   9.509 -0.3734  0.1294  0.2435
  110OSM   H10F11425   4.626   5.311   9.474  0.4927  0.8594 -0.4784
  110OSM   C11F11426   4.502   5.477   9.402 -0.4863  0.2825  0.4986
  110OSM   H11F11427   4.425   5.551   9.433 -1.3017 -0.0803 -0.6127
  110OSM   H11G11428   4.434   5.414   9.341 -0.9155  1.4295 -0.2492
  110OSM   C12F11429   4.587   5.556   9.294 -0.2750  0.0515 -0.5256
  110OSM   H12F11430   4.655   5.481   9.248 -0.1816  0.8255 -1.7166
  110OSM   H12G11431   4.652   5.627   9.349 -2.9124  1.5950  0.7686
  110OSM   C13F11432   4.509   5.636   9.191 -0.0251 -0.4390  0.5495
  110OSM   H13F11433   4.435   5.695   9.249  0.5221 -0.0610  0.8704
  110OSM   H13G11434   4.440   5.568   9.136 -0.6076 -0.3719  1.1815
  110OSM   C14F11435   4.603   5.707   9.096  0.3913 -0.2233  0.2614
  110OSM   H14F11436   4.651   5.629   9.034  0.0051 -0.1800 -0.0958
  110OSM   H14G11437   4.675   5.771   9.152  0.8135 -2.1815  2.0399
  110OSM   C15F11438   4.537   5.807   9.006  0.6882 -0.4766  0.4560
  110OSM   H15F11439   4.467   5.882   9.050 -0.3148 -1.2199  0.1578
  110OSM   H15G11440   4.477   5.744   8.937  1.6879 -1.3993  0.4012
  110OSM   C16F11441   4.642   5.883   8.914  0.1326  0.4183  0.4016
  110OSM   H16F11442   4.681   5.970   8.970 -1.6230  1.2247  0.4469
  110OSM   H16G11443   4.593   5.936   8.829 -1.8176 -1.5492  0.1926
  110OSM   C17F11444   4.749   5.786   8.851  0.0934  0.0004 -0.5862
  110OSM   H17F11445   4.819   5.749   8.928  2.2756 -0.3973 -2.6589
  110OSM   H17G11446   4.814   5.841   8.780  0.1831 -1.6564 -1.8556
  110OSM   C18F11447   4.700   5.659   8.764  0.0262 -1.1230 -0.1464
  110OSM   H18F11448   4.630   5.594   8.821  0.9713 -0.7681  1.4920
  110OSM   H18G11449   4.786   5.605   8.720  0.6080  0.7422 -1.4155
  110OSM   H18H11450   4.642   5.706   8.681  3.2861  1.0166 -1.4145
  111OSM      N11451   4.639   4.132  11.249 -0.0457  0.3474 -0.4462
  111OSM    C1511452   4.682   4.045  11.360 -0.1354  0.4460 -0.0232
  111OSM   H15A11453   4.743   4.093  11.435  1.4206 -1.3414 -0.0549
  111OSM   H15B11454   4.745   3.966  11.322 -1.0914  0.3650 -1.5212
  111OSM   H15C11455   4.590   4.014  11.407 -0.8770  0.2351 -1.5573
  111OSM    C1411456   4.532   4.215  11.310  0.2535 -0.1807  0.5887
  111OSM   H14A11457   4.456   4.154  11.355 -0.6865 -0.8048 -1.7193
  111OSM   H14B11458   4.493   4.273  11.228 -0.4552 -2.6812 -0.9344
  111OSM   H14C11459   4.571   4.282  11.386  1.3972 -0.0680 -0.0719
  111OSM    C1311460   4.747   4.219  11.203 -0.0169 -0.5084  0.3259
  111OSM   H13A11461   4.799   4.245  11.294 -1.2546 -1.1252  1.2294
  111OSM   H13B11462   4.716   4.306  11.146  1.4039  1.1993  2.0171
  111OSM   H13C11463   4.815   4.176  11.131  1.9808  1.9253  0.5993
  111OSM    C1211464   4.585   4.055  11.131 -0.3237 -0.1654 -0.1123
  111OSM   H12A11465   4.521   3.978  11.172 -0.6907  0.9243  1.4450
  111OSM   H12B11466   4.670   4.008  11.085 -0.2757  1.4715 -1.8059
  111OSM    C1111467   4.518   4.145  11.015  0.0465 -0.1497  0.2208
  111OSM   H11A11468   4.506   4.077  10.928  1.4609 -0.4620  0.2379
  111OSM   H11B11469   4.586   4.229  10.990 -0.6070  0.0602 -0.9211
  111OSM      P11470   4.266   4.121  11.071  0.6953  0.3839 -0.0523
  111OSM    O1311471   4.279   3.981  11.111  0.2156 -0.1039  0.2102
  111OSM    O1411472   4.163   4.212  11.133 -0.3171 -0.8799  0.6551
  111OSM    O1111473   4.234   4.112  10.924  0.1590 -0.4061 -0.4783
  111OSM    O1211474   4.403   4.203  11.058  0.4876 -0.0783 -0.0171
  111OSM    C1S11475   4.239   4.220  10.829 -0.5113  0.6778  0.1617
  111OSM    H1S11476   4.344   4.253  10.815 -0.7312  1.0744 -0.5900
  111OSM    H1T11477   4.177   4.306  10.861 -0.9443 -0.0974  1.5045
  111OSM     NF11478   4.214   4.266  10.577  0.7558  0.0314 -0.2793
  111OSM    HNF11479   4.132   4.277  10.521  2.0488 -0.9439 -2.4991
  111OSM    C2S11480   4.202   4.165  10.686 -0.3929  0.0072  0.2210
  111OSM    H2S11481   4.279   4.090  10.657  0.5726  1.4652 -1.1397
  111OSM    C3S11482   4.062   4.092  10.682 -0.5148 -1.0781  0.5566
  111OSM    H3S11483   3.986   4.172  10.668  1.6538  1.1168  0.4997
  111OSM     O311484   4.017   4.023  10.797 -0.3917 -0.1614  0.0495
  111OSM    HO311485   4.086   4.055  10.856 -1.7400  1.1638  1.0074
  111OSM    C4S11486   4.050   4.001  10.566  0.3020  0.0699 -0.7973
  111OSM    H4S11487   4.115   3.913  10.570  0.9967  0.5963 -0.1630
  111OSM    C5S11488   3.973   4.012  10.458  0.2106  0.0830  0.8480
  111OSM    H5S11489   3.886   4.078  10.466  0.5762  0.6951 -0.0648
  111OSM    C6S11490   3.965   3.907  10.352 -0.2205 -0.2000  0.6400
  111OSM    H6S11491   3.868   3.930  10.302  1.7243  2.4739 -2.3360
  111OSM    H6T11492   3.959   3.805  10.393 -1.5073 -0.0454  0.8900
  111OSM    C7S11493   4.086   3.925  10.254 -0.0220  0.5435 -0.3357
  111OSM    H7S11494   4.177   3.898  10.313 -1.6272 -0.3866  1.8323
  111OSM    H7T11495   4.082   4.029  10.217 -1.7763  0.6271  0.0204
  111OSM    C8S11496   4.081   3.827  10.131 -0.1861 -0.3005 -0.2554
  111OSM    H8S11497   4.059   3.724  10.166  2.8976 -1.3910 -1.1632
  111OSM    H8T11498   4.185   3.825  10.091  0.7295 -1.3386  1.9986
  111OSM    C9S11499   3.991   3.893  10.022 -0.0705 -0.1249 -0.9219
  111OSM    H9S11500   4.034   3.985   9.978  0.1681 -0.6989 -1.9174
  111OSM    H9T11501   3.897   3.915  10.077  0.0402  1.2032 -1.2279
  111OSM   C10S11502   3.945   3.793   9.915  0.3141 -0.2615 -0.3250
  111OSM   H10S11503   3.867   3.840   9.850 -1.6536 -1.7668  0.8171
  111OSM   H10T11504   3.903   3.703   9.964  0.1604  0.8500  1.6683
  111OSM   C11S11505   4.058   3.746   9.818 -0.1461 -0.4800  1.0935
  111OSM   H11S11506   4.114   3.663   9.865 -0.1321 -1.6668 -0.8794
  111OSM   H11T11507   4.135   3.823   9.796  0.2140 -0.9565  0.6580
  111OSM   C12S11508   4.003   3.706   9.677 -0.1618  0.2798  1.4269
  111OSM   H12S11509   3.962   3.794   9.624 -1.5334 -0.8792  0.4691
  111OSM   H12T11510   3.921   3.632   9.691  0.3509 -0.4247  0.8237
  111OSM   C13S11511   4.124   3.644   9.596  0.3071 -0.5573 -0.1004
  111OSM   H13S11512   4.132   3.537   9.627 -1.3297 -0.2822  1.4402
  111OSM   H13T11513   4.223   3.689   9.618  1.3808 -2.3324 -1.0559
  111OSM   C14S11514   4.096   3.632   9.443 -0.2000 -0.2073 -0.1389
  111OSM   H14S11515   4.082   3.731   9.394 -2.1948 -0.5046 -0.2393
  111OSM   H14T11516   4.005   3.571   9.423  1.1527 -3.1644  2.0024
  111OSM   C15S11517   4.219   3.560   9.381  0.6979 -0.4777 -0.0765
  111OSM   H15S11518   4.230   3.467   9.441  2.1633 -0.0486  0.3662
  111OSM   H15T11519   4.313   3.618   9.394 -0.6185  1.4014  1.7234
  111OSM   C16S11520   4.209   3.536   9.228 -0.1732 -0.1809  0.4400
  111OSM   H16S11521   4.143   3.448   9.209  1.4417 -1.4075  0.2062
  111OSM   H16T11522   4.309   3.501   9.195 -0.8203 -0.8094 -0.9790
  111OSM   C17S11523   4.172   3.659   9.151 -0.1831  0.0530 -0.3729
  111OSM   H17S11524   4.215   3.752   9.194 -0.8963  0.6068 -0.8418
  111OSM   H17T11525   4.064   3.678   9.134 -0.1849  1.3663  0.9108
  111OSM   C18S11526   4.225   3.643   9.006 -0.0693 -0.3630 -0.1044
  111OSM   H18S11527   4.201   3.728   8.939 -0.8545 -0.4436  0.0636
  111OSM   H18T11528   4.185   3.555   8.950 -1.2310  0.9188 -1.3576
  111OSM   H18U11529   4.336   3.649   8.997 -0.1597 -0.1802 -1.1794
  111OSM    C1F11530   4.315   4.331  10.543 -0.1534 -0.0064 -0.4945
  111OSM     OF11531   4.421   4.322  10.604 -0.7783  0.1041  0.2205
  111OSM    C2F11532   4.299   4.412  10.425 -0.0533 -0.3287 -0.3506
  111OSM    H2F11533   4.281   4.512  10.470  0.3613  0.0420 -0.9898
  111OSM    H2G11534   4.215   4.375  10.363  0.1616 -2.2196  0.4339
  111OSM    C3F11535   4.426   4.410  10.335  0.2278  0.0391 -0.7925
  111OSM    H3F11536   4.510   4.453  10.394 -0.9416 -0.3716  1.2487
  111OSM    H3G11537   4.418   4.492  10.260 -0.0739  0.1388 -0.6546
  111OSM    C4F11538   4.469   4.277  10.272 -0.5740 -0.1629 -0.1789
  111OSM    H4F11539   4.474   4.197  10.349  1.6986 -0.9430 -1.0312
  111OSM    H4G11540   4.578   4.280  10.252 -0.8306  1.8309 -1.6093
  111OSM    C5F11541   4.415   4.238  10.138  0.4357  0.1377 -0.4006
  111OSM    H5F11542   4.439   4.329  10.079  0.7106  0.3274 -0.0015
  111OSM    H5G11543   4.307   4.213  10.133  0.1344  1.2077  0.4010
  111OSM    C6F11544   4.495   4.122  10.075 -0.1706  0.0951  0.1990
  111OSM    H6F11545   4.499   4.029  10.134  1.7362  0.1477  0.1980
  111OSM    H6G11546   4.599   4.156  10.055 -0.8172  0.7857 -2.3605
  111OSM    C7F11547   4.442   4.081   9.944 -0.3574 -0.2057  0.3172
  111OSM    H7F11548   4.426   4.170   9.879  0.9726  0.2177  0.5464
  111OSM    H7G11549   4.346   4.026   9.954 -1.3725  1.1420 -1.4220
  111OSM    C8F11550   4.539   3.981   9.877 -0.0317 -0.1838  0.2587
  111OSM    H8F11551   4.555   3.889   9.938  1.5873 -0.3710 -0.3784
  111OSM    H8G11552   4.639   4.026   9.855  0.1594 -1.2884 -1.2947
  111OSM    C9F11553   4.472   3.928   9.749 -0.8495 -0.1180  0.5205
  111OSM    H9F11554   4.382   3.865   9.756 -0.8901 -0.1327 -0.0898
  111OSM   C10F11555   4.510   3.934   9.617 -0.2637 -0.0767  0.0899
  111OSM   H10F11556   4.446   3.878   9.546  0.8898 -0.3111 -0.7927
  111OSM   C11F11557   4.627   4.002   9.558 -0.3382 -0.2939  0.0347
  111OSM   H11F11558   4.702   3.924   9.531 -0.6221  0.5448 -3.8186
  111OSM   H11G11559   4.678   4.073   9.627 -0.7802  2.8428 -2.5872
  111OSM   C12F11560   4.604   4.071   9.421 -0.9955 -0.6996 -0.3955
  111OSM   H12F11561   4.701   4.109   9.384 -1.2636  0.8238  0.3797
  111OSM   H12G11562   4.543   4.164   9.430  1.1797  0.7872 -0.4743
  111OSM   C13F11563   4.549   3.978   9.308 -0.0385  0.1112 -0.0024
  111OSM   H13F11564   4.446   3.949   9.342  0.2056  1.1798  1.7911
  111OSM   H13G11565   4.611   3.886   9.308 -1.2264 -0.7756  2.3641
  111OSM   C14F11566   4.530   4.034   9.169  0.2036  0.4341  0.8230
  111OSM   H14F11567   4.630   4.031   9.122 -0.2146  1.9087 -0.2094
  111OSM   H14G11568   4.484   4.135   9.167 -3.1011 -0.9439 -0.2109
  111OSM   C15F11569   4.448   3.945   9.086 -0.0740 -0.0108 -0.4756
  111OSM   H15F11570   4.351   3.933   9.139 -0.0674 -0.4881 -0.5687
  111OSM   H15G11571   4.494   3.845   9.077 -0.1805  0.0256 -1.5299
  111OSM   C16F11572   4.442   3.990   8.935 -0.0964  0.4006  0.4715
  111OSM   H16F11573   4.384   4.084   8.923  1.5042  1.4565  0.7366
  111OSM   H16G11574   4.379   3.918   8.878  3.7858 -1.9991 -1.1535
  111OSM   C17F11575   4.578   3.997   8.872 -0.4425  0.4105  1.4006
  111OSM   H17F11576   4.649   3.921   8.911 -0.0896 -1.2879 -2.1386
  111OSM   H17G11577   4.615   4.098   8.901  0.4456  0.8154 -0.8992
  111OSM   C18F11578   4.583   3.985   8.716 -0.3659  0.4065  1.0166
  111OSM   H18F11579   4.518   4.061   8.669  0.6328  2.1740  2.3547
  111OSM   H18G11580   4.546   3.889   8.673  1.1898 -0.3151  1.1893
  111OSM   H18H11581   4.684   4.001   8.672 -1.2411  3.4565 -0.1123
  112OSM      N11582   5.736   0.281  11.606  0.7843 -0.0937  0.2740
  112OSM    C1511583   5.742   0.425  11.557 -0.3877 -0.5131  0.0553
  112OSM   H15A11584   5.644   0.470  11.551  0.6694  1.9295  0.3199
  112OSM   H15B11585   5.788   0.423  11.459  1.3674 -0.2271  0.8541
  112OSM   H15C11586   5.811   0.491  11.606  0.4603  0.3288 -2.1225
  112OSM    C1411587   5.873   0.234  11.605  0.0854  0.6093 -0.1517
  112OSM   H14A11588   5.884   0.137  11.652  1.3689  2.0915  2.8464
  112OSM   H14B11589   5.942   0.290  11.666 -0.0698  0.4146  0.2123
  112OSM   H14C11590   5.909   0.227  11.504 -1.5769  0.9999 -0.8050
  112OSM    C1311591   5.671   0.275  11.745  0.3092  0.2384  0.1106
  112OSM   H13A11592   5.748   0.311  11.811  1.1132  1.2529 -1.3222
  112OSM   H13B11593   5.643   0.174  11.774  0.8538  0.5606  1.8764
  112OSM   H13C11594   5.584   0.338  11.752 -1.3189 -1.6921 -1.3704
  112OSM    C1211595   5.647   0.204  11.507 -0.1028 -0.0984 -0.4308
  112OSM   H12A11596   5.548   0.242  11.527  0.2705  0.1116  1.1517
  112OSM   H12B11597   5.647   0.097  11.524 -4.1531 -0.4317 -1.4537
  112OSM    C1111598   5.679   0.214  11.354  0.8489 -0.1597  0.6716
  112OSM   H11A11599   5.658   0.318  11.320 -1.2520 -0.8254 -0.2065
  112OSM   H11B11600   5.615   0.142  11.300  2.8255 -2.2104  0.9215
  112OSM      P11601   5.861   0.051  11.255  0.0678  0.0574 -0.2773
  112OSM    O1311602   5.998   0.082  11.210 -0.1756 -0.5445 -0.5517
  112OSM    O1411603   5.849  -0.061  11.352 -0.4748  0.1108 -0.0638
  112OSM    O1111604   5.758   0.044  11.134  0.1773 -0.2955  0.4190
  112OSM    O1211605   5.812   0.184  11.329  0.0621  0.3004  0.3986
  112OSM    C1S11606   5.795   0.116  11.016 -0.3752 -0.4866  0.2665
  112OSM    H1S11607   5.904   0.105  10.998 -0.3024  0.8537 -0.2154
  112OSM    H1T11608   5.770   0.224  11.023 -0.8484 -0.6141  0.6234
  112OSM     NF11609   5.769   0.119  10.758  0.3332 -0.2325 -0.1386
  112OSM    HNF11610   5.699   0.172  10.711  1.4677  1.8140  0.3277
  112OSM    C2S11611   5.723   0.052  10.884 -0.1293 -0.2131 -0.6806
  112OSM    H2S11612   5.763  -0.051  10.877  0.2203  0.0062 -2.3111
  112OSM    C3S11613   5.572   0.059  10.902 -0.1581  1.1536 -0.3087
  112OSM    H3S11614   5.531   0.162  10.898 -2.3711  0.3056 -0.7344
  112OSM     O311615   5.524  -0.013  11.019 -0.1256 -0.0237 -0.3069
  112OSM    HO311616   5.606  -0.032  11.065 -0.4960  1.2954  0.9803
  112OSM    C4S11617   5.507  -0.012  10.789 -0.1455  0.1506  0.6483
  112OSM    H4S11618   5.552  -0.106  10.752 -0.4636  0.2072  0.1117
  112OSM    C5S11619   5.397   0.037  10.719 -0.2115 -0.0216 -0.4266
  112OSM    H5S11620   5.347   0.129  10.753  2.7645  1.3189  0.7348
  112OSM    C6S11621   5.324  -0.037  10.609  0.0789  0.6404  0.1836
  112OSM    H6S11622   5.216  -0.015  10.620 -0.2590 -0.5219 -0.6410
  112OSM    H6T11623   5.333  -0.147  10.618 -0.6174  0.5764  0.1158
  112OSM    C7S11624   5.372   0.004  10.462  0.2895  0.4380  0.2308
  112OSM    H7S11625   5.464  -0.052  10.432 -0.8494 -0.2810 -2.2429
  112OSM    H7T11626   5.393   0.113  10.463  2.0387  0.1522 -0.4392
  112OSM    C8S11627   5.269  -0.026  10.354 -0.4851  0.0194 -0.1727
  112OSM    H8S11628   5.186   0.037  10.393 -0.2439  0.0647  0.2757
  112OSM    H8T11629   5.239  -0.133  10.350 -0.2503 -0.0129 -1.0977
  112OSM    C9S11630   5.311   0.016  10.211  0.4437 -0.0365 -0.4763
  112OSM    H9S11631   5.412   0.062  10.223  0.4091 -0.2150  0.6057
  112OSM    H9T11632   5.243   0.097  10.178 -1.2831 -0.6626  1.3426
  112OSM   C10S11633   5.319  -0.091  10.114  0.4223 -0.0656  1.4678
  112OSM   H10S11634   5.229  -0.156  10.115 -0.8207  1.4982 -0.3476
  112OSM   H10T11635   5.408  -0.153  10.137  1.8391  2.0122  1.8522
  112OSM   C11S11636   5.321  -0.031   9.967 -0.2914 -0.6229  0.4249
  112OSM   H11S11637   5.246   0.051   9.955  2.0087  1.8154  1.7561
  112OSM   H11T11638   5.301  -0.115   9.896  1.1970 -1.2666  0.7453
  112OSM   C12S11639   5.449   0.038   9.933 -0.2372 -0.4239  0.3871
  112OSM   H12S11640   5.538  -0.026   9.947  0.4421  0.4278  0.0130
  112OSM   H12T11641   5.462   0.127   9.999  3.7139 -0.1971 -0.4745
  112OSM   C13S11642   5.435   0.083   9.788 -0.4834  0.2155 -0.0576
  112OSM   H13S11643   5.521   0.152   9.775 -0.4756  0.1239 -0.4834
  112OSM   H13T11644   5.343   0.144   9.782 -0.0076  1.1664  1.4926
  112OSM   C14S11645   5.420  -0.023   9.674  0.5900  0.4698 -0.4812
  112OSM   H14S11646   5.321  -0.071   9.686  0.8781  0.2104  1.1033
  112OSM   H14T11647   5.494  -0.105   9.685 -0.6186 -0.8853 -2.1327
  112OSM   C15S11648   5.435   0.043   9.536  0.5597  1.1956  0.1405
  112OSM   H15S11649   5.521   0.113   9.541  0.2686  1.6460 -1.0206
  112OSM   H15T11650   5.346   0.104   9.513 -0.2032  1.5827  3.5564
  112OSM   C16S11651   5.457  -0.058   9.421  0.0760 -0.1984 -0.7433
  112OSM   H16S11652   5.510  -0.148   9.458  0.6956  0.3851 -0.1881
  112OSM   H16T11653   5.535  -0.001   9.367 -0.1695  0.5960 -0.2791
  112OSM   C17S11654   5.336  -0.087   9.329 -0.4196  0.0803 -0.0337
  112OSM   H17S11655   5.275   0.004   9.312  1.3616  1.6391  1.5648
  112OSM   H17T11656   5.275  -0.173   9.365  1.0122 -1.5894 -1.3906
  112OSM   C18S11657   5.384  -0.141   9.200  0.2108 -0.8205  0.1724
  112OSM   H18S11658   5.304  -0.176   9.131 -0.1291 -2.4841  1.3293
  112OSM   H18T11659   5.429  -0.236   9.237 -2.0797 -1.9244  0.3337
  112OSM   H18U11660   5.463  -0.088   9.143 -0.0002 -1.6690 -0.9332
  112OSM    C1F11661   5.897   0.134  10.704 -0.7923  0.6375 -0.7676
  112OSM     OF11662   5.993   0.082  10.762 -0.3808 -0.6230 -0.1924
  112OSM    C2F11663   5.918   0.216  10.583 -0.0638  0.2089 -0.0327
  112OSM    H2F11664   5.926   0.323  10.610  0.2722  0.3114 -0.5371
  112OSM    H2G11665   5.824   0.203  10.526 -0.3926 -0.8024  0.7115
  112OSM    C3F11666   6.049   0.173  10.516 -0.2752 -0.1168 -0.5655
  112OSM    H3F11667   6.056   0.063  10.520 -1.3525 -0.1806 -0.1852
  112OSM    H3G11668   6.129   0.220  10.577 -1.4163  0.7175  0.3264
  112OSM    C4F11669   6.060   0.224  10.370 -0.4810 -0.1439 -0.1076
  112OSM    H4F11670   6.028   0.331  10.361 -0.7096 -0.3133 -1.5280
  112OSM    H4G11671   5.979   0.166  10.321 -0.4954 -0.1695 -0.0542
  112OSM    C5F11672   6.201   0.195  10.307 -0.2011 -0.4123 -0.7663
  112OSM    H5F11673   6.223   0.093  10.347  1.5285  0.3831  0.4234
  112OSM    H5G11674   6.281   0.262  10.343  0.9805 -0.9186 -2.3229
  112OSM    C6F11675   6.200   0.184  10.151 -0.4867  0.3464 -0.2385
  112OSM    H6F11676   6.159   0.279  10.112 -0.0997  0.2771 -0.8382
  112OSM    H6G11677   6.127   0.103  10.129 -1.8493  1.0214  1.5597
  112OSM    C7F11678   6.340   0.151  10.103  0.4785  0.3077  0.2956
  112OSM    H7F11679   6.384   0.060  10.148  1.3344  0.9147  0.7177
  112OSM    H7G11680   6.407   0.237  10.125 -0.8466  1.8729 -1.4321
  112OSM    C8F11681   6.353   0.145   9.950  0.1628 -0.4402 -0.2683
  112OSM    H8F11682   6.313   0.239   9.906 -0.8614 -1.0704 -0.7333
  112OSM    H8G11683   6.291   0.069   9.898  0.3246 -0.3691 -0.5656
  112OSM    C9F11684   6.499   0.122   9.917  0.3857  0.9062 -0.5800
  112OSM    H9F11685   6.557   0.068   9.992 -0.2620 -2.9419 -2.5870
  112OSM   C10F11686   6.556   0.156   9.802  0.2064  0.2629 -0.3083
  112OSM   H10F11687   6.659   0.127   9.776  1.3531  2.4065  1.5344
  112OSM   C11F11688   6.475   0.217   9.688  0.1853  0.3748  0.0091
  112OSM   H11F11689   6.539   0.284   9.626  0.8213  1.4766  1.7419
  112OSM   H11G11690   6.389   0.278   9.723 -0.5120 -1.5308  1.8080
  112OSM   C12F11691   6.434   0.113   9.590 -0.0402  0.0543  0.0989
  112OSM   H12F11692   6.376   0.036   9.644  0.1509 -1.3890 -1.6596
  112OSM   H12G11693   6.525   0.059   9.553  0.1919 -0.6126  1.5702
  112OSM   C13F11694   6.359   0.169   9.469 -0.1110 -0.2967 -0.3753
  112OSM   H13F11695   6.405   0.266   9.438 -1.1195  0.2561 -0.1867
  112OSM   H13G11696   6.254   0.186   9.502 -0.3848 -0.9663 -0.8874
  112OSM   C14F11697   6.345   0.068   9.355 -0.2157 -0.3708  0.2763
  112OSM   H14F11698   6.321  -0.030   9.402 -0.9396 -0.2829  0.0989
  112OSM   H14G11699   6.441   0.052   9.301  0.1112  1.6521  0.2106
  112OSM   C15F11700   6.236   0.099   9.245 -0.6377 -0.2795 -0.4141
  112OSM   H15F11701   6.143   0.111   9.303 -0.4757 -0.6289 -0.0748
  112OSM   H15G11702   6.220   0.004   9.189 -0.7946 -0.5446  0.0831
  112OSM   C16F11703   6.276   0.220   9.163 -0.1777  0.1552 -0.3563
  112OSM   H16F11704   6.361   0.197   9.095  0.9001 -0.2065  1.0691
  112OSM   H16G11705   6.316   0.299   9.230  1.5212 -1.0154  0.0600
  112OSM   C17F11706   6.161   0.267   9.067 -0.4727  0.4469 -0.9022
  112OSM   H17F11707   6.071   0.237   9.124  0.9427 -1.7336  0.3182
  112OSM   H17G11708   6.149   0.199   8.980  1.2540 -0.6485 -0.3412
  112OSM   C18F11709   6.179   0.414   9.028  0.5068  0.2625  0.2875
  112OSM   H18F11710   6.097   0.438   8.958  0.1051  0.2293  0.7399
  112OSM   H18G11711   6.284   0.441   9.003  1.6429 -0.6294  3.4637
  112OSM   H18H11712   6.149   0.473   9.117  2.9316  3.0482 -0.6032
  113OSM      N11713   0.905   3.119  10.814 -0.4764  0.8834 -0.3717
  113OSM    C1511714   0.990   3.002  10.860  0.4321 -0.1089 -0.9501
  113OSM   H15A11715   0.958   2.954  10.952  0.2982 -2.1434 -1.9838
  113OSM   H15B11716   1.092   3.038  10.869  1.0010 -1.3749 -1.8683
  113OSM   H15C11717   0.997   2.924  10.785 -1.9216 -0.6205 -0.6952
  113OSM    C1411718   0.942   3.161  10.682  0.1507  0.3618 -0.0833
  113OSM   H14A11719   0.870   3.217  10.624 -0.5686 -0.6154 -0.1713
  113OSM   H14B11720   0.963   3.072  10.624 -0.9951  0.7071 -1.0951
  113OSM   H14C11721   1.030   3.224  10.681  0.5259 -0.1001 -2.2393
  113OSM    C1311722   0.759   3.087  10.833 -0.0936 -0.2120 -0.7125
  113OSM   H13A11723   0.694   3.166  10.800  0.4150 -0.4605 -2.4032
  113OSM   H13B11724   0.737   3.061  10.935  2.8099 -2.5945 -0.5514
  113OSM   H13C11725   0.729   3.000  10.775 -1.6678 -0.5259  0.4970
  113OSM    C1211726   0.925   3.239  10.913  0.0648 -0.4752 -0.4305
  113OSM   H12A11727   0.916   3.199  11.013  0.9151 -1.6267 -0.7972
  113OSM   H12B11728   0.852   3.318  10.901 -0.2804 -0.6284  0.5472
  113OSM    C1111729   1.059   3.317  10.913  0.4657  0.9375  0.0346
  113OSM   H11A11730   1.056   3.400  10.988 -0.7470  2.3421 -1.4988
  113OSM   H11B11731   1.071   3.347  10.807 -0.1743 -0.3172 -0.4152
  113OSM      P11732   1.315   3.296  10.970 -0.3511 -0.1490 -0.0063
  113OSM    O1311733   1.320   3.440  10.935  0.3063 -0.1374 -0.2240
  113OSM    O1411734   1.377   3.249  11.093 -0.1628  0.0750 -0.4140
  113OSM    O1111735   1.401   3.227  10.854  0.0513 -0.2062 -0.0147
  113OSM    O1211736   1.165   3.232  10.962  0.0441 -0.4223  0.4792
  113OSM    C1S11737   1.346   3.170  10.734  0.2436 -0.4947 -0.5112
  113OSM    H1S11738   1.236   3.183  10.732  0.0735 -1.8675 -0.8046
  113OSM    H1T11739   1.358   3.060  10.742 -0.7346 -0.4755  2.9627
  113OSM     NF11740   1.321   3.211  10.481 -0.2628 -0.1638  0.5828
  113OSM    HNF11741   1.346   3.137  10.419 -1.2787  0.1237 -0.2000
  113OSM    C2S11742   1.403   3.233  10.602 -0.2533 -0.4142  0.5153
  113OSM    H2S11743   1.413   3.342  10.620 -1.5200 -0.2519  0.3568
  113OSM    C3S11744   1.554   3.189  10.579  0.3494 -0.3875  0.3471
  113OSM    H3S11745   1.553   3.081  10.556 -0.3027 -0.4232  0.5045
  113OSM     O311746   1.641   3.207  10.696  0.1625  0.3528 -0.0655
  113OSM    HO311747   1.582   3.244  10.762 -0.8512 -0.7338 -0.3328
  113OSM    C4S11748   1.612   3.263  10.466  0.5616 -0.0289 -0.2896
  113OSM    H4S11749   1.607   3.205  10.372  2.4050 -1.4223  0.4103
  113OSM    C5S11750   1.669   3.384  10.464 -0.8743 -0.8794 -0.4112
  113OSM    H5S11751   1.672   3.449  10.553  2.1062 -0.5197 -0.6918
  113OSM    C6S11752   1.720   3.441  10.337  0.7040 -0.3068 -0.3832
  113OSM    H6S11753   1.825   3.476  10.354  0.5321 -1.1941  3.4904
  113OSM    H6T11754   1.656   3.525  10.303 -0.1562  0.0191  1.8276
  113OSM    C7S11755   1.741   3.346  10.214  0.9586 -0.3154  0.2197
  113OSM    H7S11756   1.645   3.317  10.166  1.2101  0.0934 -0.5339
  113OSM    H7T11757   1.790   3.250  10.241 -1.1479 -1.5267 -0.0257
  113OSM    C8S11758   1.840   3.409  10.110 -0.5793 -0.8537  0.2708
  113OSM    H8S11759   1.934   3.409  10.170  0.7969 -0.8249 -1.7782
  113OSM    H8T11760   1.823   3.515  10.081  0.4990 -0.8187 -0.2915
  113OSM    C9S11761   1.868   3.322   9.988 -0.3020 -0.0825 -0.2927
  113OSM    H9S11762   1.771   3.301   9.939  0.3020  2.3005 -2.7262
  113OSM    H9T11763   1.923   3.231  10.021  1.9643  0.3816 -2.5000
  113OSM   C10S11764   1.969   3.372   9.880 -0.1491  0.2063 -0.2225
  113OSM   H10S11765   2.072   3.387   9.918  1.1062 -2.0834 -2.3966
  113OSM   H10T11766   1.937   3.474   9.849  1.5779  0.0911 -2.6361
  113OSM   C11S11767   1.966   3.301   9.739 -0.3352  0.2039 -0.2497
  113OSM   H11S11768   1.862   3.265   9.726 -0.0966 -2.0479  2.8995
  113OSM   H11T11769   2.021   3.205   9.750  1.9807  1.6250  1.3480
  113OSM   C12S11770   2.028   3.382   9.615 -0.8233  0.2742 -0.1288
  113OSM   H12S11771   1.975   3.479   9.609 -2.1873 -0.5204 -1.7305
  113OSM   H12T11772   1.989   3.322   9.530 -1.3564 -0.6004  0.7117
  113OSM   C13S11773   2.178   3.400   9.607 -0.4217 -0.3234 -0.1879
  113OSM   H13S11774   2.194   3.434   9.711  1.6322 -4.4560  1.0504
  113OSM   H13T11775   2.211   3.471   9.529  0.7004 -0.1507  0.4336
  113OSM   C14S11776   2.276   3.291   9.585 -0.2322  0.8183 -0.0872
  113OSM   H14S11777   2.278   3.250   9.481  0.2639 -0.5205  0.4277
  113OSM   H14T11778   2.239   3.206   9.647  0.6181 -1.0105 -1.9519
  113OSM   C15S11779   2.416   3.330   9.634 -0.4729 -0.5622 -0.2981
  113OSM   H15S11780   2.407   3.359   9.741 -1.1532  0.3921 -0.5960
  113OSM   H15T11781   2.450   3.428   9.594 -1.7246 -0.0787 -0.2480
  113OSM   C16S11782   2.517   3.220   9.624 -0.1050 -0.5899  0.0764
  113OSM   H16S11783   2.561   3.225   9.522  2.7601 -0.5848  1.2156
  113OSM   H16T11784   2.484   3.116   9.645  0.4127 -1.5902 -3.3836
  113OSM   C17S11785   2.642   3.244   9.719  0.3426  0.5091 -0.9366
  113OSM   H17S11786   2.715   3.175   9.671  0.1923 -1.3725  1.3409
  113OSM   H17T11787   2.625   3.208   9.822  0.2870 -0.4319 -1.2629
  113OSM   C18S11788   2.697   3.391   9.733  0.9923 -0.4609  0.3858
  113OSM   H18S11789   2.732   3.428   9.634 -1.2540 -0.8019 -0.6070
  113OSM   H18T11790   2.781   3.406   9.804  2.4335  2.8434 -1.7425
  113OSM   H18U11791   2.607   3.452   9.755  1.3684  0.5444 -0.7868
  113OSM    C1F11792   1.200   3.263  10.475  0.1067 -1.1124  0.2331
  113OSM     OF11793   1.166   3.343  10.565  0.5664  0.6800  0.1530
  113OSM    C2F11794   1.109   3.242  10.346 -0.4519  0.6722 -0.0711
  113OSM    H2F11795   1.146   3.307  10.264 -0.3643  0.4874 -0.1796
  113OSM    H2G11796   1.008   3.283  10.367 -1.0438  0.4847 -2.2549
  113OSM    C3F11797   1.089   3.097  10.302 -0.2584  0.1697 -0.2176
  113OSM    H3F11798   1.007   3.067  10.371 -0.8294  0.1474 -0.9046
  113OSM    H3G11799   1.182   3.036  10.313 -0.4058  0.0935  0.7066
  113OSM    C4F11800   1.014   3.076  10.168 -0.4082  0.8916 -0.4046
  113OSM    H4F11801   0.930   3.148  10.156 -0.9770  0.3163  0.0951
  113OSM    H4G11802   0.981   2.970  10.174  2.6749 -0.0831  1.2192
  113OSM    C5F11803   1.114   3.095  10.058 -0.2013 -0.2082 -0.8474
  113OSM    H5F11804   1.177   3.005  10.073 -2.5223 -2.0444 -1.5237
  113OSM    H5G11805   1.178   3.185  10.072 -0.0613 -0.2366 -1.2804
  113OSM    C6F11806   1.048   3.098   9.916  0.1124  0.6916  0.0900
  113OSM    H6F11807   0.971   3.177   9.916  0.0135  0.7663 -3.2005
  113OSM    H6G11808   1.006   2.998   9.889  2.0575 -0.1661  0.0182
  113OSM    C7F11809   1.156   3.133   9.812 -0.1197  0.4758  0.5137
  113OSM    H7F11810   1.255   3.085   9.822 -0.8389 -0.9428  1.0042
  113OSM    H7G11811   1.179   3.239   9.837 -0.7241  0.2832  1.9862
  113OSM    C8F11812   1.098   3.134   9.674  0.3729 -0.2618 -0.4840
  113OSM    H8F11813   1.003   3.191   9.674  1.1592  1.0968 -1.6777
  113OSM    H8G11814   1.077   3.032   9.635  1.4624  0.0593 -2.0148
  113OSM    C9F11815   1.194   3.201   9.577 -0.3802 -0.2502 -0.5446
  113OSM    H9F11816   1.239   3.296   9.609 -1.8211  0.2990 -0.0566
  113OSM   C10F11817   1.233   3.161   9.458  0.6169  0.0795 -0.1591
  113OSM   H10F11818   1.285   3.229   9.388  0.5769 -0.1159 -0.3824
  113OSM   C11F11819   1.178   3.039   9.389 -0.0616 -0.1214 -0.1329
  113OSM   H11F11820   1.133   2.970   9.464 -1.7627  0.2565 -0.7713
  113OSM   H11G11821   1.261   2.986   9.337 -1.5077 -3.2546  0.5221
  113OSM   C12F11822   1.075   3.069   9.277 -0.2920  0.0961  0.1715
  113OSM   H12F11823   1.130   3.120   9.195  1.5210 -0.8258  0.7868
  113OSM   H12G11824   0.990   3.130   9.315  0.0668  0.4541  0.4018
  113OSM   C13F11825   1.022   2.937   9.226 -0.2007  0.0883 -0.1818
  113OSM   H13F11826   1.001   2.862   9.306  0.8374 -0.0057  0.0139
  113OSM   H13G11827   1.093   2.880   9.162 -0.7702 -0.5373 -0.2690
  113OSM   C14F11828   0.901   2.944   9.135  0.5070 -0.1612  0.4724
  113OSM   H14F11829   0.923   3.020   9.057 -0.7407 -1.2654 -1.0374
  113OSM   H14G11830   0.805   2.963   9.188 -1.0560  0.9830 -2.5401
  113OSM   C15F11831   0.871   2.812   9.054 -0.2134 -0.4767 -0.1653
  113OSM   H15F11832   0.856   2.726   9.123 -0.2149 -1.3875 -1.2665
  113OSM   H15G11833   0.965   2.788   8.999 -0.7253 -1.6969 -0.5206
  113OSM   C16F11834   0.756   2.821   8.956 -0.4620 -0.0409  0.0184
  113OSM   H16F11835   0.667   2.865   9.005 -0.1031 -1.3605  1.9804
  113OSM   H16G11836   0.727   2.717   8.929 -1.1275  0.5502 -1.6751
  113OSM   C17F11837   0.787   2.898   8.830 -0.1659 -0.6521  0.3512
  113OSM   H17F11838   0.882   2.866   8.781 -0.6227 -0.3381 -0.7660
  113OSM   H17G11839   0.809   3.003   8.859 -0.5282 -0.4478 -0.0965
  113OSM   C18F11840   0.670   2.901   8.733 -1.2060 -0.3949  0.1171
  113OSM   H18F11841   0.576   2.937   8.779 -1.5416  0.8335 -1.4204
  113OSM   H18G11842   0.659   2.797   8.695 -0.1317 -0.3744 -0.3106
  113OSM   H18H11843   0.691   2.977   8.654 -0.1043  0.8204  1.5171
  114OSM      N11844   5.377   6.332  11.065  0.0214 -1.1803 -1.2796
  114OSM    C1511845   5.415   6.451  11.157 -0.2539  0.3277  0.4125
  114OSM   H15A11846   5.481   6.419  11.236 -0.2382 -1.7507 -0.3906
  114OSM   H15B11847   5.331   6.501  11.203  1.5744  1.8722  2.3154
  114OSM   H15C11848   5.456   6.532  11.098 -0.3841 -0.0469 -0.1899
  114OSM    C1411849   5.485   6.230  11.047 -0.5222 -0.2161 -0.2292
  114OSM   H14A11850   5.506   6.177  11.139  2.6542 -0.0222 -0.7297
  114OSM   H14B11851   5.576   6.275  11.012 -0.2432  0.6404  1.4944
  114OSM   H14C11852   5.457   6.157  10.973  2.4242  1.7241 -3.5363
  114OSM    C1311853   5.265   6.256  11.128  0.9481 -0.2287  0.0533
  114OSM   H13A11854   5.173   6.312  11.120  1.9349  1.2300 -1.9477
  114OSM   H13B11855   5.274   6.233  11.233 -1.1824 -0.9016  0.1452
  114OSM   H13C11856   5.246   6.164  11.076  1.3436 -1.3592  1.8158
  114OSM    C1211857   5.330   6.387  10.931  0.2689 -0.5837  0.2767
  114OSM   H12A11858   5.275   6.302  10.892  0.0479 -0.2410 -0.1594
  114OSM   H12B11859   5.419   6.410  10.874 -0.2121 -0.4722 -0.4401
  114OSM    C1111860   5.225   6.509  10.935 -0.3281  0.3316 -0.1958
  114OSM   H11A11861   5.193   6.544  10.834  0.1443 -0.5734 -0.6697
  114OSM   H11B11862   5.289   6.595  10.963  0.0486  0.0910 -0.3086
  114OSM      P11863   4.967   6.422  10.978  0.1615  0.1341 -0.2389
  114OSM    O1311864   4.958   6.282  11.015  0.4831  0.3270  0.2177
  114OSM    O1411865   4.861   6.510  11.022 -0.4169 -0.2894 -0.2075
  114OSM    O1111866   4.982   6.429  10.817  0.3666 -0.0981 -0.2996
  114OSM    O1211867   5.109   6.480  11.023 -0.2020  0.1785  0.0700
  114OSM    C1S11868   5.029   6.325  10.736  0.0879  0.0320 -0.9682
  114OSM    H1S11869   5.008   6.227  10.784 -1.2889  0.7011 -0.1539
  114OSM    H1T11870   5.140   6.319  10.737  0.1437  0.4933  1.0264
  114OSM     NF11871   5.020   6.221  10.513  0.1197  0.5843  0.5757
  114OSM    HNF11872   5.110   6.226  10.469  0.0815  1.9180  0.5987
  114OSM    C2S11873   4.979   6.337  10.590 -0.3653  0.4037  0.6380
  114OSM    H2S11874   4.869   6.355  10.589 -0.1055  3.0390 -3.2353
  114OSM    C3S11875   5.043   6.468  10.532  0.1325  0.1361  0.3715
  114OSM    H3S11876   5.151   6.443  10.520 -0.6913 -3.7831 -0.0246
  114OSM     O311877   5.040   6.583  10.619  0.0248  0.3794  0.0297
  114OSM    HO311878   5.001   6.550  10.700  0.4053 -1.3764 -0.4505
  114OSM    C4S11879   4.976   6.491  10.397 -0.0900  1.1330 -0.3156
  114OSM    H4S11880   5.016   6.422  10.321  0.4468 -1.8715  2.4387
  114OSM    C5S11881   4.869   6.566  10.370 -0.2430  0.7775  0.0448
  114OSM    H5S11882   4.812   6.600  10.458  0.4057  0.4836  0.5939
  114OSM    C6S11883   4.806   6.573  10.234  0.5416  0.5655  0.0089
  114OSM    H6S11884   4.766   6.676  10.222 -0.3345  0.2836  0.4653
  114OSM    H6T11885   4.714   6.514  10.219 -0.5921  2.2267  0.1423
  114OSM    C7S11886   4.894   6.541  10.114 -0.1493  0.9928  0.1591
  114OSM    H7S11887   4.926   6.435  10.124 -1.7769  0.5055  0.6302
  114OSM    H7T11888   4.981   6.610  10.117 -0.1761  1.1403 -1.5611
  114OSM    C8S11889   4.820   6.546   9.974  0.1997  0.2098  0.7457
  114OSM    H8S11890   4.782   6.649   9.958  0.5196  0.3368  0.8050
  114OSM    H8T11891   4.738   6.471   9.983 -0.9093  1.2910 -0.0747
  114OSM    C9S11892   4.916   6.498   9.866  0.0634  0.1131 -0.0844
  114OSM    H9S11893   4.938   6.389   9.867  0.9474  0.2856  0.4720
  114OSM    H9T11894   5.006   6.561   9.884  0.5011 -1.0743  2.4038
  114OSM   C10S11895   4.854   6.515   9.723  0.5639  0.3719  0.5828
  114OSM   H10S11896   4.839   6.625   9.716  0.2626  0.4284  1.8173
  114OSM   H10T11897   4.753   6.470   9.716  0.6797 -0.0057  1.2422
  114OSM   C11S11898   4.941   6.469   9.605 -0.0944  0.0900 -0.6194
  114OSM   H11S11899   4.958   6.360   9.604 -1.9183 -0.3683  2.7809
  114OSM   H11T11900   5.043   6.513   9.603 -0.3900  0.8740 -3.4076
  114OSM   C12S11901   4.874   6.509   9.478  0.4345  0.1865  0.0886
  114OSM   H12S11902   4.864   6.619   9.487 -1.7583 -0.0673  1.2218
  114OSM   H12T11903   4.773   6.464   9.464  1.6355 -2.0360 -2.4114
  114OSM   C13S11904   4.960   6.483   9.351 -1.1527 -0.0599 -0.3557
  114OSM   H13S11905   4.953   6.374   9.332  0.9424 -0.4088  0.5645
  114OSM   H13T11906   5.064   6.516   9.373 -1.0703 -1.8249  2.4288
  114OSM   C14S11907   4.904   6.560   9.226 -0.5425 -0.2837 -0.1699
  114OSM   H14S11908   4.986   6.555   9.150 -1.4114  0.0640 -1.1551
  114OSM   H14T11909   4.879   6.667   9.240 -0.8059 -0.5101  1.2155
  114OSM   C15S11910   4.774   6.509   9.157 -0.1246 -0.3721 -0.2939
  114OSM   H15S11911   4.682   6.515   9.220  0.2073 -1.2238  0.2941
  114OSM   H15T11912   4.797   6.402   9.140 -0.4966 -0.4406 -0.3876
  114OSM   C16S11913   4.754   6.596   9.031  0.7841  0.0330  0.5556
  114OSM   H16S11914   4.847   6.607   8.971  0.7588 -3.1219 -0.2456
  114OSM   H16T11915   4.728   6.700   9.058  3.7459  1.4244 -1.4228
  114OSM   C17S11916   4.650   6.536   8.934  0.5326  0.4787  0.6525
  114OSM   H17S11917   4.558   6.537   8.996 -0.5932  1.1790 -0.9958
  114OSM   H17T11918   4.677   6.429   8.920 -2.4409 -0.1649 -0.8573
  114OSM   C18S11919   4.632   6.609   8.802  0.0404 -0.3827 -0.4184
  114OSM   H18S11920   4.631   6.718   8.820 -1.2307 -0.0392 -2.2583
  114OSM   H18T11921   4.542   6.582   8.742  0.4468 -0.2995 -1.0733
  114OSM   H18U11922   4.723   6.603   8.739 -0.1178  0.4572 -0.7394
  114OSM    C1F11923   4.960   6.106  10.540  0.9711  0.6431  0.8448
  114OSM     OF11924   4.849   6.108  10.585 -0.3633  0.2162  0.4500
  114OSM    C2F11925   5.026   5.972  10.523  0.7150  0.1960 -0.5355
  114OSM    H2F11926   5.085   5.953  10.615  0.5581  1.5569 -0.1290
  114OSM    H2G11927   5.100   5.977  10.441  0.4250  2.8933 -0.7104
  114OSM    C3F11928   4.922   5.867  10.506 -0.9865  0.9017 -0.3345
  114OSM    H3F11929   4.863   5.882  10.413 -1.1487  0.2138 -0.3505
  114OSM    H3G11930   4.861   5.869  10.599  0.7583 -2.1062  1.0339
  114OSM    C4F11931   4.977   5.721  10.500 -0.5233 -0.4293 -0.1450
  114OSM    H4F11932   4.883   5.674  10.463  0.8050 -1.3079 -2.5890
  114OSM    H4G11933   5.018   5.694  10.600 -0.3672 -0.7906 -0.3042
  114OSM    C5F11934   5.088   5.703  10.398 -0.8332  0.0874  0.7905
  114OSM    H5F11935   5.122   5.598  10.389 -0.5418  0.3431 -1.6358
  114OSM    H5G11936   5.170   5.768  10.434 -2.2466  1.2390  2.0324
  114OSM    C6F11937   5.061   5.746  10.248  0.4344 -0.4499 -0.6817
  114OSM    H6F11938   5.052   5.857  10.239 -2.3304 -0.5770 -0.4539
  114OSM    H6G11939   4.965   5.701  10.215  0.6701 -1.1024 -0.4811
  114OSM    C7F11940   5.173   5.707  10.152 -0.2833  0.3471 -0.0056
  114OSM    H7F11941   5.195   5.600  10.170 -1.8900  0.1092  0.7698
  114OSM    H7G11942   5.269   5.754  10.180 -0.6453  2.1507 -1.5236
  114OSM    C8F11943   5.147   5.726   9.998 -0.2431 -0.1677 -0.3216
  114OSM    H8F11944   5.247   5.752   9.958  0.5769 -0.1299  1.6055
  114OSM    H8G11945   5.085   5.817   9.980  0.3251  0.1619 -0.6374
  114OSM    C9F11946   5.097   5.603   9.934  0.1268  0.0260  0.3483
  114OSM    H9F11947   5.041   5.535   9.999  0.3327 -1.3718 -0.8854
  114OSM   C10F11948   5.118   5.564   9.806  0.1306 -0.4399 -0.5481
  114OSM   H10F11949   5.083   5.464   9.778 -1.4610 -0.4079  1.1902
  114OSM   C11F11950   5.188   5.633   9.693 -0.0587 -0.0585  0.4620
  114OSM   H11F11951   5.298   5.616   9.695  0.1414  0.9765 -0.4554
  114OSM   H11G11952   5.175   5.743   9.688  2.4358  0.2418 -1.4305
  114OSM   C12F11953   5.135   5.571   9.561  0.1198  0.2624 -0.0445
  114OSM   H12F11954   5.025   5.556   9.558  0.1410 -0.2622  1.3380
  114OSM   H12G11955   5.184   5.471   9.562  1.4637  0.8934  1.9699
  114OSM   C13F11956   5.174   5.642   9.439 -0.6426  0.1639 -0.2438
  114OSM   H13F11957   5.283   5.661   9.433 -0.7658  0.4277 -2.1782
  114OSM   H13G11958   5.131   5.744   9.435 -1.3389 -0.0453  1.1481
  114OSM   C14F11959   5.126   5.556   9.321 -0.2545 -0.2027 -0.5052
  114OSM   H14F11960   5.015   5.554   9.324 -0.2639 -2.6616 -0.3631
  114OSM   H14G11961   5.187   5.464   9.334  2.1835  1.2010 -1.4397
  114OSM   C15F11962   5.166   5.631   9.190  0.5438 -0.2516 -0.2367
  114OSM   H15F11963   5.275   5.654   9.192  0.7361 -1.1012 -0.1342
  114OSM   H15G11964   5.094   5.710   9.164  1.3238  0.7094  0.4360
  114OSM   C16F11965   5.150   5.529   9.080  0.4728 -1.0924 -0.8161
  114OSM   H16F11966   5.046   5.491   9.079  1.1200 -3.2062  1.2228
  114OSM   H16G11967   5.216   5.440   9.096 -1.5635 -2.3143  1.3574
  114OSM   C17F11968   5.184   5.587   8.942  0.0661 -0.1524  0.0696
  114OSM   H17F11969   5.111   5.664   8.910  0.8237  0.5734  0.0445
  114OSM   H17G11970   5.188   5.499   8.874 -3.7767  0.2804 -0.9460
  114OSM   C18F11971   5.326   5.653   8.938 -0.4820  0.0620  0.8266
  114OSM   H18F11972   5.359   5.673   8.834 -3.4543  0.2245 -0.1784
  114OSM   H18G11973   5.407   5.594   8.988  0.6225  0.7712 -0.0764
  114OSM   H18H11974   5.321   5.759   8.972  0.6152  0.7910 -1.1207
  115OSM      N11975   0.294   5.546  11.593  0.2000  0.0124  0.2984
  115OSM    C1511976   0.183   5.444  11.586 -0.6879 -0.5956 -0.4388
  115OSM   H15A11977   0.169   5.427  11.480  0.6596 -1.3148 -0.5218
  115OSM   H15B11978   0.088   5.483  11.620 -0.4341  0.0939 -0.5194
  115OSM   H15C11979   0.201   5.352  11.639 -1.3163 -0.4020  0.1225
  115OSM    C1411980   0.295   5.613  11.728  0.0140  0.5884 -0.6705
  115OSM   H14A11981   0.195   5.643  11.755  0.8494  2.1479  0.8297
  115OSM   H14B11982   0.357   5.700  11.742 -0.3960  0.4085  3.3313
  115OSM   H14C11983   0.327   5.536  11.797  0.2155  1.8368  0.6774
  115OSM    C1311984   0.428   5.478  11.565 -0.4771 -0.1285 -0.6593
  115OSM   H13A11985   0.512   5.545  11.574  0.6089 -1.0003 -3.2855
  115OSM   H13B11986   0.442   5.455  11.461 -0.2548 -1.0991 -0.4304
  115OSM   H13C11987   0.455   5.391  11.624 -0.3167  0.4117  0.0771
  115OSM    C1211988   0.271   5.654  11.484  0.2562 -0.0588  0.8186
  115OSM   H12A11989   0.362   5.713  11.480  0.9956 -1.1945 -2.9176
  115OSM   H12B11990   0.181   5.708  11.510 -1.3960 -1.9442 -0.7437
  115OSM    C1111991   0.246   5.610  11.339  0.2432  0.7252  0.3743
  115OSM   H11A11992   0.194   5.690  11.283  0.9425  0.0868 -1.2514
  115OSM   H11B11993   0.161   5.539  11.348  0.9056  0.1446  2.8106
  115OSM      P11994   0.482   5.645  11.243  0.2422  0.2949  0.2173
  115OSM    O1311995   0.426   5.764  11.181 -0.1157 -0.6140 -0.3320
  115OSM    O1411996   0.564   5.662  11.366 -0.1102 -0.0576 -0.1854
  115OSM    O1111997   0.577   5.576  11.139  0.6072  0.9746 -0.5079
  115OSM    O1211998   0.360   5.551  11.271  0.1647  0.1675 -0.9933
  115OSM    C1S11999   0.528   5.490  11.035 -0.6004  0.1696 -0.7738
  115OSM    H1S12000   0.419   5.469  11.036 -0.2496 -2.2070 -2.6966
  115OSM    H1T12001   0.574   5.389  11.041  0.1199  0.5431  0.1365
  115OSM     NF12002   0.517   5.468  10.794 -0.0927  0.0678 -0.1031
  115OSM    HNF12003   0.584   5.406  10.756  0.8081  0.8094  0.2397
  115OSM    C2S12004   0.573   5.550  10.902  0.2139 -0.8680 -0.1218
  115OSM    H2S12005   0.526   5.650  10.896 -1.1760 -1.2903  2.4898
  115OSM    C3S12006   0.728   5.557  10.904  0.1709  0.2340  0.0109
  115OSM    H3S12007   0.768   5.454  10.889  0.8913  0.6475 -1.0523
  115OSM     O312008   0.800   5.610  11.019  0.7201 -0.5136  0.1218
  115OSM    HO312009   0.722   5.624  11.073 -0.7882  1.5940 -2.3716
  115OSM    C4S12010   0.778   5.628  10.778 -0.6407  0.6052 -0.0405
  115OSM    H4S12011   0.791   5.555  10.696 -2.5181 -0.2706  0.3817
  115OSM    C5S12012   0.787   5.762  10.754 -0.6617 -0.4503 -0.1987
  115OSM    H5S12013   0.739   5.818  10.835  1.2241 -1.4033  1.6782
  115OSM    C6S12014   0.828   5.832  10.626 -0.0571  0.2009 -0.2237
  115OSM    H6S12015   0.904   5.909  10.646  1.3719 -1.0676 -0.5901
  115OSM    H6T12016   0.733   5.882  10.598 -1.6058 -2.2477  0.3086
  115OSM    C7S12017   0.881   5.748  10.516  0.1556  1.0711 -0.5182
  115OSM    H7S12018   0.816   5.662  10.491  0.7309  0.1684  0.9189
  115OSM    H7T12019   0.985   5.719  10.545  0.0173  0.2650 -0.8106
  115OSM    C8S12020   0.897   5.828  10.386 -0.1253  0.1761  0.1590
  115OSM    H8S12021   0.964   5.916  10.404  0.9994 -0.2588 -1.5994
  115OSM    H8T12022   0.798   5.853  10.343 -0.5202 -2.3160 -0.5033
  115OSM    C9S12023   0.978   5.747  10.281  0.1812  0.0392 -0.4175
  115OSM    H9S12024   0.917   5.657  10.257  0.4900 -1.2577  3.0950
  115OSM    H9T12025   1.069   5.698  10.322  0.1009 -1.7471 -2.2313
  115OSM   C10S12026   1.005   5.822  10.153  0.2032 -0.2643  0.6562
  115OSM   H10S12027   1.060   5.754  10.084  0.0300  0.1867  0.0607
  115OSM   H10T12028   1.051   5.921  10.176 -2.0870  0.8666  0.6856
  115OSM   C11S12029   0.875   5.853  10.068 -0.2681 -0.2303 -0.0729
  115OSM   H11S12030   0.816   5.933  10.118  0.5827 -0.3558  1.1727
  115OSM   H11T12031   0.813   5.761  10.058 -2.0383  0.7568  1.1939
  115OSM   C12S12032   0.892   5.900   9.922  0.2348  0.1920 -0.1448
  115OSM   H12S12033   0.933   6.001   9.901 -2.4452  1.1179 -1.4149
  115OSM   H12T12034   0.789   5.902   9.879  0.2341 -0.4442 -0.1766
  115OSM   C13S12035   0.967   5.790   9.834  0.1724 -0.2723  0.0251
  115OSM   H13S12036   0.914   5.694   9.851 -2.0357  1.0145  0.7488
  115OSM   H13T12037   1.073   5.781   9.869  0.7915 -1.5617 -2.0347
  115OSM   C14S12038   0.956   5.819   9.683 -0.1166 -0.0698 -0.4069
  115OSM   H14S12039   1.001   5.915   9.649  1.7239 -1.0654 -0.9555
  115OSM   H14T12040   0.848   5.823   9.661  0.2095  0.5032 -2.0033
  115OSM   C15S12041   0.994   5.694   9.596 -0.0185 -0.0463  0.5598
  115OSM   H15S12042   0.927   5.620   9.644  0.1649 -0.9423 -0.5318
  115OSM   H15T12043   1.103   5.670   9.595  0.7152  2.8570 -0.4049
  115OSM   C16S12044   0.953   5.695   9.448  0.0228  0.6182 -0.8284
  115OSM   H16S12045   1.006   5.777   9.394 -0.8927  0.8091 -1.4556
  115OSM   H16T12046   0.846   5.718   9.466 -0.1516 -0.4698 -0.3626
  115OSM   C17S12047   0.989   5.564   9.378  0.4982  0.4614 -0.4680
  115OSM   H17S12048   0.943   5.477   9.431  1.6814 -0.0348 -0.2261
  115OSM   H17T12049   1.100   5.562   9.375  0.6890  1.5763  2.4114
  115OSM   C18S12050   0.935   5.552   9.233 -0.2281 -0.3607 -0.1873
  115OSM   H18S12051   0.950   5.455   9.181 -0.1910 -1.8705  2.4330
  115OSM   H18T12052   0.978   5.631   9.169 -0.7104  0.7937  0.8719
  115OSM   H18U12053   0.825   5.569   9.234 -0.1766 -0.0184 -0.5859
  115OSM    C1F12054   0.391   5.453  10.758  0.1303 -0.2174  0.0369
  115OSM     OF12055   0.310   5.526  10.814 -0.1254 -0.3804  0.0742
  115OSM    C2F12056   0.351   5.356  10.648  0.5359 -0.0290 -0.6844
  115OSM    H2F12057   0.358   5.251  10.686  2.0747 -1.5335 -4.5949
  115OSM    H2G12058   0.435   5.352  10.575  1.3164 -1.3066  0.2327
  115OSM    C3F12059   0.207   5.381  10.582  0.2888 -0.6275 -0.6274
  115OSM    H3F12060   0.200   5.485  10.545 -0.4377  0.5411  2.4628
  115OSM    H3G12061   0.126   5.368  10.657 -0.9841 -0.3512 -1.9332
  115OSM    C4F12062   0.173   5.289  10.468 -0.0861  0.1840 -0.3551
  115OSM    H4F12063   0.085   5.332  10.415 -1.4047  0.1518  1.7024
  115OSM    H4G12064   0.148   5.184  10.495 -0.1122 -0.5257 -2.8783
  115OSM    C5F12065   0.294   5.271  10.370  0.1817  0.5982  0.2639
  115OSM    H5F12066   0.372   5.209  10.418 -0.8331 -1.1037 -0.1960
  115OSM    H5G12067   0.328   5.370  10.333 -1.4884  0.4198 -2.0278
  115OSM    C6F12068   0.237   5.208  10.245 -0.0079  1.3511  0.2991
  115OSM    H6F12069   0.162   5.266  10.188 -0.5515 -0.2400 -0.6715
  115OSM    H6G12070   0.185   5.114  10.274  0.4441  0.5626 -1.2927
  115OSM    C7F12071   0.351   5.166  10.152  0.3064 -0.8620 -0.2911
  115OSM    H7F12072   0.425   5.103  10.206  1.3456  1.6264  1.4312
  115OSM    H7G12073   0.419   5.249  10.122 -0.4426 -0.2642 -0.3749
  115OSM    C8F12074   0.309   5.107  10.017 -0.1528  0.2018  0.9405
  115OSM    H8F12075   0.276   5.192   9.953  2.3064  1.7344  1.5538
  115OSM    H8G12076   0.226   5.036  10.033 -0.6696  0.6489  0.2999
  115OSM    C9F12077   0.418   5.024   9.946  0.6637  0.2353  0.2933
  115OSM    H9F12078   0.507   5.011  10.010  2.1344  0.3902 -1.6294
  115OSM   C10F12079   0.414   4.952   9.834  0.8750 -0.5864 -0.5982
  115OSM   H10F12080   0.508   4.909   9.798  0.7554 -1.0732 -0.3324
  115OSM   C11F12081   0.301   4.950   9.734  0.7453  0.5148 -0.2364
  115OSM   H11F12082   0.310   5.033   9.661 -0.1073  1.1961  0.4065
  115OSM   H11G12083   0.205   4.949   9.791 -0.8796  1.7046 -2.7756
  115OSM   C12F12084   0.301   4.832   9.634 -0.3169  0.6852  0.2875
  115OSM   H12F12085   0.200   4.815   9.591 -1.3650 -0.5331  2.9677
  115OSM   H12G12086   0.311   4.734   9.686  0.5543 -0.2658 -1.5951
  115OSM   C13F12087   0.416   4.835   9.526  0.0017  0.6061 -0.2268
  115OSM   H13F12088   0.447   4.734   9.491  0.1746  0.7383 -0.4569
  115OSM   H13G12089   0.505   4.884   9.570 -0.1000 -1.3915  2.3974
  115OSM   C14F12090   0.372   4.907   9.397 -0.6812  0.2279 -0.1850
  115OSM   H14F12091   0.368   5.013   9.430  1.0556  0.4464 -0.6046
  115OSM   H14G12092   0.272   4.875   9.360  0.0306 -1.0155 -1.0953
  115OSM   C15F12093   0.466   4.874   9.274  0.8856  0.4005 -1.0564
  115OSM   H15F12094   0.487   4.765   9.277  2.0218  0.5702  3.2282
  115OSM   H15G12095   0.557   4.938   9.281  0.7036  0.5435  0.1514
  115OSM   C16F12096   0.397   4.907   9.143 -0.3272 -0.7007 -0.2805
  115OSM   H16F12097   0.366   5.013   9.140  1.2909 -0.2115 -0.9155
  115OSM   H16G12098   0.307   4.842   9.140 -0.9956  0.2454 -2.3707
  115OSM   C17F12099   0.464   4.869   9.016 -0.0227  0.7995  0.7839
  115OSM   H17F12100   0.560   4.924   9.012 -0.4844  1.6187  0.5531
  115OSM   H17G12101   0.396   4.910   8.938 -1.1845 -3.5017 -0.7551
  115OSM   C18F12102   0.496   4.719   8.988  0.3394  0.0443 -0.0153
  115OSM   H18F12103   0.547   4.668   9.073 -0.2565  2.3517  1.8458
  115OSM   H18G12104   0.565   4.713   8.902 -1.9736  1.5710 -2.0973
  115OSM   H18H12105   0.397   4.670   8.974  0.3597 -0.5461  1.6059
  116OSM      N12106   4.194   1.520  11.230 -0.0336 -0.4530  0.4198
  116OSM    C1512107   4.139   1.655  11.226  0.0426  0.0789  0.0477
  116OSM   H15A12108   4.075   1.664  11.140 -1.2446  0.2350  1.0039
  116OSM   H15B12109   4.216   1.730  11.212 -0.9863  1.6934  2.4931
  116OSM   H15C12110   4.083   1.671  11.316  1.9589 -0.7471  1.4670
  116OSM    C1412111   4.284   1.505  11.358 -0.2150  0.0073 -0.3094
  116OSM   H14A12112   4.335   1.410  11.352 -0.8204 -0.2512 -3.9381
  116OSM   H14B12113   4.225   1.514  11.448  1.1153 -1.1403  0.7185
  116OSM   H14C12114   4.365   1.577  11.358  0.2167 -0.4641  0.6029
  116OSM    C1312115   4.080   1.422  11.255 -0.4370  0.1865 -0.7464
  116OSM   H13A12116   4.008   1.406  11.176  1.2476 -1.6986 -2.0191
  116OSM   H13B12117   4.037   1.446  11.351  0.1625  1.4582 -0.7778
  116OSM   H13C12118   4.121   1.323  11.267  0.3496  0.7677  2.1182
  116OSM    C1212119   4.263   1.485  11.100 -0.3512  1.0399  0.2676
  116OSM   H12A12120   4.286   1.380  11.109 -0.2878  1.1985  2.3926
  116OSM   H12B12121   4.361   1.529  11.089 -0.0456 -0.0004 -1.5780
  116OSM    C1112122   4.189   1.503  10.966 -0.8879 -0.3518 -0.2859
  116OSM   H11A12123   4.264   1.474  10.889  0.0265 -0.1747  0.5273
  116OSM   H11B12124   4.175   1.611  10.944  0.3113  0.1216  1.1428
  116OSM      P12125   4.084   1.271  10.949  0.3341 -0.2899  0.0508
  116OSM    O1312126   4.192   1.216  11.036 -0.2522 -0.2351  0.1711
  116OSM    O1412127   3.947   1.221  10.971  0.1599 -0.4417  0.2812
  116OSM    O1112128   4.122   1.237  10.799 -0.1399 -0.3511 -0.1740
  116OSM    O1212129   4.071   1.427  10.951 -0.0725 -0.1448 -0.1829
  116OSM    C1S12130   4.061   1.311  10.687 -0.4844  0.2023  0.0145
  116OSM    H1S12131   4.099   1.416  10.688 -2.1229  0.8543  2.2022
  116OSM    H1T12132   3.950   1.311  10.690 -0.5278  1.1629 -0.9537
  116OSM     NF12133   4.065   1.343  10.433  0.1240  0.4061 -0.0176
  116OSM    HNF12134   3.983   1.328  10.379 -0.7978  0.8723  1.2284
  116OSM    C2S12135   4.096   1.254  10.551 -0.1232  0.2682 -0.1939
  116OSM    H2S12136   4.207   1.245  10.539 -0.3254 -0.7001 -1.5985
  116OSM    C3S12137   4.039   1.103  10.523 -0.2662 -0.8031 -1.3023
  116OSM    H3S12138   3.929   1.106  10.536 -0.2517 -2.0566 -0.7487
  116OSM     O312139   4.073   1.011  10.624  0.0888 -0.4167 -0.5965
  116OSM    HO312140   4.105   1.057  10.703  0.6251 -1.1383 -0.3875
  116OSM    C4S12141   4.096   1.049  10.400 -0.2275 -0.1454 -0.0455
  116OSM    H4S12142   4.196   1.007  10.418  0.7089  0.3079 -3.4128
  116OSM    C5S12143   4.038   1.055  10.281 -0.2685 -0.3534  0.2181
  116OSM    H5S12144   3.940   1.104  10.271  0.2500  0.5841 -0.4054
  116OSM    C6S12145   4.090   1.012  10.145  0.2079  0.7807 -0.2634
  116OSM    H6S12146   3.999   1.031  10.083  0.2847 -1.9935 -1.3808
  116OSM    H6T12147   4.113   0.904  10.134  1.3860  1.1951 -2.3967
  116OSM    C7S12148   4.203   1.084  10.086  0.2471  0.4285 -0.1229
  116OSM    H7S12149   4.211   1.050   9.980 -1.5032 -1.1731  0.2126
  116OSM    H7T12150   4.296   1.067  10.145 -0.1107  0.4618  0.4572
  116OSM    C8S12151   4.184   1.230  10.066 -0.1491 -0.0575 -0.2671
  116OSM    H8S12152   4.201   1.266  10.170  0.4579  0.9475 -0.7046
  116OSM    H8T12153   4.083   1.248  10.024 -0.0351  1.6265  0.1140
  116OSM    C9S12154   4.288   1.285   9.974  0.7228  0.2451  0.0212
  116OSM    H9S12155   4.389   1.262  10.014 -0.1065 -1.4704  1.2362
  116OSM    H9T12156   4.289   1.396   9.979  3.2642  0.2280  2.4660
  116OSM   C10S12157   4.281   1.240   9.825  0.3611  0.4730  0.0297
  116OSM   H10S12158   4.171   1.238   9.805  0.1569  0.8807  1.0349
  116OSM   H10T12159   4.314   1.137   9.801 -0.7290  0.2993 -0.8564
  116OSM   C11S12160   4.349   1.332   9.729  0.3199 -0.6922  0.2367
  116OSM   H11S12161   4.460   1.331   9.733  0.3386  0.8131  0.8634
  116OSM   H11T12162   4.322   1.433   9.767 -3.4128 -1.0242 -1.1619
  116OSM   C12S12163   4.308   1.318   9.583 -0.4033 -0.8745 -1.1788
  116OSM   H12S12164   4.368   1.235   9.541 -0.1394 -0.6484 -1.2570
  116OSM   H12T12165   4.335   1.409   9.525  1.3515  0.3302  1.3050
  116OSM   C13S12166   4.155   1.297   9.561 -0.0382  0.0025 -0.1804
  116OSM   H13S12167   4.109   1.382   9.616 -0.6927  1.1554 -2.3877
  116OSM   H13T12168   4.130   1.199   9.606  0.8749 -1.3144 -2.3967
  116OSM   C14S12169   4.112   1.318   9.417  0.0834 -0.4236  0.8452
  116OSM   H14S12170   4.129   1.228   9.354 -1.7827 -1.3077  1.5202
  116OSM   H14T12171   4.165   1.404   9.370 -1.9047  0.4263  0.0417
  116OSM   C15S12172   3.964   1.353   9.398  0.2556  0.1079 -0.7371
  116OSM   H15S12173   3.936   1.407   9.492  2.7110  3.4512 -1.7383
  116OSM   H15T12174   3.900   1.262   9.394  1.5495 -0.8905  0.3990
  116OSM   C16S12175   3.926   1.434   9.269 -0.1604 -0.0679 -0.3416
  116OSM   H16S12176   3.979   1.532   9.270 -0.1705 -0.0604 -0.4883
  116OSM   H16T12177   3.817   1.453   9.274  0.2097  2.2499  0.1822
  116OSM   C17S12178   3.959   1.360   9.137  0.7653  0.2417 -0.8880
  116OSM   H17S12179   4.070   1.364   9.135  0.7535  0.3927 -2.7670
  116OSM   H17T12180   3.920   1.422   9.053  1.9199  2.3680  0.0678
  116OSM   C18S12181   3.905   1.216   9.128  0.5078 -0.7515 -0.3982
  116OSM   H18S12182   3.796   1.217   9.147  0.7908  1.2919  1.4953
  116OSM   H18T12183   3.948   1.154   9.209 -0.0906 -0.8381 -0.1407
  116OSM   H18U12184   3.923   1.167   9.030  1.1248 -2.1117  0.3548
  116OSM    C1F12185   4.114   1.464  10.420 -0.8656 -0.3424  0.4877
  116OSM     OF12186   4.217   1.497  10.478 -0.1521  0.4827 -0.7643
  116OSM    C2F12187   4.058   1.557  10.325  0.1941 -0.2701 -0.0895
  116OSM    H2F12188   3.963   1.598  10.365  0.0661 -1.4664  0.9136
  116OSM    H2G12189   4.032   1.500  10.233  2.3744 -1.8394  0.1907
  116OSM    C3F12190   4.161   1.663  10.273 -0.1925 -0.2347 -0.1297
  116OSM    H3F12191   4.249   1.628  10.215 -0.2071  0.4762 -0.6037
  116OSM    H3G12192   4.208   1.724  10.353 -0.7003 -2.0160  1.5946
  116OSM    C4F12193   4.103   1.775  10.185 -0.6306  0.3111  0.5598
  116OSM    H4F12194   4.181   1.821  10.120 -0.5208 -0.9048 -0.2100
  116OSM    H4G12195   4.051   1.853  10.245 -4.2637  0.0381 -1.8994
  116OSM    C5F12196   3.989   1.729  10.082  0.3214 -0.4070 -0.4874
  116OSM    H5F12197   3.955   1.825  10.037  2.6616  0.0104 -1.4944
  116OSM    H5G12198   3.904   1.688  10.141 -0.8845 -0.3892 -2.1474
  116OSM    C6F12199   4.041   1.631   9.976 -0.2093 -0.4464  0.1253
  116OSM    H6F12200   4.051   1.528  10.017 -0.3712 -0.9275 -0.9960
  116OSM    H6G12201   4.140   1.654   9.930  0.3908  0.1541  1.6531
  116OSM    C7F12202   3.955   1.608   9.853  0.1951 -0.1054  0.4218
  116OSM    H7F12203   3.847   1.595   9.874 -0.4110  0.5603 -1.9591
  116OSM    H7G12204   3.988   1.509   9.816  1.1462 -0.0987  1.1847
  116OSM    C8F12205   3.956   1.715   9.742 -0.6691 -0.1812 -0.1234
  116OSM    H8F12206   3.929   1.808   9.797  0.5614  0.7218 -1.0040
  116OSM    H8G12207   3.858   1.699   9.692 -0.7744 -0.2619  0.1077
  116OSM    C9F12208   4.079   1.736   9.652  0.5967 -0.3449 -0.1504
  116OSM    H9F12209   4.178   1.725   9.699  0.2434 -1.2918  0.3993
  116OSM   C10F12210   4.079   1.769   9.522  0.6879 -0.8421  0.0853
  116OSM   H10F12211   4.176   1.766   9.469  0.0525 -0.2827 -1.1534
  116OSM   C11F12212   3.955   1.795   9.433 -0.3296  0.4104 -0.2392
  116OSM   H11F12213   3.867   1.807   9.499  0.5753 -0.8586  1.2692
  116OSM   H11G12214   3.933   1.710   9.366  1.9860  0.6344 -1.3944
  116OSM   C12F12215   3.986   1.916   9.344 -0.1647  0.1240  0.5125
  116OSM   H12F12216   4.093   1.909   9.315 -0.0240 -0.2555  1.1185
  116OSM   H12G12217   3.978   2.009   9.404  0.0906 -0.5047  1.5525
  116OSM   C13F12218   3.896   1.920   9.224  0.3419 -0.0742  0.3256
  116OSM   H13F12219   3.792   1.925   9.263  0.4461  2.5077  0.4358
  116OSM   H13G12220   3.910   1.824   9.171  0.8270 -1.4690  2.8438
  116OSM   C14F12221   3.936   2.033   9.134  0.5938 -0.0129 -0.3353
  116OSM   H14F12222   4.041   2.011   9.105  0.7050  0.0161  0.0411
  116OSM   H14G12223   3.926   2.125   9.196 -0.5686 -0.4397  0.1370
  116OSM   C15F12224   3.848   2.055   9.015 -0.7435 -0.0617  0.6106
  116OSM   H15F12225   3.868   2.146   8.954 -0.5922 -0.4210  0.1109
  116OSM   H15G12226   3.742   2.069   9.045 -1.4524 -0.8640 -1.3051
  116OSM   C16F12227   3.847   1.931   8.925 -0.8431  0.2777  0.5167
  116OSM   H16F12228   3.795   1.848   8.978  0.4066  0.8475  2.7308
  116OSM   H16G12229   3.953   1.897   8.924 -0.9684 -0.1193  0.3955
  116OSM   C17F12230   3.782   1.950   8.784  0.5912  0.3555  0.2934
  116OSM   H17F12231   3.813   2.052   8.753 -0.1968  0.3479 -0.5533
  116OSM   H17G12232   3.672   1.935   8.795  0.3377  2.0792  0.3029
  116OSM   C18F12233   3.834   1.841   8.694  0.7928 -0.2904 -0.4171
  116OSM   H18F12234   3.944   1.858   8.687  0.9261 -0.1618  1.4655
  116OSM   H18G12235   3.783   1.832   8.596  2.6733 -2.5126 -1.2729
  116OSM   H18H12236   3.809   1.744   8.742 -1.3632 -0.2437 -1.3091
  117OSM      N12237   2.107   2.349  10.959  0.1544 -0.4240  0.2853
  117OSM    C1512238   2.201   2.253  10.910  0.0291 -0.0295  0.9791
  117OSM   H15A12239   2.190   2.234  10.805 -0.8063 -1.8787  1.3750
  117OSM   H15B12240   2.177   2.153  10.943 -1.7597  0.1744  0.4035
  117OSM   H15C12241   2.299   2.290  10.937 -0.5321  1.6152  0.9228
  117OSM    C1412242   2.152   2.376  11.096  0.3702 -0.4872 -0.6545
  117OSM   H14A12243   2.119   2.303  11.168  0.6466  1.0772  1.1276
  117OSM   H14B12244   2.111   2.473  11.120 -1.3518 -0.8509 -1.9207
  117OSM   H14C12245   2.259   2.381  11.114  0.2771 -1.3814  0.2839
  117OSM    C1312246   2.114   2.485  10.886 -0.3594  0.4764  0.0205
  117OSM   H13A12247   2.052   2.555  10.940 -0.2690 -0.2605  1.1131
  117OSM   H13B12248   2.069   2.484  10.787 -0.5462  2.8033  0.0338
  117OSM   H13C12249   2.214   2.525  10.893 -1.2222  2.6858  0.5104
  117OSM    C1212250   1.961   2.301  10.962 -0.5377 -0.0827  0.1471
  117OSM   H12A12251   1.891   2.379  10.988 -0.7749  0.0737 -0.9165
  117OSM   H12B12252   1.949   2.217  11.029 -1.3153  0.2809  0.4656
  117OSM    C1112253   1.914   2.250  10.826  0.4516  0.5521  1.2168
  117OSM   H11A12254   1.975   2.159  10.808  0.0312  0.7443 -1.5474
  117OSM   H11B12255   1.935   2.327  10.749 -1.7807  2.6846  2.5885
  117OSM      P12256   1.724   2.095  10.857 -0.0052 -0.5344 -0.2620
  117OSM    O1312257   1.788   2.041  10.979  0.8777  0.2809  0.3733
  117OSM    O1412258   1.577   2.103  10.861 -0.0723 -0.1220  0.0670
  117OSM    O1112259   1.760   2.008  10.728  0.0240 -0.0834  0.3093
  117OSM    O1212260   1.778   2.237  10.823  0.2349  0.1796 -0.8921
  117OSM    C1S12261   1.673   1.976  10.618 -0.4330 -0.3055  0.8351
  117OSM    H1S12262   1.567   1.971  10.653 -0.8848  1.6813 -0.0927
  117OSM    H1T12263   1.710   1.880  10.578 -0.1221  0.9492 -2.1462
  117OSM     NF12264   1.565   2.038  10.413  0.1834  0.2422 -0.0097
  117OSM    HNF12265   1.588   1.966  10.348 -1.7993 -1.6290  1.2251
  117OSM    C2S12266   1.669   2.079  10.504  0.6066  0.1753  0.4825
  117OSM    H2S12267   1.633   2.174  10.549 -1.2762 -0.4445  0.3884
  117OSM    C3S12268   1.809   2.097  10.439  0.0740 -0.2858 -0.1786
  117OSM    H3S12269   1.839   2.004  10.385 -2.0441  0.1095 -2.2390
  117OSM     O312270   1.913   2.108  10.533  0.1557 -0.1948 -0.0851
  117OSM    HO312271   1.877   2.083  10.618  0.8510  0.9409  0.5754
  117OSM    C4S12272   1.811   2.216  10.350  0.1952  0.6319 -0.2173
  117OSM    H4S12273   1.768   2.309  10.390  1.4074  1.9863 -1.9595
  117OSM    C5S12274   1.850   2.218  10.225 -0.2267 -0.3865  0.1614
  117OSM    H5S12275   1.885   2.127  10.174 -0.8294  0.4267 -1.7910
  117OSM    C6S12276   1.839   2.336  10.132  0.3262 -0.0784 -0.3049
  117OSM    H6S12277   1.911   2.317  10.050  0.5948 -4.2556  0.6831
  117OSM    H6T12278   1.876   2.426  10.185 -1.1506 -0.1730  0.9297
  117OSM    C7S12279   1.688   2.357  10.094 -0.6555  0.2006 -0.8494
  117OSM    H7S12280   1.626   2.351  10.186  0.6471  0.9113  0.1064
  117OSM    H7T12281   1.658   2.284  10.015 -0.4027 -0.9197  0.0488
  117OSM    C8S12282   1.667   2.495  10.034 -0.1574 -0.1166  0.6177
  117OSM    H8S12283   1.686   2.568  10.116 -2.2084  0.9411  0.2132
  117OSM    H8T12284   1.562   2.505   9.999  0.1200 -0.0624 -0.2103
  117OSM    C9S12285   1.758   2.539   9.923 -0.0152 -0.3545  0.3177
  117OSM    H9S12286   1.865   2.538   9.954  0.1685  0.6925 -0.2451
  117OSM    H9T12287   1.731   2.644   9.899 -0.6150 -0.1793  1.6913
  117OSM   C10S12288   1.741   2.451   9.793 -0.4994  0.2550 -0.0993
  117OSM   H10S12289   1.632   2.440   9.778 -0.4787 -2.1193  1.0457
  117OSM   H10T12290   1.781   2.350   9.817 -1.7572 -0.4182 -0.7664
  117OSM   C11S12291   1.819   2.511   9.672  0.2755 -0.5561  0.5681
  117OSM   H11S12292   1.923   2.476   9.685 -0.4683 -2.5247  1.4890
  117OSM   H11T12293   1.794   2.619   9.670 -1.8767 -0.9530  2.2414
  117OSM   C12S12294   1.769   2.454   9.539  0.0960 -0.2825  0.0045
  117OSM   H12S12295   1.665   2.488   9.520 -0.1163 -1.1170 -0.3788
  117OSM   H12T12296   1.754   2.344   9.550  0.7822 -0.1504  3.1226
  117OSM   C13S12297   1.864   2.470   9.420  0.2003  0.1117  0.2640
  117OSM   H13S12298   1.953   2.406   9.441 -0.6925 -0.6616  1.9120
  117OSM   H13T12299   1.888   2.578   9.412 -0.1602  0.2821  1.3415
  117OSM   C14S12300   1.794   2.432   9.287  0.7828 -0.1271  0.0622
  117OSM   H14S12301   1.791   2.322   9.277  3.1053 -0.3620  1.3649
  117OSM   H14T12302   1.849   2.460   9.195 -1.5514 -1.3121 -1.8036
  117OSM   C15S12303   1.648   2.485   9.268  0.6629 -0.1184  0.2999
  117OSM   H15S12304   1.657   2.594   9.286 -1.1429 -0.0283  0.8209
  117OSM   H15T12305   1.576   2.444   9.342  0.8870  3.6920  2.8971
  117OSM   C16S12306   1.598   2.455   9.125  0.1458 -0.5727 -0.9508
  117OSM   H16S12307   1.670   2.491   9.049 -0.4057  1.2318 -0.6590
  117OSM   H16T12308   1.505   2.512   9.102 -0.3365 -2.2285 -3.5177
  117OSM   C17S12309   1.570   2.307   9.103 -0.0560 -0.0217  0.2124
  117OSM   H17S12310   1.491   2.275   9.174 -0.8736 -1.2652 -1.1964
  117OSM   H17T12311   1.658   2.245   9.131  1.4422  1.2960 -1.3765
  117OSM   C18S12312   1.537   2.281   8.951  0.0911  0.1194  0.2173
  117OSM   H18S12313   1.461   2.352   8.913 -0.2581 -0.0109  0.6517
  117OSM   H18T12314   1.498   2.177   8.943 -0.4264  0.4300 -1.9473
  117OSM   H18U12315   1.616   2.300   8.876 -1.4462 -0.4381 -1.6415
  117OSM    C1F12316   1.436   2.048  10.437  0.3781 -0.6264  0.3046
  117OSM     OF12317   1.391   2.101  10.534  0.1844  0.0937  0.2544
  117OSM    C2F12318   1.339   1.985  10.340  0.9784  0.3068 -0.3834
  117OSM    H2F12319   1.258   2.060  10.329  0.5683  0.2301  1.7866
  117OSM    H2G12320   1.286   1.897  10.381 -1.9128  1.2572 -1.7747
  117OSM    C3F12321   1.407   1.962  10.197 -0.2716  0.1681  0.2582
  117OSM    H3F12322   1.478   1.877  10.206  1.0400  1.2269  0.1326
  117OSM    H3G12323   1.461   2.055  10.169  1.4803 -0.4937  1.2613
  117OSM    C4F12324   1.328   1.915  10.071  0.2219  0.5540  0.4383
  117OSM    H4F12325   1.234   1.974  10.070  0.4737  1.0202 -2.2403
  117OSM    H4G12326   1.309   1.806  10.068 -1.9466  0.8553  1.4553
  117OSM    C5F12327   1.387   1.955   9.937 -0.0703  0.4447 -0.1245
  117OSM    H5F12328   1.330   1.910   9.853  0.2177 -0.0743 -0.0418
  117OSM    H5G12329   1.494   1.928   9.926  0.9534  3.6552  0.8238
  117OSM    C6F12330   1.376   2.107   9.917  0.0761  0.1800 -0.2487
  117OSM    H6F12331   1.455   2.141   9.988  1.4139 -1.3603 -0.9162
  117OSM    H6G12332   1.277   2.146   9.947  0.0406 -1.5636  2.2214
  117OSM    C7F12333   1.389   2.154   9.767 -0.1663 -0.1487  0.0321
  117OSM    H7F12334   1.374   2.264   9.775 -2.0647 -0.1905 -2.0421
  117OSM    H7G12335   1.303   2.112   9.711  0.3275 -0.7098 -0.3169
  117OSM    C8F12336   1.516   2.112   9.693  0.0664  0.5876 -0.5224
  117OSM    H8F12337   1.517   2.002   9.677 -0.6932  0.8854 -3.0916
  117OSM    H8G12338   1.600   2.148   9.756  0.6284 -0.0558 -0.8924
  117OSM    C9F12339   1.520   2.177   9.557  0.1562  0.3024  0.5762
  117OSM    H9F12340   1.522   2.287   9.562  2.6710  0.2506  2.8022
  117OSM   C10F12341   1.515   2.110   9.440 -0.2246  0.7330  0.1721
  117OSM   H10F12342   1.537   2.165   9.347  0.1293 -0.1417 -0.2735
  117OSM   C11F12343   1.516   1.962   9.418 -0.0664  0.3423  0.4981
  117OSM   H11F12344   1.459   1.919   9.504  0.3769 -1.0996  0.0867
  117OSM   H11G12345   1.618   1.921   9.427  0.5087  1.1618 -1.7573
  117OSM   C12F12346   1.434   1.925   9.293  0.2748  0.4754  0.4395
  117OSM   H12F12347   1.350   1.998   9.286 -0.1125 -0.1104 -3.4009
  117OSM   H12G12348   1.396   1.824   9.318  0.3377 -0.0168 -1.3218
  117OSM   C13F12349   1.524   1.927   9.168  0.1782 -0.1824 -0.6265
  117OSM   H13F12350   1.605   2.000   9.190 -0.3585  0.2072  0.0954
  117OSM   H13G12351   1.469   1.953   9.075 -0.7972  0.2335  0.0578
  117OSM   C14F12352   1.585   1.791   9.145  0.4991 -0.2215  0.7302
  117OSM   H14F12353   1.666   1.803   9.069 -0.9006 -2.1612 -1.2169
  117OSM   H14G12354   1.511   1.740   9.080 -1.3792  2.4527  0.6405
  117OSM   C15F12355   1.647   1.717   9.262  0.4011  0.2133 -0.2474
  117OSM   H15F12356   1.575   1.685   9.340  0.4333  0.8091  0.0362
  117OSM   H15G12357   1.709   1.798   9.305 -1.5680  1.6017  0.1086
  117OSM   C16F12358   1.731   1.600   9.213  0.4267 -0.2779  0.3374
  117OSM   H16F12359   1.787   1.558   9.300  1.5227  1.1492  0.3442
  117OSM   H16G12360   1.811   1.625   9.140 -1.4826 -1.6384 -2.4125
  117OSM   C17F12361   1.643   1.486   9.156  0.4493  0.3546  0.0017
  117OSM   H17F12362   1.578   1.515   9.072  0.5976  0.7091  0.0083
  117OSM   H17G12363   1.574   1.461   9.240  0.0538  0.9778 -0.1337
  117OSM   C18F12364   1.716   1.348   9.128 -0.2143 -0.1009 -0.4673
  117OSM   H18F12365   1.766   1.316   9.222 -1.4970 -1.6251 -0.2631
  117OSM   H18G12366   1.799   1.350   9.054  0.2444  0.4290  0.0537
  117OSM   H18H12367   1.648   1.266   9.097 -0.2090 -0.5373  0.6456
  118OSM      N12368   1.200   5.495  10.919  0.4663  0.2640 -0.2982
  118OSM    C1512369   1.228   5.488  11.069  0.1926 -0.4329  0.6886
  118OSM   H15A12370   1.289   5.573  11.096 -1.7980  2.2247 -2.4320
  118OSM   H15B12371   1.277   5.394  11.090 -0.4956 -0.8673  0.3646
  118OSM   H15C12372   1.139   5.477  11.128 -0.6325 -1.2322 -0.6685
  118OSM    C1412373   1.120   5.373  10.877  0.3288  0.0427 -0.0367
  118OSM   H14A12374   1.176   5.281  10.878 -0.3141 -0.3963 -1.3373
  118OSM   H14B12375   1.092   5.374  10.773 -1.3903  0.8759  0.3851
  118OSM   H14C12376   1.032   5.359  10.939 -0.5839  1.3609 -0.9777
  118OSM    C1312377   1.116   5.611  10.895  0.2793  0.5720  0.0562
  118OSM   H13A12378   1.027   5.606  10.957  1.3413 -0.2596  1.5938
  118OSM   H13B12379   1.075   5.618  10.795  0.5561 -0.1853 -0.1167
  118OSM   H13C12380   1.169   5.702  10.915  0.5055  0.7238 -1.1681
  118OSM    C1212381   1.327   5.502  10.844  0.6170 -0.5454  0.5053
  118OSM   H12A12382   1.373   5.599  10.834  0.0676 -0.2477  0.8065
  118OSM   H12B12383   1.304   5.469  10.744  1.0539  0.8618 -0.0799
  118OSM    C1112384   1.448   5.411  10.889  0.0629  1.2578  0.2515
  118OSM   H11A12385   1.470   5.446  10.992  0.6406  0.1952  0.4981
  118OSM   H11B12386   1.526   5.441  10.817 -0.7719  2.9147 -0.0296
  118OSM      P12387   1.479   5.171  10.991 -0.0549 -0.0694 -0.4090
  118OSM    O1312388   1.622   5.209  10.999 -0.1712 -0.6813 -0.0049
  118OSM    O1412389   1.409   5.165  11.122 -0.1184  0.0362 -0.2444
  118OSM    O1112390   1.470   5.029  10.922  0.1492 -0.4457  0.7060
  118OSM    O1212391   1.411   5.266  10.880  0.8792 -0.5085  0.1388
  118OSM    C1S12392   1.357   4.991  10.840  0.1085  0.2648  0.1918
  118OSM    H1S12393   1.294   5.081  10.822 -1.1922 -0.5527  0.5431
  118OSM    H1T12394   1.290   4.919  10.891  0.4501 -1.8886 -2.2356
  118OSM     NF12395   1.285   4.890  10.618 -0.0624  0.1365 -0.5384
  118OSM    HNF12396   1.274   4.791  10.619 -2.9765  0.3536  1.0564
  118OSM    C2S12397   1.398   4.943  10.703 -0.1268  0.6077  0.2836
  118OSM    H2S12398   1.444   5.025  10.642  0.3444  0.0669 -0.0945
  118OSM    C3S12399   1.508   4.831  10.714 -0.0353  0.8807 -0.3014
  118OSM    H3S12400   1.478   4.745  10.776  1.2546  0.0574 -0.7779
  118OSM     O312401   1.623   4.874  10.790  0.3571 -0.1554  0.0212
  118OSM    HO312402   1.591   4.957  10.826 -0.7385 -1.3566  1.9771
  118OSM    C4S12403   1.553   4.789  10.573  1.1662 -0.4921  0.1665
  118OSM    H4S12404   1.503   4.695  10.544  1.2614  0.0504 -1.8483
  118OSM    C5S12405   1.625   4.847  10.473  0.2046  0.3585 -0.7421
  118OSM    H5S12406   1.663   4.949  10.486 -0.8435  0.8407 -1.3743
  118OSM    C6S12407   1.656   4.788  10.335  0.2705  0.4412  0.4975
  118OSM    H6S12408   1.635   4.679  10.328 -1.8862  0.6972  1.8422
  118OSM    H6T12409   1.766   4.799  10.322  0.2618  1.6268  1.2936
  118OSM    C7S12410   1.585   4.877  10.228 -0.4361 -0.2278  0.0365
  118OSM    H7S12411   1.587   4.983  10.262 -3.3139  0.3846 -1.3492
  118OSM    H7T12412   1.478   4.849  10.244 -0.2757 -0.0312  1.6728
  118OSM    C8S12413   1.640   4.857  10.086 -0.3396 -0.5240 -0.1959
  118OSM    H8S12414   1.750   4.845  10.100 -0.0334  1.9048 -0.0451
  118OSM    H8T12415   1.619   4.948  10.025 -0.1528 -0.3298  0.0273
  118OSM    C9S12416   1.586   4.735  10.013 -0.1879  0.3625  0.1644
  118OSM    H9S12417   1.491   4.779   9.973  0.1828  1.9422  0.9405
  118OSM    H9T12418   1.568   4.660  10.093 -1.2717  2.7006  2.2708
  118OSM   C10S12419   1.670   4.675   9.902  0.7623  0.3040  0.0967
  118OSM   H10S12420   1.625   4.583   9.860 -0.6111  0.8789  0.2723
  118OSM   H10T12421   1.761   4.629   9.946  0.5590 -0.3636 -0.1704
  118OSM   C11S12422   1.711   4.766   9.782  0.3434  0.3490  0.4724
  118OSM   H11S12423   1.803   4.824   9.807  1.8034 -0.2551 -2.9234
  118OSM   H11T12424   1.626   4.838   9.778 -0.0307 -0.0729  0.7882
  118OSM   C12S12425   1.742   4.683   9.648 -0.9257  0.3419  0.3959
  118OSM   H12S12426   1.642   4.649   9.615 -1.0926  0.2028  1.0301
  118OSM   H12T12427   1.820   4.604   9.658  0.9465  2.3498  3.0955
  118OSM   C13S12428   1.801   4.773   9.540  0.3788  0.0912 -0.1720
  118OSM   H13S12429   1.885   4.829   9.584 -0.6614  1.4696  0.1462
  118OSM   H13T12430   1.739   4.858   9.503 -0.5293  0.0041  1.1021
  118OSM   C14S12431   1.844   4.703   9.410  0.6987 -0.0582 -0.3215
  118OSM   H14S12432   1.752   4.681   9.351  0.7151  0.0076 -0.3730
  118OSM   H14T12433   1.899   4.607   9.421 -0.3703 -0.7429 -0.7826
  118OSM   C15S12434   1.941   4.784   9.334 -0.4397  0.2071  0.7060
  118OSM   H15S12435   2.043   4.779   9.376  0.2053  0.1271 -0.8215
  118OSM   H15T12436   1.912   4.892   9.340  0.6074  0.5768 -0.4803
  118OSM   C16S12437   1.934   4.744   9.187 -0.3119 -0.1326 -0.0690
  118OSM   H16S12438   1.828   4.735   9.153 -0.3285 -0.5255  0.0805
  118OSM   H16T12439   1.985   4.645   9.187 -0.4225 -0.2182  1.9490
  118OSM   C17S12440   2.017   4.842   9.097  0.2230 -0.6611  0.3461
  118OSM   H17S12441   2.124   4.838   9.129  0.8404 -0.3149 -1.5408
  118OSM   H17T12442   1.986   4.948   9.095 -1.7406 -1.1982  0.5975
  118OSM   C18S12443   2.003   4.804   8.952  0.3378 -0.1496  0.6981
  118OSM   H18S12444   1.905   4.840   8.916 -0.0721  0.3942  2.2959
  118OSM   H18T12445   2.001   4.695   8.935 -1.1138  0.1509 -1.4126
  118OSM   H18U12446   2.080   4.845   8.883  1.1811 -0.9842  1.1183
  118OSM    C1F12447   1.176   4.960  10.585  0.4899 -0.1766 -0.3315
  118OSM     OF12448   1.162   5.078  10.615 -0.0022 -0.4772  0.1150
  118OSM    C2F12449   1.056   4.889  10.525 -0.0323  0.4486  0.6928
  118OSM    H2F12450   0.979   4.960  10.487  0.6762  0.6202 -0.5158
  118OSM    H2G12451   0.999   4.827  10.597 -1.9575  0.5664 -0.6509
  118OSM    C3F12452   1.085   4.787  10.406 -0.3558 -0.4553 -0.2390
  118OSM    H3F12453   0.994   4.733  10.375 -1.9737  1.4487  0.9663
  118OSM    H3G12454   1.165   4.712  10.429  1.1226  1.4045  1.0957
  118OSM    C4F12455   1.138   4.862  10.288  0.3046 -0.7588  0.8902
  118OSM    H4F12456   1.223   4.928  10.317 -1.6712  1.7616  1.3528
  118OSM    H4G12457   1.058   4.933  10.255  0.3763 -1.3739 -0.7201
  118OSM    C5F12458   1.162   4.781  10.154  0.1184  0.6032 -0.4369
  118OSM    H5F12459   1.079   4.711  10.133  0.3256 -0.0565  0.8200
  118OSM    H5G12460   1.244   4.709  10.177 -1.2587 -0.8559  0.1043
  118OSM    C6F12461   1.195   4.863  10.032  0.4091 -0.4329 -0.1903
  118OSM    H6F12462   1.289   4.918  10.049  0.0014 -0.0124  0.7652
  118OSM    H6G12463   1.120   4.938   9.999 -0.5741 -1.0256  0.6454
  118OSM    C7F12464   1.222   4.777   9.905  1.2216  0.0090 -0.2731
  118OSM    H7F12465   1.126   4.732   9.870 -0.0616  2.5320 -0.2367
  118OSM    H7G12466   1.291   4.698   9.943  0.8647  0.8082  2.2620
  118OSM    C8F12467   1.272   4.853   9.782  0.1143 -0.3532  0.0378
  118OSM    H8F12468   1.344   4.932   9.813  2.6073 -2.2438 -0.6092
  118OSM    H8G12469   1.188   4.906   9.733  0.0782 -0.1586  0.3064
  118OSM    C9F12470   1.338   4.752   9.685 -0.1684 -0.3010  0.5493
  118OSM    H9F12471   1.403   4.689   9.747  0.5765 -1.1756 -1.0573
  118OSM   C10F12472   1.333   4.747   9.547 -0.2771 -0.2778 -0.6466
  118OSM   H10F12473   1.390   4.670   9.493  1.0240  0.9593 -1.0831
  118OSM   C11F12474   1.253   4.840   9.456 -0.1562  0.0345 -0.5949
  118OSM   H11F12475   1.249   4.944   9.495 -2.0122 -0.6244  1.1695
  118OSM   H11G12476   1.149   4.801   9.449  1.0661 -3.4493 -1.6390
  118OSM   C12F12477   1.312   4.854   9.309  0.6346  0.3074 -0.1756
  118OSM   H12F12478   1.253   4.916   9.239 -1.5915 -2.3295 -0.7684
  118OSM   H12G12479   1.325   4.752   9.267 -0.9342  0.0299 -0.0406
  118OSM   C13F12480   1.455   4.905   9.319 -0.0439 -0.4804 -1.4400
  118OSM   H13F12481   1.489   4.914   9.425 -3.2205  1.5102 -0.4619
  118OSM   H13G12482   1.455   5.007   9.275 -1.1249  0.8897  1.4397
  118OSM   C14F12483   1.551   4.824   9.229  0.4155  0.0506  0.3026
  118OSM   H14F12484   1.549   4.721   9.270  1.5822 -0.4614 -0.8505
  118OSM   H14G12485   1.655   4.859   9.248  0.5596  0.0400 -0.4480
  118OSM   C15F12486   1.507   4.831   9.081  0.3215  0.1152 -0.1720
  118OSM   H15F12487   1.399   4.816   9.064  0.4910 -2.6880  0.6854
  118OSM   H15G12488   1.559   4.758   9.015  0.4025  1.0290 -1.1599
  118OSM   C16F12489   1.559   4.958   9.017 -0.7621 -1.0011  1.0075
  118OSM   H16F12490   1.665   4.973   9.044 -0.7954 -0.5590  0.8930
  118OSM   H16G12491   1.494   5.047   9.028  0.7606  0.8472 -2.9491
  118OSM   C17F12492   1.559   4.941   8.862 -0.0414  0.8720 -0.9307
  118OSM   H17F12493   1.641   4.873   8.834  0.6505 -0.2108  3.0427
  118OSM   H17G12494   1.585   5.039   8.818 -0.7429 -0.0989 -3.7421
  118OSM   C18F12495   1.413   4.914   8.800 -0.2527  0.0293  0.3414
  118OSM   H18F12496   1.374   4.812   8.822  0.8781  0.0093  2.5739
  118OSM   H18G12497   1.425   4.934   8.692  0.5769 -0.4216  0.3438
  118OSM   H18H12498   1.346   4.985   8.854  0.8792  1.1913  0.2765
  119OSM      N12499   0.419   3.764  11.185  0.3593  0.1460 -0.5317
  119OSM    C1512500   0.379   3.903  11.237 -0.1700 -0.2532 -0.3704
  119OSM   H15A12501   0.434   3.980  11.186  0.9223 -1.7612 -1.5662
  119OSM   H15B12502   0.416   3.908  11.338  1.4616 -3.0481 -0.7135
  119OSM   H15C12503   0.273   3.926  11.239  0.1319  1.5213 -2.2411
  119OSM    C1412504   0.567   3.762  11.189  0.1330 -0.3427 -0.1395
  119OSM   H14A12505   0.602   3.773  11.291  1.2893  0.1417 -0.5647
  119OSM   H14B12506   0.609   3.833  11.119 -1.2775  0.0048 -0.6523
  119OSM   H14C12507   0.601   3.676  11.133  1.0357  0.3884 -0.7599
  119OSM    C1312508   0.360   3.659  11.276 -0.1178  0.3199  0.0564
  119OSM   H13A12509   0.380   3.566  11.226 -1.4313  0.6016 -1.0483
  119OSM   H13B12510   0.252   3.658  11.282 -0.0739  0.8591  1.2382
  119OSM   H13C12511   0.402   3.657  11.376 -2.9938 -0.8947  1.3438
  119OSM    C1212512   0.357   3.746  11.045  0.3201 -0.4648 -0.3233
  119OSM   H12A12513   0.397   3.819  10.975  0.3897 -0.7511 -0.5865
  119OSM   H12B12514   0.251   3.760  11.056  0.8078  2.0578  2.3994
  119OSM    C1112515   0.380   3.613  10.965 -0.3868  0.1300  0.9221
  119OSM   H11A12516   0.325   3.631  10.870 -0.3286 -0.5881  0.7481
  119OSM   H11B12517   0.331   3.524  11.009  0.8907  0.0516  2.2634
  119OSM      P12518   0.591   3.459  10.981 -0.3994 -0.1850 -0.8955
  119OSM    O1312519   0.732   3.492  11.009 -0.1969 -0.2042  0.2703
  119OSM    O1412520   0.519   3.392  11.088  0.4463 -0.2746 -0.4193
  119OSM    O1112521   0.581   3.377  10.850 -0.4997  0.4391  0.3250
  119OSM    O1212522   0.520   3.592  10.945 -0.2036  0.4388  0.1518
  119OSM    C1S12523   0.618   3.441  10.723 -0.0469  0.1605  0.2563
  119OSM    H1S12524   0.728   3.454  10.718  0.2489 -2.1460 -0.9567
  119OSM    H1T12525   0.569   3.539  10.706  0.4518  0.1413 -1.4239
  119OSM     NF12526   0.611   3.420  10.473  0.5229  0.2100 -0.3232
  119OSM    HNF12527   0.553   3.495  10.441  2.0777  1.7795  0.3510
  119OSM    C2S12528   0.569   3.364  10.601  0.2944  0.6424  0.7020
  119OSM    H2S12529   0.607   3.260  10.606 -2.0288 -0.2313  1.5650
  119OSM    C3S12530   0.414   3.367  10.603  0.3391  0.4012  0.4015
  119OSM    H3S12531   0.367   3.466  10.618 -0.4619  0.3025 -1.1746
  119OSM     O312532   0.360   3.283  10.703 -0.1587  0.4133 -0.1006
  119OSM    HO312533   0.435   3.264  10.760  0.5281 -1.2141 -1.4730
  119OSM    C4S12534   0.350   3.297  10.480  0.1502  0.2472  0.3326
  119OSM    H4S12535   0.366   3.189  10.468  0.3705  0.4717 -1.5861
  119OSM    C5S12536   0.275   3.372  10.391  0.2164  0.6623  0.0273
  119OSM    H5S12537   0.244   3.473  10.424  0.6643  0.1632  2.1097
  119OSM    C6S12538   0.212   3.315  10.269  0.6730  0.2830  0.2032
  119OSM    H6S12539   0.103   3.332  10.286  1.2172  3.2916  1.2746
  119OSM    H6T12540   0.226   3.205  10.263 -0.3781  0.0882  0.9175
  119OSM    C7S12541   0.263   3.379  10.143 -0.0196  0.4764 -0.2490
  119OSM    H7S12542   0.371   3.359  10.127  0.4658  2.4992  0.1803
  119OSM    H7T12543   0.250   3.488  10.127  0.7142  0.2120 -3.3358
  119OSM    C8S12544   0.187   3.328  10.014  0.0134  0.9119 -0.0227
  119OSM    H8S12545   0.077   3.314  10.026  0.1051 -1.1989 -1.1824
  119OSM    H8T12546   0.220   3.223   9.998 -1.7786  0.4001 -0.6966
  119OSM    C9S12547   0.223   3.400   9.888 -0.0201  0.4489  0.6629
  119OSM    H9S12548   0.331   3.391   9.865 -0.3946 -1.7942 -0.5459
  119OSM    H9T12549   0.184   3.503   9.904 -1.8699  0.1456 -1.3377
  119OSM   C10S12550   0.146   3.340   9.769  0.1939  0.5493 -0.2428
  119OSM   H10S12551   0.039   3.330   9.796  0.1508 -0.4927 -0.7804
  119OSM   H10T12552   0.182   3.237   9.750  0.8003  0.8266 -0.6723
  119OSM   C11S12553   0.179   3.404   9.631  0.3789 -1.3601 -0.2127
  119OSM   H11S12554   0.289   3.406   9.624  0.5752 -2.4295  1.7584
  119OSM   H11T12555   0.147   3.509   9.647  1.2935 -1.3082  1.4975
  119OSM   C12S12556   0.105   3.335   9.516 -0.4722  0.0616  0.4908
  119OSM   H12S12557  -0.006   3.331   9.524 -0.3600 -0.7251  1.9666
  119OSM   H12T12558   0.138   3.230   9.530 -1.4670 -0.2655  0.4118
  119OSM   C13S12559   0.141   3.394   9.378  0.6594 -0.1885  0.5640
  119OSM   H13S12560   0.251   3.403   9.384  0.5819  1.4747 -0.1718
  119OSM   H13T12561   0.093   3.494   9.371 -0.5165 -0.6928  1.1677
  119OSM   C14S12562   0.105   3.308   9.257  0.2674 -0.3218 -0.0974
  119OSM   H14S12563   0.005   3.263   9.274 -0.0676  0.8990  1.5081
  119OSM   H14T12564   0.180   3.227   9.245  1.3484  0.4089  1.3743
  119OSM   C15S12565   0.107   3.387   9.122  0.3436  0.1914 -0.0948
  119OSM   H15S12566   0.188   3.464   9.129  3.0225 -2.1510 -2.5353
  119OSM   H15T12567   0.016   3.449   9.112  1.2567  2.1747  2.5509
  119OSM   C16S12568   0.141   3.305   9.001  0.5173  0.7701  0.8255
  119OSM   H16S12569   0.088   3.207   8.998 -0.5248  1.3250 -1.4220
  119OSM   H16T12570   0.250   3.284   9.009  0.2563 -0.3076  1.9507
  119OSM   C17S12571   0.104   3.366   8.861  0.4185  0.2780  0.0497
  119OSM   H17S12572   0.145   3.293   8.788  0.6156  0.6526 -0.2193
  119OSM   H17T12573   0.165   3.457   8.843 -0.5437  1.1782  1.2178
  119OSM   C18S12574  -0.037   3.393   8.822 -0.5695 -0.7822  0.3795
  119OSM   H18S12575  -0.076   3.482   8.876 -2.2156 -1.0827 -0.2501
  119OSM   H18T12576  -0.109   3.309   8.823 -0.7305 -0.6380  0.7959
  119OSM   H18U12577  -0.035   3.437   8.720  4.1836  1.4455  1.1455
  119OSM    C1F12578   0.738   3.427  10.437  0.0240  0.8601  0.3688
  119OSM     OF12579   0.825   3.373  10.511 -0.2511  0.1231  0.1660
  119OSM    C2F12580   0.778   3.502  10.312 -0.7625 -0.1293 -0.9250
  119OSM    H2F12581   0.705   3.582  10.286 -1.1406 -0.5270 -1.1023
  119OSM    H2G12582   0.763   3.423  10.235  1.0019 -2.3713  0.9103
  119OSM    C3F12583   0.924   3.561  10.308 -0.3272 -0.7610  0.2701
  119OSM    H3F12584   0.999   3.481  10.323 -1.4523 -1.8572  0.2402
  119OSM    H3G12585   0.940   3.637  10.388  3.4120 -0.3941 -0.6452
  119OSM    C4F12586   0.955   3.628  10.172 -1.0141  0.1622  1.3081
  119OSM    H4F12587   1.059   3.666  10.179 -0.5858 -0.4877 -0.9645
  119OSM    H4G12588   0.877   3.704  10.154  0.5185  1.5900  0.4341
  119OSM    C5F12589   0.958   3.533  10.047 -0.7010 -0.5963 -0.2031
  119OSM    H5F12590   0.875   3.460  10.045 -0.2399 -1.1171 -2.6951
  119OSM    H5G12591   1.053   3.475  10.041 -0.6502 -0.6303  0.7243
  119OSM    C6F12592   0.938   3.609   9.917  0.4765  0.2064  0.5410
  119OSM    H6F12593   1.013   3.690   9.902  0.0890  0.3108 -1.0678
  119OSM    H6G12594   0.836   3.650   9.930  1.1947  1.7413  1.6960
  119OSM    C7F12595   0.940   3.512   9.798 -0.4701 -0.3142  0.2628
  119OSM    H7F12596   0.872   3.425   9.803  0.1030 -0.8010 -0.4164
  119OSM    H7G12597   1.033   3.452   9.791 -0.9619 -0.9531 -1.2333
  119OSM    C8F12598   0.900   3.576   9.659 -0.1803 -0.2474 -0.5056
  119OSM    H8F12599   0.813   3.646   9.663  1.6796  2.1687 -0.2288
  119OSM    H8G12600   0.876   3.489   9.594  2.1517 -3.2011  2.2648
  119OSM    C9F12601   1.009   3.659   9.606  0.0315 -0.2250  0.2205
  119OSM    H9F12602   1.054   3.725   9.682  0.1756  0.2028 -0.2326
  119OSM   C10F12603   1.051   3.659   9.477 -0.3041 -0.3232  0.0099
  119OSM   H10F12604   1.127   3.734   9.447 -0.7029 -0.0828 -0.4089
  119OSM   C11F12605   0.991   3.589   9.359  0.6503  0.2614 -0.1041
  119OSM   H11F12606   0.951   3.492   9.396  2.2373  0.0901  1.2731
  119OSM   H11G12607   1.065   3.560   9.282 -0.7942 -0.9436 -1.1139
  119OSM   C12F12608   0.881   3.671   9.288  0.1494  0.6153  0.6454
  119OSM   H12F12609   0.930   3.767   9.262  0.9283  0.8623  2.7904
  119OSM   H12G12610   0.794   3.699   9.351 -0.5159 -1.3529  0.6732
  119OSM   C13F12611   0.833   3.604   9.155  0.1613  0.1628 -0.8909
  119OSM   H13F12612   0.748   3.664   9.117 -1.6719 -1.2985  0.6809
  119OSM   H13G12613   0.795   3.503   9.181  0.6346  0.2078  0.0533
  119OSM   C14F12614   0.943   3.578   9.051  0.9348  0.0411 -0.7683
  119OSM   H14F12615   1.014   3.506   9.097 -0.5857 -1.6308 -0.9175
  119OSM   H14G12616   0.999   3.672   9.032  3.4395 -1.1145  0.4701
  119OSM   C15F12617   0.899   3.513   8.918 -0.3617  0.0336  0.5241
  119OSM   H15F12618   0.839   3.589   8.863 -3.1254 -1.7383  0.8642
  119OSM   H15G12619   0.815   3.443   8.940 -0.8211  0.6026  0.6263
  119OSM   C16F12620   1.017   3.456   8.843  0.0739 -0.5428  0.1179
  119OSM   H16F12621   1.082   3.393   8.909  1.6033  0.5401 -0.3008
  119OSM   H16G12622   1.079   3.536   8.798  0.9169 -1.4974 -0.4618
  119OSM   C17F12623   0.966   3.381   8.722  0.1572  0.2093  0.8215
  119OSM   H17F12624   0.922   3.450   8.646 -0.9354 -1.3258 -0.0026
  119OSM   H17G12625   0.887   3.311   8.757  0.6913  0.1659  1.9822
  119OSM   C18F12626   1.078   3.293   8.666  0.4977 -0.3354 -0.4416
  119OSM   H18F12627   1.041   3.234   8.579 -2.9477 -1.7877  1.7824
  119OSM   H18G12628   1.117   3.228   8.748 -0.8352 -1.5195 -0.6962
  119OSM   H18H12629   1.168   3.350   8.635 -0.9186  0.6049 -3.1706
  120OSM      N12630   2.425   0.289  10.687 -0.3299  0.1488  0.0685
  120OSM    C1512631   2.523   0.210  10.613  0.5536  0.3764  0.9286
  120OSM   H15A12632   2.620   0.257  10.602  1.3380 -1.0469  1.4412
  120OSM   H15B12633   2.493   0.193  10.511 -1.1825  2.1520  1.0908
  120OSM   H15C12634   2.551   0.120  10.666  1.6459  0.1958  0.0814
  120OSM    C1412635   2.496   0.322  10.818  0.0492  0.5692 -0.1839
  120OSM   H14A12636   2.531   0.235  10.872  0.7383 -0.1740 -1.7729
  120OSM   H14B12637   2.434   0.390  10.875  1.1982  1.9867 -0.5340
  120OSM   H14C12638   2.584   0.385  10.808  0.2855  0.9987  3.2675
  120OSM    C1312639   2.391   0.414  10.608 -0.3932 -0.4513  0.5898
  120OSM   H13A12640   2.314   0.463  10.666  0.6519 -2.2199  3.7373
  120OSM   H13B12641   2.357   0.398  10.507 -0.1925  2.3326  0.0096
  120OSM   H13C12642   2.480   0.477  10.607 -0.3606 -0.4622  1.8105
  120OSM    C1212643   2.299   0.207  10.710 -0.2377 -0.4734  0.6076
  120OSM   H12A12644   2.255   0.191  10.613  1.6406 -0.0595 -0.3476
  120OSM   H12B12645   2.228   0.264  10.769 -1.1890  0.0824 -1.0114
  120OSM    C1112646   2.321   0.078  10.795 -0.7066  0.3815  0.6790
  120OSM   H11A12647   2.222   0.041  10.830 -0.7040  2.2556  2.9470
  120OSM   H11B12648   2.375   0.106  10.888 -1.3510 -0.8908  1.4637
  120OSM      P12649   2.339  -0.162  10.685  0.4570  0.1106 -0.0555
  120OSM    O1312650   2.448  -0.260  10.704  0.0369 -0.3051 -0.0191
  120OSM    O1412651   2.211  -0.180  10.755 -0.3374  0.4520 -0.4520
  120OSM    O1112652   2.312  -0.173  10.534  0.1495 -0.4157 -0.2067
  120OSM    O1212653   2.399  -0.023  10.721  0.0476 -0.0933 -0.1133
  120OSM    C1S12654   2.387  -0.078  10.446 -0.2014 -0.6592 -0.2028
  120OSM    H1S12655   2.493  -0.109  10.441 -0.3910 -1.0872 -2.1227
  120OSM    H1T12656   2.381   0.028  10.478 -2.5461 -0.0002 -2.4894
  120OSM     NF12657   2.437  -0.031  10.210 -0.0533  0.5725 -0.4190
  120OSM    HNF12658   2.421   0.056  10.163  0.3914  0.6366 -0.4537
  120OSM    C2S12659   2.337  -0.088  10.298 -0.2446  0.1668 -0.3041
  120OSM    H2S12660   2.327  -0.195  10.270 -0.2088  0.7332 -2.7062
  120OSM    C3S12661   2.202  -0.013  10.288 -0.3889  0.1580  0.9322
  120OSM    H3S12662   2.223   0.096  10.294  1.8681  0.0394 -2.1672
  120OSM     O312663   2.105  -0.061  10.382 -0.8140 -0.0773 -0.5556
  120OSM    HO312664   2.147  -0.116  10.449 -1.3443  0.2992  0.1074
  120OSM    C4S12665   2.148  -0.030  10.148  0.8909  0.3849  0.1204
  120OSM    H4S12666   2.161  -0.132  10.109  2.0421  0.0763  1.2305
  120OSM    C5S12667   2.091   0.070  10.075  0.2389  0.3391  1.0691
  120OSM    H5S12668   2.081   0.169  10.122 -2.8396  0.6357  0.0570
  120OSM    C6S12669   2.041   0.066   9.935 -0.5650  0.2800 -0.9881
  120OSM    H6S12670   2.083   0.148   9.873  0.4212  0.2502 -0.3858
  120OSM    H6T12671   1.931   0.055   9.933 -0.6063  0.6844 -0.9397
  120OSM    C7S12672   2.096  -0.058   9.850 -0.0215  0.2675 -0.0623
  120OSM    H7S12673   2.056  -0.155   9.886  1.5710 -0.4940 -0.2395
  120OSM    H7T12674   2.205  -0.058   9.874  0.0382 -1.0232 -0.2966
  120OSM    C8S12675   2.084  -0.039   9.695 -0.1634 -0.0253  0.1418
  120OSM    H8S12676   2.132  -0.126   9.646  0.2890 -0.2798  1.0025
  120OSM    H8T12677   2.129   0.057   9.661 -0.9447 -0.4829 -2.3153
  120OSM    C9S12678   1.937  -0.044   9.654  0.3246 -0.1717 -0.0458
  120OSM    H9S12679   1.870  -0.000   9.732  0.8469 -1.6060  1.2598
  120OSM    H9T12680   1.910  -0.151   9.641 -0.0981 -0.0439 -0.2596
  120OSM   C10S12681   1.921   0.025   9.513  0.4982 -0.0105  0.3951
  120OSM   H10S12682   1.984  -0.031   9.440 -0.2891  0.2234 -0.4786
  120OSM   H10T12683   1.965   0.126   9.519  1.3618 -0.3841  0.5504
  120OSM   C11S12684   1.775   0.034   9.474 -0.7112 -0.0585  0.5988
  120OSM   H11S12685   1.713   0.095   9.543 -0.8588 -0.7864  1.1280
  120OSM   H11T12686   1.736  -0.070   9.488 -1.7711  0.3674  0.8780
  120OSM   C12S12687   1.755   0.057   9.318 -0.3651 -0.1548  0.6725
  120OSM   H12S12688   1.811  -0.027   9.272 -3.7937 -0.7513 -3.0669
  120OSM   H12T12689   1.803   0.153   9.289  1.9754 -1.3216  0.4851
  120OSM   C13S12690   1.605   0.055   9.295  0.2091 -0.1609  0.6195
  120OSM   H13S12691   1.563   0.149   9.336 -1.7725 -0.6864 -0.1098
  120OSM   H13T12692   1.556  -0.020   9.361 -1.8292  0.5707  0.0186
  120OSM   C14S12693   1.549   0.033   9.150  0.6717 -1.0610 -0.0684
  120OSM   H14S12694   1.594  -0.064   9.120 -0.4589 -1.3811 -0.7604
  120OSM   H14T12695   1.587   0.101   9.071  0.6634 -3.0001 -1.8009
  120OSM   C15S12696   1.398   0.019   9.145 -0.1857 -0.1585 -0.1657
  120OSM   H15S12697   1.372   0.126   9.159  0.5091 -0.1250  1.0555
  120OSM   H15T12698   1.356  -0.040   9.229  2.2237 -0.0576  1.1900
  120OSM   C16S12699   1.343  -0.025   9.011  0.1080  0.1167 -0.0573
  120OSM   H16S12700   1.366  -0.133   8.998  0.6823 -0.1507  2.5755
  120OSM   H16T12701   1.400   0.022   8.929 -0.5975 -0.8197 -1.1188
  120OSM   C17S12702   1.198   0.004   8.994  0.8959 -0.2050  0.0794
  120OSM   H17S12703   1.193   0.061   8.899 -1.1912 -0.6948 -0.1570
  120OSM   H17T12704   1.149   0.069   9.069  1.4859  1.6674 -1.0980
  120OSM   C18S12705   1.106  -0.124   8.972 -0.7596 -0.1447  0.0876
  120OSM   H18S12706   1.010  -0.116   9.027  0.2852  0.3762  1.9451
  120OSM   H18T12707   1.151  -0.212   9.023 -3.0057 -0.5634  1.4679
  120OSM   H18U12708   1.099  -0.135   8.862  0.9077  2.0738 -0.3193
  120OSM    C1F12709   2.552  -0.093  10.185  0.6868  0.1124 -0.3369
  120OSM     OF12710   2.579  -0.191  10.248 -0.0096  0.0575 -0.2119
  120OSM    C2F12711   2.638  -0.051  10.070 -0.2851  0.7796  0.3396
  120OSM    H2F12712   2.736  -0.028  10.116  1.4958 -0.2391 -2.6561
  120OSM    H2G12713   2.607   0.047  10.028  2.0148  1.2444 -0.4114
  120OSM    C3F12714   2.645  -0.163   9.958  0.4963  0.0707 -0.4760
  120OSM    H3F12715   2.655  -0.264  10.005  1.1827  0.4129  0.1316
  120OSM    H3G12716   2.734  -0.143   9.894  0.5098  3.0130  0.3301
  120OSM    C4F12717   2.528  -0.166   9.863 -0.1986 -1.0715 -0.8663
  120OSM    H4F12718   2.528  -0.069   9.807  0.9689  0.9960  2.4452
  120OSM    H4G12719   2.437  -0.173   9.927 -0.4522  1.8713 -0.7484
  120OSM    C5F12720   2.516  -0.282   9.764 -0.1080  0.2404 -0.1087
  120OSM    H5F12721   2.481  -0.362   9.832 -0.6803  0.7063  0.1525
  120OSM    H5G12722   2.618  -0.302   9.725 -0.7264  0.0561 -1.6766
  120OSM    C6F12723   2.418  -0.260   9.654  0.0629  0.5538  0.6614
  120OSM    H6F12724   2.318  -0.231   9.695 -1.6785 -2.5876 -0.9659
  120OSM    H6G12725   2.396  -0.357   9.605 -0.4401  0.7317  0.5226
  120OSM    C7F12726   2.458  -0.157   9.546 -0.7406  0.6069  0.1100
  120OSM    H7F12727   2.560  -0.163   9.501 -1.6501  0.6007 -2.1059
  120OSM    H7G12728   2.474  -0.056   9.590 -2.8157  0.6450  0.8809
  120OSM    C8F12729   2.352  -0.135   9.435 -0.7643 -0.2712 -0.1806
  120OSM    H8F12730   2.271  -0.077   9.485  0.5277  1.0834  0.4210
  120OSM    H8G12731   2.297  -0.226   9.403 -2.1125  0.2787  0.4805
  120OSM    C9F12732   2.408  -0.066   9.317  0.6833 -0.3510  0.4021
  120OSM    H9F12733   2.503  -0.098   9.271  1.2828 -0.2767  1.5376
  120OSM   C10F12734   2.359   0.052   9.265  0.1199 -0.6417  0.1983
  120OSM   H10F12735   2.408   0.096   9.178 -0.0765 -0.3080  0.2557
  120OSM   C11F12736   2.236   0.121   9.312  0.1312 -0.2041 -0.6198
  120OSM   H11F12737   2.228   0.231   9.302 -1.7550  0.3814  4.2494
  120OSM   H11G12738   2.228   0.100   9.421  0.6735  0.8152 -0.3761
  120OSM   C12F12739   2.118   0.059   9.235 -0.8317  0.0453 -0.0068
  120OSM   H12F12740   2.029   0.110   9.279 -0.7452  0.1847  0.0093
  120OSM   H12G12741   2.113  -0.051   9.242 -0.6562  0.0231 -0.2281
  120OSM   C13F12742   2.112   0.089   9.085 -0.4055 -0.2110  0.7509
  120OSM   H13F12743   2.178   0.022   9.027 -1.3808  1.2690 -2.2559
  120OSM   H13G12744   2.158   0.186   9.057 -1.7230  0.6809  1.5732
  120OSM   C14F12745   1.977   0.091   9.012  1.0829  0.2338 -0.2339
  120OSM   H14F12746   1.912   0.168   9.058  0.5390 -0.3491 -0.0162
  120OSM   H14G12747   1.919  -0.002   9.028  0.7418  0.7113  1.4699
  120OSM   C15F12748   1.983   0.115   8.864 -0.4516  0.5356  0.2977
  120OSM   H15F12749   2.038   0.032   8.814  0.5147 -0.5711  2.9976
  120OSM   H15G12750   2.038   0.210   8.848 -2.2925  1.2984 -1.9893
  120OSM   C16F12751   1.843   0.123   8.793  1.6422 -0.1467 -0.4960
  120OSM   H16F12752   1.793   0.026   8.812  0.0380  0.5809 -0.8329
  120OSM   H16G12753   1.858   0.136   8.684  0.0748 -1.3698 -0.8932
  120OSM   C17F12754   1.746   0.225   8.847  0.2162  0.1066  0.5002
  120OSM   H17F12755   1.793   0.325   8.838 -0.3730  0.2078 -1.9887
  120OSM   H17G12756   1.727   0.197   8.953 -2.4301 -0.0145  0.0780
  120OSM   C18F12757   1.612   0.228   8.780  0.1758 -0.2721  0.4598
  120OSM   H18F12758   1.568   0.127   8.795 -1.3058  0.0411 -1.2697
  120OSM   H18G12759   1.635   0.240   8.672  0.8064  0.6388  0.6902
  120OSM   H18H12760   1.552   0.317   8.809  1.6359  1.0645 -0.4330
  121OSM      N12761   1.647   3.596  11.235  0.2618 -0.3454 -0.3653
  121OSM    C1512762   1.723   3.598  11.367 -1.1977  0.3973 -0.5944
  121OSM   H15A12763   1.822   3.560  11.350 -0.4478  1.9894 -0.0232
  121OSM   H15B12764   1.691   3.530  11.445  0.9145 -0.9572 -0.8326
  121OSM   H15C12765   1.743   3.697  11.407  3.0942  0.1496 -1.6192
  121OSM    C1412766   1.640   3.452  11.183  0.3757  0.4921  1.0100
  121OSM   H14A12767   1.583   3.388  11.249  1.2693  0.3933  1.7032
  121OSM   H14B12768   1.729   3.400  11.152 -0.9148 -0.5048 -1.2760
  121OSM   H14C12769   1.577   3.459  11.095  1.9326 -0.3754 -0.2140
  121OSM    C1312770   1.509   3.647  11.268 -0.4356 -0.0496  0.3969
  121OSM   H13A12771   1.518   3.751  11.295 -0.9015  0.4329 -1.2349
  121OSM   H13B12772   1.456   3.590  11.343  0.2231  0.3765  1.2023
  121OSM   H13C12773   1.440   3.637  11.186  0.5341 -2.3278 -0.2175
  121OSM    C1212774   1.717   3.680  11.130  0.0010  0.1102 -0.6438
  121OSM   H12A12775   1.675   3.652  11.035  0.6936 -3.3934 -0.0481
  121OSM   H12B12776   1.821   3.649  11.131 -0.1090 -0.2766  0.4536
  121OSM    C1112777   1.715   3.834  11.146 -0.2701  0.6554  0.2857
  121OSM   H11A12778   1.609   3.860  11.168 -0.7476 -0.9100 -0.0655
  121OSM   H11B12779   1.748   3.889  11.055 -1.1365  2.3112  0.9177
  121OSM      P12780   1.957   3.888  11.214  0.1772  0.1297  0.2247
  121OSM    O1312781   2.037   3.946  11.325  0.6116  0.5332 -0.4511
  121OSM    O1412782   2.004   3.751  11.178  0.1405  0.5282 -0.0437
  121OSM    O1112783   1.960   3.984  11.090 -0.2447 -0.0843  0.5581
  121OSM    O1212784   1.807   3.876  11.251  0.4686  0.1365  0.3560
  121OSM    C1S12785   2.081   3.991  11.010  0.2210  0.2754  0.1976
  121OSM    H1S12786   2.139   3.899  10.989  0.4705  0.9328 -2.3462
  121OSM    H1T12787   2.161   4.055  11.051 -0.3976  1.2335 -0.0582
  121OSM     NF12788   2.156   4.074  10.783  0.4505  0.1518 -0.6801
  121OSM    HNF12789   2.205   4.161  10.781  0.0551  0.3759 -0.5200
  121OSM    C2S12790   2.046   4.071  10.877 -0.3204  0.2529 -0.2728
  121OSM    H2S12791   1.968   4.013  10.822  0.5326 -0.1727 -1.0647
  121OSM    C3S12792   1.991   4.213  10.911 -0.1159 -0.8123  0.4287
  121OSM    H3S12793   2.073   4.269  10.960 -0.3874  0.0859 -0.1098
  121OSM     O312794   1.891   4.215  11.016 -1.1186 -0.3667  0.2191
  121OSM    HO312795   1.885   4.126  11.051 -0.6624  0.2303  1.9295
  121OSM    C4S12796   1.952   4.286  10.787  0.4326  0.4992  0.7813
  121OSM    H4S12797   2.017   4.368  10.751  0.4003  0.9231  1.6689
  121OSM    C5S12798   1.839   4.263  10.718  0.0018  0.3165 -0.0035
  121OSM    H5S12799   1.782   4.180  10.762  1.8998  0.9106  4.1719
  121OSM    C6S12800   1.784   4.338  10.597 -0.3041 -0.0944  0.5102
  121OSM    H6S12801   1.858   4.416  10.569  0.6882 -0.4760  1.9626
  121OSM    H6T12802   1.692   4.393  10.627  0.1040  0.1752  1.2886
  121OSM    C7S12803   1.753   4.248  10.477 -0.3886 -0.5166  0.8939
  121OSM    H7S12804   1.681   4.167  10.505 -0.4659  0.1076  2.6583
  121OSM    H7T12805   1.844   4.197  10.440 -0.2046 -0.7766  1.6767
  121OSM    C8S12806   1.702   4.329  10.349 -0.2010 -0.1189  0.3433
  121OSM    H8S12807   1.775   4.399  10.305 -2.3982  1.2350 -1.3927
  121OSM    H8T12808   1.610   4.389  10.366 -0.5551  0.5615 -3.3036
  121OSM    C9S12809   1.674   4.240  10.224 -0.3244 -0.4298 -0.1365
  121OSM    H9S12810   1.587   4.172  10.241 -0.2302 -0.6538 -0.5361
  121OSM    H9T12811   1.762   4.175  10.204 -0.4285 -0.5609 -0.1738
  121OSM   C10S12812   1.647   4.320  10.088  0.3672 -0.0673 -0.2877
  121OSM   H10S12813   1.734   4.388  10.078 -0.7664  1.4650 -0.1126
  121OSM   H10T12814   1.554   4.381  10.098 -0.0639 -0.5889 -0.9982
  121OSM   C11S12815   1.655   4.233   9.959  0.0773  0.1554  0.6218
  121OSM   H11S12816   1.571   4.161   9.971  2.1791 -2.4235  0.9574
  121OSM   H11T12817   1.746   4.169   9.958  0.4148  0.6374  0.2176
  121OSM   C12S12818   1.642   4.308   9.831  1.0678 -0.1236 -0.4689
  121OSM   H12S12819   1.725   4.376   9.801  1.1951 -0.5876 -1.2043
  121OSM   H12T12820   1.556   4.377   9.847  0.5775 -0.1721 -2.5472
  121OSM   C13S12821   1.606   4.230   9.707  0.3725 -0.2260 -0.4921
  121OSM   H13S12822   1.514   4.172   9.732 -0.0507  0.3790 -0.6184
  121OSM   H13T12823   1.684   4.151   9.705 -2.1523 -2.8945 -1.8110
  121OSM   C14S12824   1.602   4.305   9.573  0.4040 -0.3412 -0.7769
  121OSM   H14S12825   1.702   4.354   9.573  0.1338  0.2203 -0.1607
  121OSM   H14T12826   1.518   4.377   9.574  0.0516 -0.7600  0.3061
  121OSM   C15S12827   1.578   4.210   9.455 -0.5973  0.1392 -0.0443
  121OSM   H15S12828   1.473   4.175   9.446 -0.2867 -0.3908 -2.0419
  121OSM   H15T12829   1.638   4.121   9.480 -0.6323 -0.0029 -0.4537
  121OSM   C16S12830   1.597   4.280   9.317 -0.1704  0.6153 -0.6499
  121OSM   H16S12831   1.530   4.368   9.311 -2.3311 -0.8566  0.3740
  121OSM   H16T12832   1.562   4.212   9.236  0.1999  0.4567 -0.6795
  121OSM   C17S12833   1.741   4.337   9.296  0.5036  0.4510  0.5254
  121OSM   H17S12834   1.812   4.252   9.308  1.2389  0.8975 -0.5662
  121OSM   H17T12835   1.763   4.416   9.371  1.2207  1.4796 -0.7447
  121OSM   C18S12836   1.758   4.407   9.156  0.2531  0.3445  1.1351
  121OSM   H18S12837   1.855   4.454   9.128  1.1544 -1.9030  0.1747
  121OSM   H18T12838   1.672   4.476   9.146 -0.4307 -0.5781  0.4354
  121OSM   H18U12839   1.748   4.333   9.073  0.2756 -0.0966  1.5235
  121OSM    C1F12840   2.200   3.958  10.724 -0.1066 -0.2749 -0.7129
  121OSM     OF12841   2.128   3.858  10.726 -0.8843  0.1438 -0.1008
  121OSM    C2F12842   2.318   3.972  10.645 -0.3001 -0.1052  0.3346
  121OSM    H2F12843   2.404   3.971  10.715 -1.0812  1.9679  1.3949
  121OSM    H2G12844   2.320   4.073  10.599 -0.6425  0.5730  1.7571
  121OSM    C3F12845   2.336   3.856  10.547  0.0378  0.4036  0.2744
  121OSM    H3F12846   2.247   3.847  10.481  0.1606 -3.3499  0.4078
  121OSM    H3G12847   2.342   3.768  10.613 -1.9957  1.4172  1.8949
  121OSM    C4F12848   2.470   3.860  10.461  0.1327  0.2289 -0.3798
  121OSM    H4F12849   2.496   3.766  10.408 -2.2956 -0.5882 -0.2088
  121OSM    H4G12850   2.548   3.880  10.538 -1.5915 -0.2355  1.5896
  121OSM    C5F12851   2.446   3.969  10.358  0.4796 -0.4413 -0.1375
  121OSM    H5F12852   2.403   4.063  10.400  2.1560 -0.0665  0.8158
  121OSM    H5G12853   2.367   3.928  10.291  1.7757  0.9181 -2.6338
  121OSM    C6F12854   2.570   4.002  10.276  0.5519 -0.1488 -0.4655
  121OSM    H6F12855   2.585   3.914  10.210 -0.1432  0.0272 -0.8642
  121OSM    H6G12856   2.663   4.004  10.337  1.2039  0.8593 -1.4416
  121OSM    C7F12857   2.551   4.132  10.197  0.0322 -0.1401 -0.0242
  121OSM    H7F12858   2.555   4.216  10.270  2.4326  0.4864 -0.8112
  121OSM    H7G12859   2.450   4.137  10.152 -0.3422 -0.6257  0.7417
  121OSM    C8F12860   2.658   4.141  10.088  0.0321 -0.7400  0.1679
  121OSM    H8F12861   2.659   4.037  10.048  2.3392  0.4689 -3.3638
  121OSM    H8G12862   2.757   4.171  10.129 -0.6863  0.6622  0.9632
  121OSM    C9F12863   2.621   4.247   9.985  0.9048  0.6902 -0.1193
  121OSM    H9F12864   2.517   4.284   9.989  1.6503  2.7553  1.5276
  121OSM   C10F12865   2.699   4.287   9.884  0.4223 -0.0189 -0.8256
  121OSM   H10F12866   2.663   4.357   9.807  1.8826  0.9441 -0.6648
  121OSM   C11F12867   2.845   4.242   9.858 -0.3057  1.4752  0.0657
  121OSM   H11F12868   2.869   4.168   9.937 -0.5309 -1.2337 -2.2638
  121OSM   H11G12869   2.912   4.331   9.860  0.0025  1.2556  2.1081
  121OSM   C12F12870   2.849   4.179   9.721  0.0785 -0.1724  0.6564
  121OSM   H12F12871   2.773   4.228   9.656  0.5422  2.0069  1.6394
  121OSM   H12G12872   2.847   4.068   9.725  2.6087 -0.2800  0.1308
  121OSM   C13F12873   2.986   4.213   9.647 -0.9387  0.3182 -0.4064
  121OSM   H13F12874   3.078   4.199   9.708  0.5638 -0.9027 -2.7934
  121OSM   H13G12875   2.997   4.317   9.608  1.0550  0.0928 -0.5821
  121OSM   C14F12876   3.011   4.121   9.534 -0.2804 -0.6555 -0.3086
  121OSM   H14F12877   2.931   4.143   9.461  0.0095  0.3009 -0.3562
  121OSM   H14G12878   2.982   4.022   9.574 -0.5114 -0.0419  1.0957
  121OSM   C15F12879   3.153   4.131   9.481  0.4143  0.4352 -0.0629
  121OSM   H15F12880   3.222   4.101   9.563  1.2376 -1.3209 -1.3296
  121OSM   H15G12881   3.175   4.234   9.445 -0.7632  1.3745  1.7292
  121OSM   C16F12882   3.191   4.040   9.361  0.5435 -0.1978 -1.0306
  121OSM   H16F12883   3.116   4.064   9.282  0.6042 -0.1490 -1.0731
  121OSM   H16G12884   3.173   3.933   9.387 -1.1415 -0.1311 -1.7650
  121OSM   C17F12885   3.334   4.057   9.306 -0.3005  0.0610 -0.3636
  121OSM   H17F12886   3.406   4.055   9.390  0.5807  0.5236 -1.0839
  121OSM   H17G12887   3.322   4.159   9.263  0.1234  0.6187  0.7955
  121OSM   C18F12888   3.367   3.959   9.201 -0.5120  0.1021  0.3425
  121OSM   H18F12889   3.467   3.981   9.158  0.2783 -0.4625  1.8248
  121OSM   H18G12890   3.289   3.954   9.122 -1.2200 -2.5037  1.1017
  121OSM   H18H12891   3.370   3.858   9.248  0.4565 -0.7912 -1.5001
  122OSM      N12892   2.316   1.932  11.423  0.4103  0.8427  0.4310
  122OSM    C1512893   2.436   1.996  11.483  0.4574 -0.4214 -0.6575
  122OSM   H15A12894   2.504   2.021  11.403  0.4529  1.3993 -0.1433
  122OSM   H15B12895   2.482   1.937  11.561  3.0993  2.4339  0.1694
  122OSM   H15C12896   2.407   2.091  11.526 -2.6580 -0.9976 -1.2643
  122OSM    C1412897   2.353   1.786  11.410  0.1787 -0.6906  0.3660
  122OSM   H14A12898   2.442   1.781  11.350 -0.6599  1.9603 -1.2556
  122OSM   H14B12899   2.282   1.736  11.346  0.9676 -0.2630 -0.8903
  122OSM   H14C12900   2.368   1.739  11.506  4.2294 -0.8816 -0.2048
  122OSM    C1312901   2.209   1.931  11.527  0.0412 -0.1031 -0.2708
  122OSM   H13A12902   2.129   1.870  11.488 -0.3529  0.6811 -0.6975
  122OSM   H13B12903   2.172   2.031  11.543 -1.6109 -0.5008 -1.4204
  122OSM   H13C12904   2.229   1.888  11.624  0.0811  1.3670  0.3868
  122OSM    C1212905   2.265   1.988  11.293 -0.9645  0.5193 -0.3268
  122OSM   H12A12906   2.225   2.087  11.312  0.0474  0.8968 -0.0967
  122OSM   H12B12907   2.183   1.926  11.261  0.5374 -2.6923  1.5354
  122OSM    C1112908   2.366   1.995  11.181 -0.2389  0.0148 -0.6577
  122OSM   H11A12909   2.315   2.034  11.091  0.3734  0.4791 -0.8175
  122OSM   H11B12910   2.411   1.894  11.173  1.2397  0.4393  1.3577
  122OSM      P12911   2.611   2.100  11.167  0.2790  0.2636 -0.1175
  122OSM    O1312912   2.630   2.236  11.114 -0.1806  0.2738 -0.1412
  122OSM    O1412913   2.714   2.059  11.265 -0.1336  0.3468 -0.0533
  122OSM    O1112914   2.611   1.988  11.046 -0.5246  0.4606 -0.1450
  122OSM    O1212915   2.468   2.089  11.223  0.1136 -0.6796 -0.1898
  122OSM    C1S12916   2.584   2.018  10.909  0.3808  0.2438  0.3238
  122OSM    H1S12917   2.640   2.108  10.877  2.3388 -1.1597 -0.4473
  122OSM    H1T12918   2.475   2.030  10.892  0.1403  0.7897  2.0739
  122OSM     NF12919   2.597   1.929  10.676  0.4148  0.0167  0.0068
  122OSM    HNF12920   2.517   1.889  10.630  1.8665 -0.4117 -2.3225
  122OSM    C2S12921   2.610   1.891  10.817  0.2988 -0.7693  0.1664
  122OSM    H2S12922   2.718   1.866  10.825  0.7108  0.7517 -0.3593
  122OSM    C3S12923   2.524   1.768  10.860  0.1711  0.8954 -0.9992
  122OSM    H3S12924   2.418   1.795  10.843 -0.2869 -1.7030 -2.9723
  122OSM     O312925   2.544   1.736  11.000  0.1698  0.4782 -0.2219
  122OSM    HO312926   2.589   1.814  11.034 -0.0994  0.0691  1.1391
  122OSM    C4S12927   2.554   1.656  10.771 -0.0804  0.2665  0.0173
  122OSM    H4S12928   2.474   1.639  10.697 -1.9929 -0.7461  2.1845
  122OSM    C5S12929   2.663   1.571  10.761 -0.2891 -0.5289 -0.9228
  122OSM    H5S12930   2.743   1.595  10.833  0.9301 -2.1137 -1.6777
  122OSM    C6S12931   2.703   1.471  10.661 -0.1102  0.1242 -0.0350
  122OSM    H6S12932   2.693   1.372  10.710 -1.6927  0.0918 -0.3658
  122OSM    H6T12933   2.812   1.485  10.649  0.3472  0.1044  3.2193
  122OSM    C7S12934   2.647   1.469  10.520  0.0654  0.6463 -0.9439
  122OSM    H7S12935   2.538   1.446  10.517  0.2629 -0.4710 -0.3116
  122OSM    H7T12936   2.697   1.382  10.471  1.0037  0.9474 -0.5471
  122OSM    C8S12937   2.670   1.602  10.444 -0.5041 -0.1264  0.6201
  122OSM    H8S12938   2.780   1.621  10.445 -0.3062 -0.2098 -3.2362
  122OSM    H8T12939   2.622   1.689  10.493  0.7567  1.6187 -1.0690
  122OSM    C9S12940   2.622   1.582  10.298  0.4269 -0.2433  0.1135
  122OSM    H9S12941   2.525   1.529  10.291  0.1596  0.4170 -2.3417
  122OSM    H9T12942   2.702   1.533  10.239  2.2649  0.7765  1.6323
  122OSM   C10S12943   2.590   1.725  10.236  0.1649 -0.2326  0.5480
  122OSM   H10S12944   2.685   1.780  10.222 -0.2491  0.3473 -0.0786
  122OSM   H10T12945   2.527   1.776  10.312 -0.0970 -0.7299  0.6688
  122OSM   C11S12946   2.512   1.725  10.107  0.2432  0.3809 -0.0692
  122OSM   H11S12947   2.555   1.654  10.032 -1.9881 -0.7479 -0.3701
  122OSM   H11T12948   2.512   1.823  10.056  2.0874 -0.7089 -2.3706
  122OSM   C12S12949   2.363   1.695  10.127 -0.5555  0.0256 -0.7004
  122OSM   H12S12950   2.335   1.760  10.213 -0.9811 -0.7103 -0.2777
  122OSM   H12T12951   2.351   1.595  10.174 -1.6423  1.2282  1.7404
  122OSM   C13S12952   2.275   1.705  10.005  0.2525  0.5211  0.3048
  122OSM   H13S12953   2.297   1.787   9.934 -0.6459 -0.4504 -1.1510
  122OSM   H13T12954   2.173   1.727  10.045  0.5499 -1.3481  2.2811
  122OSM   C14S12955   2.267   1.572   9.927 -0.8659 -0.3200 -0.3851
  122OSM   H14S12956   2.242   1.490   9.997  2.3229 -0.5163  0.7109
  122OSM   H14T12957   2.372   1.551   9.896 -0.6273  0.1373  0.0907
  122OSM   C15S12958   2.176   1.573   9.801 -0.2448 -0.5349  0.9504
  122OSM   H15S12959   2.175   1.678   9.764  1.5027 -0.0914  2.0158
  122OSM   H15T12960   2.070   1.552   9.827 -1.0546 -0.6740 -2.1050
  122OSM   C16S12961   2.225   1.470   9.694  0.5636  0.4841 -0.0892
  122OSM   H16S12962   2.191   1.372   9.734  0.3532  0.6651  0.1809
  122OSM   H16T12963   2.336   1.468   9.684  0.7898 -0.0463  1.9692
  122OSM   C17S12964   2.163   1.489   9.552 -0.5318 -0.0035  0.7724
  122OSM   H17S12965   2.224   1.419   9.491 -2.8924  0.4466 -2.3855
  122OSM   H17T12966   2.182   1.592   9.515 -0.9535  1.3437  3.9746
  122OSM   C18S12967   2.010   1.470   9.528  0.1407 -0.3302 -0.0223
  122OSM   H18S12968   1.975   1.380   9.584  3.0628  0.1847  2.9871
  122OSM   H18T12969   1.996   1.452   9.420  3.1578 -0.2812 -0.4924
  122OSM   H18U12970   1.966   1.555   9.584 -0.1742 -2.0727  2.5409
  122OSM    C1F12971   2.695   2.001  10.613  1.6338 -0.3208  0.2778
  122OSM     OF12972   2.792   2.029  10.678 -0.0921 -0.3499  0.5454
  122OSM    C2F12973   2.680   2.036  10.470 -0.5789  0.4139  0.7228
  122OSM    H2F12974   2.579   2.065  10.435 -1.1082 -0.1492  1.7427
  122OSM    H2G12975   2.717   1.944  10.419 -1.4112  0.1424  0.5955
  122OSM    C3F12976   2.781   2.147  10.432 -0.6401 -0.5121  0.0689
  122OSM    H3F12977   2.880   2.130  10.479 -0.2801 -1.0820 -0.8805
  122OSM    H3G12978   2.748   2.233  10.495 -0.6415 -1.0709  0.8403
  122OSM    C4F12979   2.794   2.165  10.278  0.3428 -0.3189 -0.3730
  122OSM    H4F12980   2.700   2.217  10.251  0.5027  1.4417  2.1376
  122OSM    H4G12981   2.791   2.065  10.229  4.4575 -0.4569 -0.7227
  122OSM    C5F12982   2.916   2.256  10.230 -0.1061  0.3615  0.7425
  122OSM    H5F12983   3.015   2.217  10.262 -0.7152 -0.1984  1.9814
  122OSM    H5G12984   2.904   2.355  10.279  2.4277  0.3848  1.4841
  122OSM    C6F12985   2.924   2.293  10.083  0.0326  0.1940 -0.3939
  122OSM    H6F12986   2.942   2.203  10.019  0.9184  0.4550 -0.5258
  122OSM    H6G12987   3.007   2.362  10.059 -0.5217  0.1225 -2.8276
  122OSM    C7F12988   2.797   2.350  10.027  1.0113  0.0316  0.1361
  122OSM    H7F12989   2.756   2.428  10.095  6.0062  1.1176  2.3687
  122OSM    H7G12990   2.716   2.274  10.025 -0.8568  1.8858  1.3427
  122OSM    C8F12991   2.830   2.422   9.888  0.3048 -0.0627 -0.3614
  122OSM    H8F12992   2.920   2.377   9.841 -0.0934  0.8388 -2.0524
  122OSM    H8G12993   2.853   2.527   9.918 -0.2006 -0.2151  0.6208
  122OSM    C9F12994   2.710   2.412   9.805 -0.1319 -0.2408  0.0296
  122OSM    H9F12995   2.630   2.473   9.850 -0.2639 -1.0938  1.0031
  122OSM   C10F12996   2.699   2.353   9.682  0.4958 -0.6292  0.3199
  122OSM   H10F12997   2.603   2.363   9.629 -1.0882 -3.2371  2.4277
  122OSM   C11F12998   2.809   2.282   9.620 -0.6269  0.6185  0.3207
  122OSM   H11F12999   2.795   2.173   9.634 -0.6459  0.4920 -0.6479
  122OSM   H11G13000   2.911   2.317   9.648 -0.1620  0.4901 -1.1651
  122OSM   C12F13001   2.817   2.290   9.468  0.1778  0.7322  0.4688
  122OSM   H12F13002   2.907   2.234   9.434 -0.1708 -1.0648  2.2941
  122OSM   H12G13003   2.826   2.396   9.437  1.4500  0.0956 -1.5309
  122OSM   C13F13004   2.707   2.227   9.391  0.5637  0.2204  0.2614
  122OSM   H13F13005   2.615   2.289   9.397 -0.9972 -1.7026 -2.0602
  122OSM   H13G13006   2.693   2.123   9.427  1.1487 -0.0505 -0.2721
  122OSM   C14F13007   2.728   2.212   9.239 -0.5711 -0.1567 -0.4690
  122OSM   H14F13008   2.638   2.163   9.196 -0.6449  0.3099 -0.8490
  122OSM   H14G13009   2.820   2.150   9.235  0.2096  0.6457  2.4029
  122OSM   C15F13010   2.750   2.342   9.160 -0.5311 -0.7042 -0.0363
  122OSM   H15F13011   2.845   2.394   9.187  0.0216 -0.2780 -2.5030
  122OSM   H15G13012   2.666   2.413   9.175  1.3347  1.1579  2.4566
  122OSM   C16F13013   2.747   2.297   9.010  0.2180  0.6334  0.2350
  122OSM   H16F13014   2.645   2.255   9.000 -1.2416  2.9795  3.3494
  122OSM   H16G13015   2.823   2.217   8.996 -0.1248  0.3086  0.2433
  122OSM   C17F13016   2.752   2.411   8.902  0.0751  0.6402  0.9546
  122OSM   H17F13017   2.854   2.455   8.891  1.1246 -1.6834  0.6668
  122OSM   H17G13018   2.670   2.478   8.935  1.1278  2.2843  0.3967
  122OSM   C18F13019   2.723   2.363   8.756 -0.6803 -0.0211 -0.4049
  122OSM   H18F13020   2.807   2.307   8.709 -0.6161  0.7043 -1.1722
  122OSM   H18G13021   2.726   2.455   8.693  2.2718  0.1831 -0.1290
  122OSM   H18H13022   2.622   2.319   8.743 -0.8163  0.5657 -1.4513
  123OSM      N13023   1.919   0.262   6.148  0.2108 -0.1011 -0.7092
  123OSM    C1513024   1.892   0.348   6.029  0.5277 -0.4645  0.2072
  123OSM   H15A13025   1.958   0.311   5.952  1.7704  0.6627  0.6908
  123OSM   H15B13026   1.923   0.451   6.037 -0.2041 -0.2347  0.0740
  123OSM   H15C13027   1.791   0.364   5.995  1.0269  0.5832 -0.8632
  123OSM    C1413028   1.870   0.331   6.272  0.2636  0.0035 -0.0158
  123OSM   H14A13029   1.774   0.375   6.251  0.1446  0.4430  1.3303
  123OSM   H14B13030   1.933   0.415   6.296 -1.8448  1.9799 -0.9795
  123OSM   H14C13031   1.849   0.266   6.356 -0.0484  1.8660  1.4229
  123OSM    C1313032   1.845   0.129   6.132 -0.9490  0.2835  0.4379
  123OSM   H13A13033   1.861   0.068   6.220 -1.8392 -1.3545 -0.5034
  123OSM   H13B13034   1.881   0.081   6.043 -1.2969 -1.4705  1.2136
  123OSM   H13C13035   1.738   0.143   6.141 -1.1780  0.8398 -2.2778
  123OSM    C1213036   2.075   0.231   6.163  0.2547 -0.5944 -0.3087
  123OSM   H12A13037   2.127   0.325   6.166  1.4585 -1.2296 -0.8421
  123OSM   H12B13038   2.113   0.189   6.072  2.6356 -0.8274  0.7339
  123OSM    C1113039   2.122   0.141   6.280 -0.5884 -0.2799  0.4818
  123OSM   H11A13040   2.068   0.195   6.361 -1.2667 -0.9316  0.4719
  123OSM   H11B13041   2.230   0.142   6.303 -0.9316 -0.6750  2.2707
  123OSM      P13042   2.152  -0.096   6.185 -0.2398 -0.1066 -0.3675
  123OSM    O1313043   2.066  -0.214   6.192  0.5239  0.4375 -0.3009
  123OSM    O1413044   2.166  -0.040   6.052  0.5494 -0.1335 -0.1806
  123OSM    O1113045   2.294  -0.117   6.248  0.1575  0.1294  0.2361
  123OSM    O1213046   2.082   0.010   6.270 -0.2848  0.1245 -0.2776
  123OSM    C1S13047   2.309  -0.131   6.393  0.1294 -0.2231  0.1257
  123OSM    H1S13048   2.217  -0.130   6.456  1.0240 -1.6256  1.5172
  123OSM    H1T13049   2.361  -0.039   6.428 -0.4075  0.4517 -0.8107
  123OSM     NF13050   2.413  -0.267   6.582 -0.5385  0.3073 -0.4894
  123OSM    HNF13051   2.511  -0.258   6.602  0.2487 -0.9896 -3.1561
  123OSM    C2S13052   2.384  -0.262   6.436  0.1929 -0.2419 -0.1359
  123OSM    H2S13053   2.307  -0.340   6.414 -1.0903  0.9007  0.1799
  123OSM    C3S13054   2.506  -0.292   6.351  0.6550 -0.5303  0.1850
  123OSM    H3S13055   2.579  -0.209   6.350  0.4233 -0.2423  2.5990
  123OSM     O313056   2.475  -0.325   6.216  0.0606  0.0072  0.6831
  123OSM    HO313057   2.387  -0.289   6.204 -0.0175 -0.7419 -1.1948
  123OSM    C4S13058   2.573  -0.415   6.410  0.0616  0.1412  0.5405
  123OSM    H4S13059   2.514  -0.506   6.396 -0.5279  0.7841 -1.4695
  123OSM    C5S13060   2.701  -0.421   6.454  0.7451  0.4584 -0.3216
  123OSM    H5S13061   2.762  -0.331   6.447  1.0400  0.2759 -0.1183
  123OSM    C6S13062   2.765  -0.546   6.515  0.3706 -0.4237  0.3016
  123OSM    H6S13063   2.833  -0.499   6.588 -2.4983 -0.5790  3.3045
  123OSM    H6T13064   2.816  -0.613   6.442 -1.4571  1.6980 -3.1682
  123OSM    C7S13065   2.674  -0.636   6.605  0.2089  0.2302 -0.2943
  123OSM    H7S13066   2.737  -0.728   6.609  1.8165  1.2799 -0.6010
  123OSM    H7T13067   2.581  -0.663   6.550 -0.4266  1.9244 -0.0990
  123OSM    C8S13068   2.642  -0.570   6.727 -0.1379  0.0316 -0.7891
  123OSM    H8S13069   2.540  -0.598   6.762  0.0890  0.5115  0.3072
  123OSM    H8T13070   2.652  -0.459   6.719  1.1881 -0.1349 -1.6560
  123OSM    C9S13071   2.738  -0.613   6.838  0.1595  0.0208 -0.1916
  123OSM    H9S13072   2.836  -0.565   6.819  1.0335 -0.6597  2.1358
  123OSM    H9T13073   2.754  -0.722   6.823  1.6430  0.5742 -3.4661
  123OSM   C10S13074   2.692  -0.568   6.977  0.9541  0.0119  0.2971
  123OSM   H10S13075   2.588  -0.600   6.997  1.3615 -0.7574  1.3103
  123OSM   H10T13076   2.678  -0.458   6.976  2.6144  0.2812  1.3418
  123OSM   C11S13077   2.787  -0.578   7.092  0.1123  0.0901 -0.9695
  123OSM   H11S13078   2.881  -0.522   7.077  0.1520 -0.0712 -1.3397
  123OSM   H11T13079   2.821  -0.683   7.105 -0.4297  0.2182  2.2531
  123OSM   C12S13080   2.735  -0.533   7.227  0.2290  0.7325 -1.1394
  123OSM   H12S13081   2.625  -0.551   7.232  0.3697 -0.3107 -1.4893
  123OSM   H12T13082   2.755  -0.424   7.224  0.7005  0.6161 -3.1845
  123OSM   C13S13083   2.799  -0.602   7.342 -0.9120 -0.1903 -1.1606
  123OSM   H13S13084   2.909  -0.602   7.326 -1.0684 -2.1430 -2.6076
  123OSM   H13T13085   2.761  -0.703   7.369  0.7076 -0.6154 -0.3380
  123OSM   C14S13086   2.770  -0.517   7.465  0.4225 -0.9952 -0.1801
  123OSM   H14S13087   2.660  -0.524   7.481  0.1420 -1.6522 -2.1244
  123OSM   H14T13088   2.798  -0.410   7.453 -1.8911 -0.0600  1.6988
  123OSM   C15S13089   2.839  -0.571   7.593 -0.3738 -0.2013 -0.7543
  123OSM   H15S13090   2.947  -0.578   7.571  0.6585  2.0739  2.6746
  123OSM   H15T13091   2.795  -0.670   7.616  0.2640  0.0489  1.8371
  123OSM   C16S13092   2.804  -0.478   7.718  0.3943 -0.2175  0.0779
  123OSM   H16S13093   2.694  -0.472   7.712  0.4281 -0.5816 -1.3191
  123OSM   H16T13094   2.851  -0.377   7.711  1.3686 -0.4378  2.5422
  123OSM   C17S13095   2.846  -0.531   7.857  0.8233 -0.4947  0.3639
  123OSM   H17S13096   2.947  -0.576   7.846  0.5721 -0.6542 -1.6734
  123OSM   H17T13097   2.788  -0.617   7.896 -0.1630 -0.1889 -0.3745
  123OSM   C18S13098   2.869  -0.423   7.965  0.2694 -0.1702  0.3161
  123OSM   H18S13099   2.947  -0.466   8.032  2.2030  0.3053 -1.5583
  123OSM   H18T13100   2.778  -0.407   8.027  0.8390 -1.5583  1.5850
  123OSM   H18U13101   2.909  -0.331   7.920 -0.8240 -0.3527 -1.0748
  123OSM    C1F13102   2.306  -0.258   6.665 -0.2496 -0.0744 -0.1771
  123OSM     OF13103   2.195  -0.295   6.624  0.5737 -0.0411  0.0001
  123OSM    C2F13104   2.323  -0.203   6.812  0.3822  0.3115  0.2862
  123OSM    H2F13105   2.233  -0.141   6.830 -0.4196 -0.4578 -0.9464
  123OSM    H2G13106   2.421  -0.152   6.826  0.8202 -0.7759  1.4472
  123OSM    C3F13107   2.307  -0.327   6.897 -0.2508 -0.3632 -0.4792
  123OSM    H3F13108   2.385  -0.405   6.882 -0.6207 -0.3766 -2.5723
  123OSM    H3G13109   2.207  -0.365   6.869 -1.3472  2.1729 -0.2783
  123OSM    C4F13110   2.302  -0.298   7.053  0.2261 -0.2117  0.4123
  123OSM    H4F13111   2.278  -0.390   7.111 -0.2221 -1.8715 -2.2361
  123OSM    H4G13112   2.225  -0.219   7.064  0.1117  0.1132 -2.1771
  123OSM    C5F13113   2.438  -0.247   7.095  0.2295 -0.0089 -0.3955
  123OSM    H5F13114   2.464  -0.157   7.035 -1.0876  0.5544 -0.1478
  123OSM    H5G13115   2.520  -0.322   7.082  1.1607  1.2827 -2.4387
  123OSM    C6F13116   2.429  -0.201   7.243  0.1100 -0.2080  0.0842
  123OSM    H6F13117   2.363  -0.113   7.256  2.4097  1.5740  0.2281
  123OSM    H6G13118   2.531  -0.163   7.263 -0.1067 -0.7287  2.5032
  123OSM    C7F13119   2.407  -0.321   7.340 -0.1655 -0.8557 -0.0036
  123OSM    H7F13120   2.472  -0.404   7.305  0.2058 -1.5710  2.2337
  123OSM    H7G13121   2.303  -0.360   7.349 -0.5679 -0.1482 -1.2950
  123OSM    C8F13122   2.452  -0.283   7.478  0.8077 -0.0377 -0.2422
  123OSM    H8F13123   2.562  -0.270   7.463  0.8452  0.7774  0.6261
  123OSM    H8G13124   2.435  -0.372   7.542 -1.7375 -0.3835 -1.3218
  123OSM    C9F13125   2.384  -0.159   7.527  0.3795  0.3205  0.8175
  123OSM    H9F13126   2.298  -0.136   7.464  0.5559 -0.9100  0.1080
  123OSM   C10F13127   2.423  -0.080   7.632  0.5006  1.2667  0.5176
  123OSM   H10F13128   2.379   0.018   7.654 -2.0078  0.7296 -1.6430
  123OSM   C11F13129   2.542  -0.112   7.713 -0.5576  0.5454  0.5759
  123OSM   H11F13130   2.616  -0.030   7.705  1.3032 -1.1528 -0.6839
  123OSM   H11G13131   2.598  -0.201   7.677  0.4281  1.0773  0.7508
  123OSM   C12F13132   2.510  -0.137   7.859 -0.4885  0.4678  0.1287
  123OSM   H12F13133   2.467  -0.053   7.917 -0.0934  0.8136 -0.0802
  123OSM   H12G13134   2.598  -0.180   7.914 -1.1942  0.1532  1.0488
  123OSM   C13F13135   2.419  -0.262   7.875  0.4443 -0.1692  0.0763
  123OSM   H13F13136   2.445  -0.338   7.798  1.6335  1.6183 -1.3628
  123OSM   H13G13137   2.313  -0.232   7.863  1.0857  3.6743  2.3419
  123OSM   C14F13138   2.428  -0.328   8.009 -1.0039  0.0625 -0.0170
  123OSM   H14F13139   2.534  -0.328   8.043 -0.3924  0.6716 -1.8132
  123OSM   H14G13140   2.384  -0.429   7.996 -1.6077  0.1762  1.0158
  123OSM   C15F13141   2.348  -0.247   8.114 -0.4528  0.9811 -0.2996
  123OSM   H15F13142   2.238  -0.247   8.101 -1.0608 -2.1638  3.2549
  123OSM   H15G13143   2.373  -0.139   8.100 -1.2798  1.0551 -1.3328
  123OSM   C16F13144   2.363  -0.293   8.257  0.0924 -0.1370  0.3310
  123OSM   H16F13145   2.471  -0.280   8.280  0.0136 -2.0990  2.0477
  123OSM   H16G13146   2.334  -0.400   8.261  1.4315 -0.5983 -1.2253
  123OSM   C17F13147   2.279  -0.202   8.342  0.1426 -0.0278 -0.0730
  123OSM   H17F13148   2.181  -0.191   8.291  0.8400 -0.5710 -1.5760
  123OSM   H17G13149   2.323  -0.100   8.334  0.5381 -0.1598  0.3686
  123OSM   C18F13150   2.259  -0.251   8.487  0.2153 -0.3188 -0.0946
  123OSM   H18F13151   2.251  -0.361   8.492 -0.6083 -0.3037 -0.7250
  123OSM   H18G13152   2.167  -0.207   8.532  1.1896  3.0603 -1.0485
  123OSM   H18H13153   2.345  -0.214   8.546 -0.0578 -0.6122  0.4960
  124OSM      N13154   6.771   4.899   6.356 -0.2930 -0.0665 -0.3873
  124OSM    C1513155   6.835   4.763   6.364 -0.0664  0.4617  0.3279
  124OSM   H15A13156   6.801   4.705   6.279  2.0337  2.1516 -1.8042
  124OSM   H15B13157   6.795   4.701   6.443 -0.6404 -0.7740 -0.8945
  124OSM   H15C13158   6.942   4.770   6.368 -0.0515  1.8320 -1.3327
  124OSM    C1413159   6.793   4.987   6.482 -0.3608 -0.4340  0.0117
  124OSM   H14A13160   6.763   4.942   6.576  0.9474  0.2502  0.7933
  124OSM   H14B13161   6.743   5.078   6.455 -0.8209 -1.1442 -1.6936
  124OSM   H14C13162   6.899   5.009   6.484 -0.6791  1.1727  0.2790
  124OSM    C1313163   6.822   4.980   6.242 -0.5590 -0.3473 -0.7100
  124OSM   H13A13164   6.927   5.003   6.246 -0.5947 -0.3080  0.2044
  124OSM   H13B13165   6.762   5.068   6.222  0.5937  0.7063  0.2889
  124OSM   H13C13166   6.824   4.912   6.158  1.7369 -1.2863  0.0225
  124OSM    C1213167   6.624   4.880   6.317 -0.5974 -0.2042 -0.1409
  124OSM   H12A13168   6.619   4.832   6.220  0.4903  1.2434 -0.9598
  124OSM   H12B13169   6.577   4.975   6.298 -2.0888 -0.2718  2.7784
  124OSM    C1113170   6.542   4.796   6.416  0.0580 -0.3362 -0.1840
  124OSM   H11A13171   6.436   4.818   6.390  0.7159  0.9768 -1.9078
  124OSM   H11B13172   6.565   4.844   6.514 -0.5288 -1.8893  0.7582
  124OSM      P13173   6.539   4.562   6.296 -0.2470  0.2657 -0.1149
  124OSM    O1313174   6.532   4.641   6.168 -0.4815  0.1502 -0.9076
  124OSM    O1413175   6.639   4.453   6.303  0.3332  0.3271  0.0984
  124OSM    O1113176   6.399   4.505   6.336  0.6612 -0.1051  0.0213
  124OSM    O1213177   6.573   4.658   6.419  0.0898 -0.2558  0.5095
  124OSM    C1S13178   6.369   4.405   6.430  0.8360  0.6933 -0.4624
  124OSM    H1S13179   6.445   4.326   6.447 -2.0048 -1.8887  1.3790
  124OSM    H1T13180   6.284   4.343   6.393  0.4038 -0.5427  2.3300
  124OSM     NF13181   6.326   4.357   6.671 -0.5927  0.0922 -0.5022
  124OSM    HNF13182   6.241   4.348   6.723  0.3144  0.1670  1.0544
  124OSM    C2S13183   6.323   4.458   6.569 -0.5710 -0.0591 -0.4077
  124OSM    H2S13184   6.402   4.530   6.599  0.3849 -0.6344 -1.4294
  124OSM    C3S13185   6.187   4.529   6.559  0.0807 -0.1419 -0.0832
  124OSM    H3S13186   6.109   4.451   6.549 -1.2049  1.3352 -2.7218
  124OSM     O313187   6.174   4.601   6.434 -0.0915 -0.1748  0.2750
  124OSM    HO313188   6.252   4.577   6.385  1.9608  4.8096  0.5500
  124OSM    C4S13189   6.154   4.619   6.676 -0.0832  0.3172  0.9284
  124OSM    H4S13190   6.085   4.573   6.749  0.7206 -2.8461 -0.1365
  124OSM    C5S13191   6.214   4.741   6.699  0.5496  0.5932  0.7890
  124OSM    H5S13192   6.291   4.779   6.630  0.2502 -0.3222 -0.0551
  124OSM    C6S13193   6.179   4.828   6.813  0.1770 -0.1061  0.9881
  124OSM    H6S13194   6.117   4.915   6.780 -2.0407 -1.8729  0.2490
  124OSM    H6T13195   6.272   4.869   6.859 -0.5288  0.1591  2.2215
  124OSM    C7S13196   6.099   4.756   6.925  0.0672  0.0615  0.4419
  124OSM    H7S13197   6.161   4.672   6.964  3.1140  2.0851  0.3233
  124OSM    H7T13198   5.992   4.734   6.907 -0.3921  1.2149  1.6559
  124OSM    C8S13199   6.084   4.851   7.041 -0.5148  0.7242  0.4288
  124OSM    H8S13200   6.008   4.932   7.033 -0.7041  0.5095  0.0531
  124OSM    H8T13201   6.182   4.897   7.067 -1.0542  1.7044  0.7772
  124OSM    C9S13202   6.038   4.777   7.168 -0.4421 -0.2156  0.3779
  124OSM    H9S13203   6.076   4.673   7.168 -0.3126 -0.1676 -0.5773
  124OSM    H9T13204   5.927   4.773   7.166 -0.5186 -0.1186 -4.0459
  124OSM   C10S13205   6.088   4.856   7.287  0.1712 -0.1145 -0.2267
  124OSM   H10S13206   6.028   4.948   7.273 -1.3858 -1.3373 -1.9733
  124OSM   H10T13207   6.197   4.876   7.279 -0.1570  1.2748 -1.5038
  124OSM   C11S13208   6.072   4.783   7.423 -0.2824  0.0524  0.0975
  124OSM   H11S13209   6.138   4.694   7.427  0.3673  0.5345  0.5189
  124OSM   H11T13210   5.972   4.738   7.439  0.3618 -1.2589  0.5792
  124OSM   C12S13211   6.112   4.876   7.539 -0.4500 -0.6079 -0.2186
  124OSM   H12S13212   6.041   4.961   7.532  0.7572  0.4512 -0.0872
  124OSM   H12T13213   6.215   4.912   7.518 -0.7506  0.0443 -0.5866
  124OSM   C13S13214   6.100   4.805   7.670 -0.2259  0.3565  0.2960
  124OSM   H13S13215   6.138   4.701   7.664  0.0660  0.3060  2.2475
  124OSM   H13T13216   5.990   4.794   7.676 -0.2906  0.2956 -0.9285
  124OSM   C14S13217   6.163   4.877   7.785 -1.0025 -0.6775  0.5326
  124OSM   H14S13218   6.121   4.980   7.782  1.4802  0.4002 -0.7481
  124OSM   H14T13219   6.274   4.873   7.794 -0.7971  1.0705 -0.6048
  124OSM   C15S13220   6.123   4.820   7.917  0.4856  0.6877  0.3399
  124OSM   H15S13221   6.178   4.725   7.936  2.6982  1.3590 -2.1390
  124OSM   H15T13222   6.016   4.792   7.908  1.1327 -2.4214  1.1766
  124OSM   C16S13223   6.149   4.909   8.041  0.2106  0.0550  0.4665
  124OSM   H16S13224   6.248   4.955   8.019 -0.7875  1.1687 -2.0500
  124OSM   H16T13225   6.153   4.846   8.133  0.7633 -3.2525 -1.6414
  124OSM   C17S13226   6.050   5.025   8.061  0.1963 -0.3584  0.1274
  124OSM   H17S13227   6.022   5.060   7.959  0.0290 -0.1465  0.2430
  124OSM   H17T13228   6.093   5.115   8.111 -0.6329  0.5552 -0.7488
  124OSM   C18S13229   5.923   4.982   8.144  0.4324  0.2486 -0.3996
  124OSM   H18S13230   5.876   4.893   8.097 -1.5158  1.1017 -0.1278
  124OSM   H18T13231   5.844   5.059   8.136 -1.3575 -1.2868  1.4947
  124OSM   H18U13232   5.953   4.961   8.249  1.8349  1.7369 -0.4503
  124OSM    C1F13233   6.438   4.293   6.699 -0.4977 -0.3247 -0.0593
  124OSM     OF13234   6.546   4.338   6.656  0.5057 -0.4335 -0.8620
  124OSM    C2F13235   6.427   4.167   6.785 -0.0970  0.5832 -0.8433
  124OSM    H2F13236   6.371   4.087   6.732  0.1099 -0.8738  1.0060
  124OSM    H2G13237   6.371   4.181   6.880  2.2233  0.1478  0.6864
  124OSM    C3F13238   6.564   4.098   6.820  0.0188  0.2194  0.1989
  124OSM    H3F13239   6.613   4.061   6.728  0.9282 -1.0638  1.1637
  124OSM    H3G13240   6.542   4.006   6.878 -0.1433  0.0183 -0.1811
  124OSM    C4F13241   6.661   4.176   6.911 -0.0515 -0.6285 -0.0514
  124OSM    H4F13242   6.685   4.268   6.853 -0.3438 -0.5763 -0.0914
  124OSM    H4G13243   6.757   4.124   6.933  0.2833  0.2428  0.5763
  124OSM    C5F13244   6.603   4.226   7.044  0.2547 -0.1359  0.0296
  124OSM    H5F13245   6.572   4.137   7.102 -0.0478 -1.6985 -2.3951
  124OSM    H5G13246   6.521   4.300   7.032 -1.0231 -1.6959 -1.2229
  124OSM    C6F13247   6.721   4.287   7.127 -0.0191  0.3023 -0.2093
  124OSM    H6F13248   6.735   4.390   7.087  1.4298  0.9565  1.7987
  124OSM    H6G13249   6.812   4.228   7.104  0.4706  0.7233  0.6006
  124OSM    C7F13250   6.682   4.288   7.276  0.0011  0.0563  0.2176
  124OSM    H7F13251   6.572   4.287   7.287 -0.0303 -2.5877  0.3375
  124OSM    H7G13252   6.723   4.387   7.306  0.8909 -0.2684  0.1003
  124OSM    C8F13253   6.752   4.176   7.361 -0.2439 -0.2907  0.4876
  124OSM    H8F13254   6.714   4.080   7.320  1.4694 -1.0586  0.6387
  124OSM    H8G13255   6.696   4.187   7.457 -0.8208  0.4423  0.0772
  124OSM    C9F13256   6.900   4.176   7.388  0.4148  0.3574 -0.0127
  124OSM    H9F13257   6.950   4.138   7.298  0.6327  0.1566  0.1934
  124OSM   C10F13258   6.968   4.206   7.499 -0.4748  0.7529 -0.6878
  124OSM   H10F13259   7.075   4.196   7.474 -0.4837 -2.1925  0.1023
  124OSM   C11F13260   6.916   4.255   7.635  0.1060  0.2334 -0.1530
  124OSM   H11F13261   6.897   4.167   7.701  2.6566 -0.4883 -0.3038
  124OSM   H11G13262   6.816   4.303   7.630 -0.0567 -0.1673 -0.9167
  124OSM   C12F13263   7.016   4.335   7.722 -0.3165  0.0004  0.0295
  124OSM   H12F13264   7.016   4.439   7.684  0.1419 -0.5916 -1.6803
  124OSM   H12G13265   7.114   4.283   7.712 -0.2182  0.5221 -1.9429
  124OSM   C13F13266   6.979   4.318   7.872 -0.2607 -0.1035 -0.8877
  124OSM   H13F13267   6.948   4.211   7.875 -0.2791 -0.1829 -2.8715
  124OSM   H13G13268   6.890   4.373   7.908 -1.1956 -1.9321 -0.2706
  124OSM   C14F13269   7.097   4.334   7.969  0.3946  0.8133  0.8665
  124OSM   H14F13270   7.108   4.444   7.973 -0.1275  0.8376  2.5044
  124OSM   H14G13271   7.191   4.297   7.923  0.1676 -0.4830  1.3978
  124OSM   C15F13272   7.075   4.275   8.110 -0.4136 -0.2767 -0.0936
  124OSM   H15F13273   6.972   4.301   8.143 -0.4747  0.4200 -0.7891
  124OSM   H15G13274   7.148   4.330   8.173  0.5755  0.0373 -1.4447
  124OSM   C16F13275   7.099   4.128   8.137 -0.5465  0.0686  0.3845
  124OSM   H16F13276   7.204   4.106   8.109 -0.6851 -1.3083  0.8743
  124OSM   H16G13277   7.025   4.080   8.069  0.1602 -3.6967  2.0292
  124OSM   C17F13278   7.080   4.078   8.282 -0.3937  0.6521  0.2799
  124OSM   H17F13279   6.981   4.107   8.324 -0.1587  0.6687  0.8284
  124OSM   H17G13280   7.148   4.134   8.349  2.2304 -0.9043 -0.9324
  124OSM   C18F13281   7.121   3.932   8.305  0.1680 -0.1450  0.6417
  124OSM   H18F13282   7.227   3.914   8.276 -0.2559 -2.1886  0.1941
  124OSM   H18G13283   7.066   3.857   8.245  2.7388 -0.0574 -2.0837
  124OSM   H18H13284   7.111   3.905   8.412 -0.5906  2.2066  1.2350
  125OSM      N13285   5.721   4.174   6.142  0.5433 -0.3923 -0.2539
  125OSM    C1513286   5.785   4.108   6.024 -0.1046 -0.8297  0.0022
  125OSM   H15A13287   5.708   4.070   5.959  0.9503 -0.7636 -1.3351
  125OSM   H15B13288   5.843   4.019   6.046 -0.6672 -1.1558  0.1624
  125OSM   H15C13289   5.847   4.179   5.971 -0.1635 -0.4056  0.4860
  125OSM    C1413290   5.686   4.064   6.240  0.3807 -0.3835 -0.0364
  125OSM   H14A13291   5.767   3.993   6.247  1.0556  0.4848  1.5218
  125OSM   H14B13292   5.604   4.002   6.210  3.5635 -3.9815 -2.2230
  125OSM   H14C13293   5.671   4.093   6.343  2.8105 -0.5846  0.4398
  125OSM    C1313294   5.825   4.246   6.217 -0.4936 -0.5838  0.3941
  125OSM   H13A13295   5.855   4.339   6.170 -0.5663 -0.9066 -0.2944
  125OSM   H13B13296   5.919   4.192   6.218 -1.3141 -2.0927 -0.7180
  125OSM   H13C13297   5.800   4.275   6.318 -2.1719 -2.0460  0.4300
  125OSM    C1213298   5.600   4.267   6.108  0.7574  0.1417  0.1622
  125OSM   H12A13299   5.538   4.221   6.033  0.5488  1.7151 -0.6694
  125OSM   H12B13300   5.633   4.358   6.061  1.1363  0.5676  1.2200
  125OSM    C1113301   5.525   4.311   6.229 -0.1617 -0.2200 -0.7121
  125OSM   H11A13302   5.600   4.335   6.307 -2.2499 -1.7971  1.9669
  125OSM   H11B13303   5.465   4.233   6.280  0.1418  0.5286  0.8476
  125OSM      P13304   5.508   4.567   6.199  0.2640  0.0108 -0.5504
  125OSM    O1313305   5.637   4.563   6.127  0.3317 -0.0254 -0.0324
  125OSM    O1413306   5.409   4.664   6.154 -0.2798 -0.3853 -0.0413
  125OSM    O1113307   5.540   4.604   6.352 -0.2520  0.3248 -0.6033
  125OSM    O1213308   5.447   4.428   6.204  0.4046 -0.1311 -0.7908
  125OSM    C1S13309   5.428   4.589   6.446 -0.4688 -0.4334  0.3869
  125OSM    H1S13310   5.341   4.533   6.404 -0.4187 -0.2899  0.0844
  125OSM    H1T13311   5.388   4.691   6.464 -0.9054 -0.7045  1.0136
  125OSM     NF13312   5.355   4.499   6.658 -0.1368 -1.2978  0.1049
  125OSM    HNF13313   5.316   4.574   6.710 -0.3579 -0.8239 -0.7214
  125OSM    C2S13314   5.470   4.524   6.582 -0.0559  0.3739 -0.0474
  125OSM    H2S13315   5.524   4.430   6.560  2.3918  1.0659  2.5024
  125OSM    C3S13316   5.581   4.615   6.651 -0.6323 -0.5935  0.6954
  125OSM    H3S13317   5.534   4.715   6.659 -0.6082 -0.6169  1.1443
  125OSM     O313318   5.701   4.627   6.567  0.2617 -0.1870 -0.1169
  125OSM    HO313319   5.665   4.612   6.479  1.5210 -1.4543 -0.4653
  125OSM    C4S13320   5.611   4.576   6.795 -0.3200  0.2885  0.0025
  125OSM    H4S13321   5.530   4.608   6.862 -1.1100  1.2193 -1.3359
  125OSM    C5S13322   5.711   4.498   6.850 -0.4387  0.0950  0.2592
  125OSM    H5S13323   5.790   4.469   6.779  0.8132  4.3824 -0.3953
  125OSM    C6S13324   5.730   4.468   6.998  0.6543  0.5718 -0.5473
  125OSM    H6S13325   5.832   4.494   7.034  0.5449  0.2165  0.0368
  125OSM    H6T13326   5.721   4.359   7.020  1.6256  0.3244 -1.2935
  125OSM    C7S13327   5.626   4.534   7.088  0.0354  0.2414 -0.0328
  125OSM    H7S13328   5.525   4.493   7.065  0.2161  0.2057 -0.7814
  125OSM    H7T13329   5.615   4.643   7.069  1.5689  0.3276 -0.5412
  125OSM    C8S13330   5.647   4.513   7.234 -0.7177  0.1105  0.3021
  125OSM    H8S13331   5.747   4.540   7.274 -0.8534 -0.7417  1.2524
  125OSM    H8T13332   5.632   4.408   7.268  1.5485  0.9437  4.5197
  125OSM    C9S13333   5.544   4.605   7.312 -0.0912  0.1886 -0.7104
  125OSM    H9S13334   5.448   4.559   7.282  0.4771 -1.4665 -0.1371
  125OSM    H9T13335   5.554   4.708   7.272 -2.5131  0.7012 -0.1523
  125OSM   C10S13336   5.571   4.599   7.464 -0.0467 -0.3655  0.5884
  125OSM   H10S13337   5.668   4.652   7.479  0.1670  0.0260 -1.8310
  125OSM   H10T13338   5.602   4.493   7.476  1.7075 -0.3999 -2.9051
  125OSM   C11S13339   5.456   4.661   7.550 -1.0779 -0.1971 -0.4950
  125OSM   H11S13340   5.371   4.590   7.541 -0.3586 -0.8278 -3.1704
  125OSM   H11T13341   5.426   4.762   7.513  0.0869 -0.8062 -3.3327
  125OSM   C12S13342   5.502   4.685   7.692 -0.1440 -0.6713 -0.0466
  125OSM   H12S13343   5.589   4.753   7.683  0.9148 -2.1192 -1.2160
  125OSM   H12T13344   5.544   4.594   7.740  1.8163  0.6356  0.8350
  125OSM   C13S13345   5.387   4.746   7.783  0.5922 -0.2655 -0.2816
  125OSM   H13S13346   5.303   4.673   7.778 -0.0930  0.5475 -0.7754
  125OSM   H13T13347   5.353   4.839   7.734 -2.7820 -0.8161  0.7560
  125OSM   C14S13348   5.434   4.766   7.926  0.0569  0.0583  0.5357
  125OSM   H14S13349   5.514   4.842   7.918 -1.8974  2.2193  0.5707
  125OSM   H14T13350   5.466   4.675   7.981 -2.4070 -0.1000  1.8325
  125OSM   C15S13351   5.322   4.836   8.011 -0.3347 -0.0858  0.0470
  125OSM   H15S13352   5.239   4.774   8.051 -0.4721  0.6624  0.9489
  125OSM   H15T13353   5.282   4.925   7.958 -0.2400  0.7192  1.2747
  125OSM   C16S13354   5.373   4.901   8.144  0.3033 -0.0592 -0.3105
  125OSM   H16S13355   5.288   4.949   8.197 -0.1205 -1.3225  0.2004
  125OSM   H16T13356   5.456   4.970   8.118  1.2910 -0.5714  1.3608
  125OSM   C17S13357   5.424   4.787   8.239  0.0276  0.1188  0.4062
  125OSM   H17S13358   5.391   4.688   8.199  2.5494 -0.4642 -0.4310
  125OSM   H17T13359   5.393   4.800   8.345  0.3167  1.7243  0.3049
  125OSM   C18S13360   5.574   4.783   8.245 -1.1013  0.1184 -1.0214
  125OSM   H18S13361   5.621   4.719   8.322  0.8488  2.6420 -0.0084
  125OSM   H18T13362   5.614   4.883   8.271 -2.3271  1.1460 -2.8440
  125OSM   H18U13363   5.610   4.753   8.144 -1.8864 -2.0841 -0.7167
  125OSM    C1F13364   5.284   4.393   6.630 -0.1916  0.3640  0.1420
  125OSM     OF13365   5.320   4.301   6.553  0.0557  0.2057  0.3646
  125OSM    C2F13366   5.142   4.395   6.687  0.2290  0.3019  0.8449
  125OSM    H2F13367   5.085   4.321   6.626 -1.8266  0.9463  1.8994
  125OSM    H2G13368   5.101   4.498   6.676 -1.0454 -0.2802 -0.1441
  125OSM    C3F13369   5.142   4.367   6.840 -0.3946  0.6841  1.1879
  125OSM    H3F13370   5.174   4.453   6.902 -0.2484  0.8974  0.8199
  125OSM    H3G13371   5.212   4.286   6.872 -1.3431 -0.6643 -0.0018
  125OSM    C4F13372   5.001   4.343   6.889  0.1617 -0.4025  0.4523
  125OSM    H4F13373   4.973   4.235   6.891  0.1839 -0.4207 -0.0149
  125OSM    H4G13374   4.922   4.390   6.825 -1.6238  0.0444  2.8522
  125OSM    C5F13375   4.986   4.399   7.032 -0.0423 -0.0632  0.5669
  125OSM    H5F13376   5.007   4.508   7.025  1.4210 -0.1382  2.6494
  125OSM    H5G13377   5.050   4.354   7.111  0.0302  0.2231  0.6751
  125OSM    C6F13378   4.838   4.392   7.085  0.4665 -0.2946 -0.4617
  125OSM    H6F13379   4.799   4.289   7.098  0.4679 -0.0993  1.2187
  125OSM    H6G13380   4.780   4.439   7.002 -0.8015  0.7654  0.9777
  125OSM    C7F13381   4.807   4.481   7.209 -0.2747 -0.0546  0.8074
  125OSM    H7F13382   4.834   4.587   7.187 -0.0177 -0.4731 -1.0059
  125OSM    H7G13383   4.879   4.448   7.288  0.0697 -0.9496  0.1337
  125OSM    C8F13384   4.663   4.490   7.258 -0.3580 -0.1346  0.5374
  125OSM    H8F13385   4.621   4.547   7.174  2.7945  1.5159 -0.0643
  125OSM    H8G13386   4.666   4.553   7.350 -0.2585 -1.2894  1.3609
  125OSM    C9F13387   4.599   4.357   7.286 -0.4537  0.3349 -0.6820
  125OSM    H9F13388   4.524   4.324   7.213 -1.9869  0.7603  0.6492
  125OSM   C10F13389   4.624   4.271   7.386 -0.0833 -0.6713 -0.3574
  125OSM   H10F13390   4.569   4.177   7.401  1.4567 -1.4118  1.0997
  125OSM   C11F13391   4.726   4.307   7.493 -0.9760  0.4930  0.1739
  125OSM   H11F13392   4.789   4.398   7.484 -0.6270  0.2624  0.2569
  125OSM   H11G13393   4.790   4.218   7.510 -2.6207 -0.4717  1.7133
  125OSM   C12F13394   4.643   4.312   7.625 -0.1504 -0.4023 -0.2163
  125OSM   H12F13395   4.603   4.213   7.654  2.4545 -0.6916  3.0727
  125OSM   H12G13396   4.547   4.368   7.615 -1.9896 -3.0418  1.2110
  125OSM   C13F13397   4.723   4.364   7.744  0.2282 -0.5731  0.5627
  125OSM   H13F13398   4.769   4.464   7.726  2.9617 -1.8741 -0.2916
  125OSM   H13G13399   4.809   4.294   7.758  0.8181 -0.5728 -2.4440
  125OSM   C14F13400   4.645   4.364   7.878  0.6832 -0.6785  0.4627
  125OSM   H14F13401   4.704   4.416   7.957 -1.3073  3.0919 -0.2707
  125OSM   H14G13402   4.620   4.257   7.894  1.5147 -1.1049 -0.9719
  125OSM   C15F13403   4.512   4.448   7.865  0.6242 -0.0078  0.4512
  125OSM   H15F13404   4.447   4.397   7.791  0.1131  2.5530 -0.9904
  125OSM   H15G13405   4.546   4.539   7.810  0.1938  0.6553  1.2628
  125OSM   C16F13406   4.450   4.481   7.994  0.1268 -0.1314 -0.0083
  125OSM   H16F13407   4.445   4.392   8.060 -0.3433  0.6357  1.0096
  125OSM   H16G13408   4.350   4.527   7.986  1.3508  2.5557 -1.2918
  125OSM   C17F13409   4.529   4.583   8.079 -0.0936  0.0918 -0.2231
  125OSM   H17F13410   4.545   4.681   8.029  0.9007  0.0200 -0.0751
  125OSM   H17G13411   4.628   4.535   8.094 -2.5257 -4.6426  3.2963
  125OSM   C18F13412   4.470   4.601   8.214  0.0052 -0.3160 -0.5739
  125OSM   H18F13413   4.359   4.615   8.219  0.1735  1.1812 -0.3868
  125OSM   H18G13414   4.511   4.695   8.257 -1.4213  1.7305 -3.3085
  125OSM   H18H13415   4.489   4.526   8.293  0.6294 -1.6795 -1.9755
  126OSM      N13416   3.670   4.811   6.261 -0.2141 -0.3203  0.0232
  126OSM    C1513417   3.777   4.713   6.311 -0.7892  0.5687  0.5906
  126OSM   H15A13418   3.750   4.680   6.410  2.6978 -1.2144  1.0914
  126OSM   H15B13419   3.873   4.761   6.317  0.4372 -1.8577  1.2703
  126OSM   H15C13420   3.803   4.633   6.243  0.7926  1.0429  0.6180
  126OSM    C1413421   3.687   4.947   6.330  0.1118 -0.3480 -0.4218
  126OSM   H14A13422   3.680   4.941   6.437  0.6190 -1.2649 -0.4301
  126OSM   H14B13423   3.615   5.022   6.300 -0.5310 -1.5515 -2.0281
  126OSM   H14C13424   3.786   4.986   6.309 -0.5554  0.0762 -3.1993
  126OSM    C1313425   3.676   4.834   6.116 -0.6198  0.8758 -0.4337
  126OSM   H13A13426   3.747   4.910   6.087  0.5680 -0.0157  0.0414
  126OSM   H13B13427   3.580   4.876   6.087 -0.0306  1.2487 -1.9348
  126OSM   H13C13428   3.697   4.742   6.063 -1.5505  0.3951  0.0004
  126OSM    C1213429   3.533   4.754   6.294 -0.4160  0.2801  0.3769
  126OSM   H12A13430   3.525   4.661   6.240  1.6392  0.9894 -1.3027
  126OSM   H12B13431   3.457   4.819   6.253 -1.3986  0.4988  2.4557
  126OSM    C1113432   3.489   4.735   6.441 -0.7786  0.2586  0.7757
  126OSM   H11A13433   3.568   4.686   6.503  1.3645 -1.4716 -2.9395
  126OSM   H11B13434   3.407   4.660   6.450  0.5504 -1.1669  1.4995
  126OSM      P13435   3.309   4.925   6.444 -0.1318 -0.0609  0.0262
  126OSM    O1313436   3.291   5.059   6.504  0.0861 -0.2233  0.7655
  126OSM    O1413437   3.303   4.920   6.299 -0.2564  0.4798 -0.1533
  126OSM    O1113438   3.195   4.832   6.508 -0.8481  0.5084 -0.3310
  126OSM    O1213439   3.445   4.861   6.497  0.5326  0.1638  0.1588
  126OSM    C1S13440   3.200   4.796   6.648 -0.0242 -0.2479 -0.0484
  126OSM    H1S13441   3.241   4.876   6.713  1.7646  0.7903 -2.2709
  126OSM    H1T13442   3.246   4.699   6.675 -2.1363 -0.8658  1.5362
  126OSM     NF13443   3.039   4.728   6.822  0.5550  0.0961 -0.0815
  126OSM    HNF13444   3.017   4.631   6.834 -1.7224  0.3785 -1.3264
  126OSM    C2S13445   3.052   4.770   6.683 -0.5662  0.2717 -0.2954
  126OSM    H2S13446   2.993   4.865   6.677  1.2129  1.7176  2.8038
  126OSM    C3S13447   2.979   4.669   6.597 -0.2589  0.1860 -0.2077
  126OSM    H3S13448   3.032   4.572   6.597 -2.0088 -0.8356  1.6011
  126OSM     O313449   2.965   4.708   6.462  0.5796  0.1577 -0.4878
  126OSM    HO313450   3.046   4.755   6.441 -1.1820  2.8021 -2.0018
  126OSM    C4S13451   2.838   4.651   6.649  0.3246  0.1728 -0.5529
  126OSM    H4S13452   2.766   4.729   6.622 -1.3816 -1.2898 -0.4588
  126OSM    C5S13453   2.808   4.548   6.727  0.0063  0.0292  0.5826
  126OSM    H5S13454   2.885   4.473   6.750 -1.0433 -0.6052  2.2936
  126OSM    C6S13455   2.678   4.527   6.800  0.4203 -0.1806  0.2050
  126OSM    H6S13456   2.658   4.421   6.823  0.4575 -1.3533 -4.2388
  126OSM    H6T13457   2.596   4.540   6.726 -0.3634  0.0078  1.0723
  126OSM    C7S13458   2.676   4.625   6.927  0.3792 -0.3583  1.3579
  126OSM    H7S13459   2.694   4.734   6.911 -0.9447  0.0291  2.3366
  126OSM    H7T13460   2.751   4.584   6.997  1.1520  0.4694  1.0278
  126OSM    C8S13461   2.535   4.629   6.990 -0.2497 -0.0465  0.1184
  126OSM    H8S13462   2.499   4.524   6.995 -0.1744 -0.0828 -0.1039
  126OSM    H8T13463   2.459   4.678   6.926  0.8776  0.4640 -0.8572
  126OSM    C9S13464   2.529   4.693   7.127  0.4071 -0.6531 -0.2420
  126OSM    H9S13465   2.426   4.697   7.169  0.5734  2.1972  0.1119
  126OSM    H9T13466   2.541   4.802   7.113 -0.3035 -0.4157  0.8471
  126OSM   C10S13467   2.621   4.637   7.232 -0.7760 -0.2930  0.1239
  126OSM   H10S13468   2.716   4.657   7.177 -3.1076  2.1376 -3.4688
  126OSM   H10T13469   2.602   4.528   7.234 -2.8192  0.0364  1.4797
  126OSM   C11S13470   2.618   4.701   7.373 -0.0988 -0.2580 -0.6209
  126OSM   H11S13471   2.652   4.806   7.359 -0.6647 -0.1885 -1.5520
  126OSM   H11T13472   2.704   4.654   7.426  0.6937  0.7698 -0.9566
  126OSM   C12S13473   2.487   4.692   7.459 -0.2965 -0.2836 -0.0984
  126OSM   H12S13474   2.456   4.585   7.460  1.2993 -0.7706  0.1410
  126OSM   H12T13475   2.401   4.751   7.422 -0.7084 -1.5815 -1.2788
  126OSM   C13S13476   2.518   4.732   7.602  0.5136 -0.2844  0.2614
  126OSM   H13S13477   2.542   4.840   7.602  0.4291 -0.2650  0.3053
  126OSM   H13T13478   2.606   4.671   7.630  1.9622  1.0827 -1.0992
  126OSM   C14S13479   2.416   4.695   7.708  1.0037 -0.0754  0.2007
  126OSM   H14S13480   2.382   4.591   7.686  2.4568 -0.3731 -0.7961
  126OSM   H14T13481   2.327   4.759   7.696  2.4307  2.1396  0.8405
  126OSM   C15S13482   2.464   4.724   7.849 -0.0949  0.8043  0.5318
  126OSM   H15S13483   2.502   4.828   7.864  2.1456 -0.2152  2.6822
  126OSM   H15T13484   2.549   4.655   7.861 -0.7554 -0.4238 -1.5291
  126OSM   C16S13485   2.357   4.702   7.958  0.1777 -0.5700  0.4374
  126OSM   H16S13486   2.304   4.614   7.915  1.6046 -0.1933 -2.3847
  126OSM   H16T13487   2.282   4.783   7.953  0.2439 -0.4807  0.8343
  126OSM   C17S13488   2.406   4.670   8.097 -0.7842 -0.3958 -0.2631
  126OSM   H17S13489   2.450   4.757   8.150 -0.6704 -0.6395  0.0412
  126OSM   H17T13490   2.490   4.598   8.097  0.9783  1.5285 -1.7842
  126OSM   C18S13491   2.286   4.626   8.182  0.6665 -0.4822 -0.4127
  126OSM   H18S13492   2.198   4.584   8.129  0.8345 -0.8617 -0.3928
  126OSM   H18T13493   2.252   4.714   8.240 -1.8735 -2.1009  0.7280
  126OSM   H18U13494   2.315   4.547   8.254 -1.4000 -1.2763 -0.4055
  126OSM    C1F13495   3.073   4.812   6.930  0.0519  0.4264  0.1157
  126OSM     OF13496   3.107   4.937   6.921 -0.2767 -0.1861 -0.5087
  126OSM    C2F13497   3.069   4.745   7.065  0.6422 -0.0845 -0.4664
  126OSM    H2F13498   3.170   4.708   7.091  0.2952 -0.3295  0.5950
  126OSM    H2G13499   3.000   4.658   7.056 -0.2409  0.5231  0.1338
  126OSM    C3F13500   3.020   4.846   7.176  0.2424  0.1452 -0.3061
  126OSM    H3F13501   2.913   4.871   7.157  0.0621 -0.6184 -0.3221
  126OSM    H3G13502   3.080   4.940   7.179 -2.2713  1.9918 -2.5770
  126OSM    C4F13503   3.014   4.791   7.321  0.2686  0.1168  0.0502
  126OSM    H4F13504   3.120   4.785   7.354 -0.6804  0.7743  3.6544
  126OSM    H4G13505   2.955   4.698   7.329  0.2723  0.2003  1.4420
  126OSM    C5F13506   2.960   4.905   7.414 -0.3109  0.2581 -0.0753
  126OSM    H5F13507   2.860   4.934   7.374 -0.4581 -0.8370 -0.5274
  126OSM    H5G13508   3.015   5.001   7.407  1.3179 -0.6632 -0.3815
  126OSM    C6F13509   2.940   4.870   7.562 -0.3798 -0.4598  0.4016
  126OSM    H6F13510   3.044   4.847   7.595 -0.2569  1.1092  1.1664
  126OSM    H6G13511   2.887   4.774   7.578  1.5586 -1.1242  3.9244
  126OSM    C7F13512   2.867   4.984   7.644  0.1611  0.8274  0.0751
  126OSM    H7F13513   2.782   5.022   7.583 -0.2612  0.3637  0.3658
  126OSM    H7G13514   2.950   5.058   7.646  1.4400 -0.5105 -1.4742
  126OSM    C8F13515   2.831   4.937   7.794  0.7801  0.1988  0.4402
  126OSM    H8F13516   2.922   4.900   7.846 -0.9270 -1.4452  2.4214
  126OSM    H8G13517   2.760   4.852   7.797 -0.3985  1.0781 -1.1406
  126OSM    C9F13518   2.787   5.065   7.859 -0.2555 -0.7989  0.3649
  126OSM    H9F13519   2.829   5.149   7.801  0.3370 -1.7386 -0.6022
  126OSM   C10F13520   2.751   5.077   7.988 -0.3484 -0.7802 -0.2149
  126OSM   H10F13521   2.731   5.177   8.031 -0.2417 -2.2923  3.7182
  126OSM   C11F13522   2.732   4.978   8.096  0.2118  0.1838 -0.0023
  126OSM   H11F13523   2.726   4.873   8.060 -3.6717  0.4133 -0.4670
  126OSM   H11G13524   2.625   4.996   8.122 -0.4196  1.2662 -2.8720
  126OSM   C12F13525   2.823   5.000   8.216 -0.3250  0.5486 -0.3589
  126OSM   H12F13526   2.933   5.001   8.199 -0.0172 -0.0023  1.3661
  126OSM   H12G13527   2.800   4.916   8.285 -0.5809  1.3494  0.5561
  126OSM   C13F13528   2.789   5.139   8.287  0.9504  0.3716  0.6147
  126OSM   H13F13529   2.683   5.168   8.272  0.8867 -1.4024 -3.5785
  126OSM   H13G13530   2.850   5.216   8.235  0.3136 -0.8820 -2.1427
  126OSM   C14F13531   2.810   5.143   8.442 -0.4462  0.6350  0.2484
  126OSM   H14F13532   2.908   5.092   8.455 -0.6226  0.5157  1.1668
  126OSM   H14G13533   2.735   5.070   8.478 -0.8355  0.4002 -0.9873
  126OSM   C15F13534   2.787   5.274   8.506 -0.5174 -0.1803  0.1844
  126OSM   H15F13535   2.851   5.343   8.447  2.0710 -1.2772  1.5470
  126OSM   H15G13536   2.824   5.261   8.610  1.3390 -1.1175 -0.5374
  126OSM   C16F13537   2.645   5.311   8.507 -0.3312 -0.3437  0.8284
  126OSM   H16F13538   2.582   5.232   8.555 -0.2100  0.5288  2.4964
  126OSM   H16G13539   2.605   5.310   8.403  1.6730 -0.1653  0.0086
  126OSM   C17F13540   2.609   5.455   8.577  0.2053  0.3717  0.1882
  126OSM   H17F13541   2.644   5.521   8.494  1.7238  0.0012  0.4981
  126OSM   H17G13542   2.662   5.471   8.673 -1.4336  1.6181  0.9141
  126OSM   C18F13543   2.461   5.471   8.606  1.4065 -0.3276 -0.1628
  126OSM   H18F13544   2.435   5.418   8.700 -0.4765 -0.2694 -0.6238
  126OSM   H18G13545   2.397   5.428   8.526  2.5911 -0.8094 -0.8789
  126OSM   H18H13546   2.436   5.578   8.623  0.2456 -0.8634  1.7403
  127OSM      N13547   3.828   1.939   5.932 -0.6992  0.1336 -0.4383
  127OSM    C1513548   3.884   2.069   5.976  0.0775 -0.4063 -0.6363
  127OSM   H15A13549   3.992   2.066   5.978  0.1207  0.6410 -0.7079
  127OSM   H15B13550   3.849   2.095   6.075 -1.5603 -0.9746 -1.0298
  127OSM   H15C13551   3.864   2.152   5.910  1.4751  2.3252  2.1242
  127OSM    C1413552   3.817   1.938   5.788 -0.0611 -0.0200 -0.4083
  127OSM   H14A13553   3.905   1.967   5.733  0.7570 -0.3628  0.6753
  127OSM   H14B13554   3.736   2.006   5.765 -1.4173 -0.9051  1.4461
  127OSM   H14C13555   3.789   1.836   5.763  0.1046 -0.8628  2.5118
  127OSM    C1313556   3.931   1.841   5.975  0.3306 -0.6977 -0.1605
  127OSM   H13A13557   3.930   1.829   6.082 -0.5020 -0.1990 -0.1019
  127OSM   H13B13558   4.025   1.886   5.949 -0.0456 -0.0615 -0.4460
  127OSM   H13C13559   3.925   1.741   5.935  1.5862 -1.2971  1.0647
  127OSM    C1213560   3.695   1.904   5.995 -0.2024  0.0164  0.6226
  127OSM   H12A13561   3.650   1.823   5.940  0.4723  0.7199 -1.0271
  127OSM   H12B13562   3.635   1.993   5.981 -1.3386 -0.7663  0.4337
  127OSM    C1113563   3.694   1.861   6.147  0.1088  0.8852 -0.6056
  127OSM   H11A13564   3.756   1.769   6.158  0.5277  1.3972  1.6909
  127OSM   H11B13565   3.588   1.837   6.172  0.7556 -1.6548 -0.0408
  127OSM      P13566   3.658   2.072   6.279 -0.3132 -0.2325  0.3370
  127OSM    O1313567   3.736   2.189   6.318 -0.0829 -0.1025 -0.1544
  127OSM    O1413568   3.556   2.109   6.185 -0.2914 -0.5485  1.3072
  127OSM    O1113569   3.583   1.996   6.395 -0.2228  0.9560  0.0787
  127OSM    O1213570   3.753   1.968   6.221  0.0851 -0.0519  0.1699
  127OSM    C1S13571   3.669   1.982   6.509 -0.2223 -0.0622 -0.0798
  127OSM    H1S13572   3.699   2.081   6.549 -2.8365  0.3221  1.1955
  127OSM    H1T13573   3.765   1.929   6.495  0.1289 -0.2971  2.6540
  127OSM     NF13574   3.669   1.924   6.749  0.4657 -0.3095 -0.0614
  127OSM    HNF13575   3.721   1.842   6.771 -1.4377 -1.3432  0.8334
  127OSM    C2S13576   3.590   1.921   6.628  0.2444  0.1072  0.1647
  127OSM    H2S13577   3.501   1.985   6.647 -0.3317 -0.0870 -1.6473
  127OSM    C3S13578   3.543   1.777   6.592  0.7047  0.0459  0.7738
  127OSM    H3S13579   3.627   1.711   6.561  0.3085 -0.2139  0.2319
  127OSM     O313580   3.451   1.771   6.480 -0.3749 -0.9118 -0.3109
  127OSM    HO313581   3.472   1.850   6.430 -1.8087  0.1422  0.6691
  127OSM    C4S13582   3.476   1.716   6.715 -0.0120 -0.5581  0.0655
  127OSM    H4S13583   3.378   1.761   6.739 -0.1065  0.7013 -2.4118
  127OSM    C5S13584   3.509   1.603   6.779  0.2826  0.4102 -0.7132
  127OSM    H5S13585   3.594   1.546   6.738  0.1075 -0.0435 -0.4506
  127OSM    C6S13586   3.441   1.538   6.899 -0.4575 -0.2406 -0.1016
  127OSM    H6S13587   3.504   1.550   6.990 -1.8918 -0.4974  0.9573
  127OSM    H6T13588   3.438   1.430   6.874 -0.2272 -0.0950 -0.7807
  127OSM    C7S13589   3.302   1.587   6.929  0.2355  0.1115  0.0534
  127OSM    H7S13590   3.236   1.571   6.841  2.0373 -0.4605 -1.2392
  127OSM    H7T13591   3.303   1.697   6.946 -1.4391  0.3152 -0.9249
  127OSM    C8S13592   3.234   1.516   7.048 -0.0058  0.5206  0.2171
  127OSM    H8S13593   3.279   1.415   7.042 -0.2623  0.4752 -4.9094
  127OSM    H8T13594   3.126   1.508   7.024 -0.1417 -1.0870  1.2538
  127OSM    C9S13595   3.235   1.593   7.181  0.9305 -0.5862  0.7491
  127OSM    H9S13596   3.193   1.690   7.147 -2.1198 -1.6343  1.1302
  127OSM    H9T13597   3.338   1.617   7.212  0.5127 -0.3659  2.0074
  127OSM   C10S13598   3.162   1.517   7.294 -0.0720  0.6838 -0.4750
  127OSM   H10S13599   3.202   1.414   7.304 -0.4010  0.7459  2.7499
  127OSM   H10T13600   3.051   1.516   7.290 -0.2920  0.4849  2.7722
  127OSM   C11S13601   3.205   1.574   7.434  0.4497  0.0492 -0.2214
  127OSM   H11S13602   3.315   1.569   7.448  0.1776 -0.4552  2.2700
  127OSM   H11T13603   3.166   1.505   7.512 -2.3614  1.7800  0.0295
  127OSM   C12S13604   3.143   1.703   7.474 -0.1259  0.1240 -0.6734
  127OSM   H12S13605   3.033   1.694   7.488 -0.0105 -0.3799 -0.0511
  127OSM   H12T13606   3.163   1.779   7.396  0.3477 -0.3844 -1.0597
  127OSM   C13S13607   3.196   1.749   7.613 -0.2220 -0.5070  0.2943
  127OSM   H13S13608   3.134   1.835   7.649  0.0408  0.2181 -0.9075
  127OSM   H13T13609   3.301   1.784   7.604 -0.3051 -0.3916 -0.3033
  127OSM   C14S13610   3.192   1.644   7.719  0.0040 -0.1671 -1.2486
  127OSM   H14S13611   3.268   1.565   7.700  1.6785  0.7568  1.0677
  127OSM   H14T13612   3.092   1.596   7.722 -0.4742  0.6641  3.6731
  127OSM   C15S13613   3.221   1.694   7.865 -0.0325  0.2188  0.4365
  127OSM   H15S13614   3.144   1.758   7.912  0.3336 -0.7743  2.4585
  127OSM   H15T13615   3.323   1.737   7.869  0.1277 -0.2467  3.1705
  127OSM   C16S13616   3.224   1.574   7.971 -0.1732 -0.3375 -0.2312
  127OSM   H16S13617   3.301   1.503   7.933 -0.1262 -1.6927  2.1928
  127OSM   H16T13618   3.124   1.526   7.966 -0.6213  0.0844  2.7919
  127OSM   C17S13619   3.286   1.605   8.117 -0.1079 -0.1262  0.0592
  127OSM   H17S13620   3.232   1.697   8.148 -1.4521 -0.3055 -1.5949
  127OSM   H17T13621   3.393   1.634   8.103 -0.5928  1.6625 -0.1333
  127OSM   C18S13622   3.279   1.487   8.216  0.0205  0.9284  0.8108
  127OSM   H18S13623   3.325   1.393   8.178 -1.2425  0.8336 -0.6059
  127OSM   H18T13624   3.173   1.468   8.244  0.3903 -3.3356 -0.0315
  127OSM   H18U13625   3.334   1.510   8.310  2.4248  1.5110 -0.6704
  127OSM    C1F13626   3.685   2.037   6.811  0.1673 -0.6490  0.7581
  127OSM     OF13627   3.631   2.145   6.791  0.2399  0.3989 -0.3311
  127OSM    C2F13628   3.784   2.038   6.916  0.0872 -0.2144  0.0125
  127OSM    H2F13629   3.822   1.934   6.918 -2.0448 -1.0556 -0.9281
  127OSM    H2G13630   3.727   2.070   7.007  0.5352  5.2670 -1.2653
  127OSM    C3F13631   3.887   2.151   6.888  0.1368 -0.4955 -0.5696
  127OSM    H3F13632   3.853   2.256   6.876  0.5091 -0.2988  0.0640
  127OSM    H3G13633   3.945   2.113   6.802  1.7680 -0.5604  0.5154
  127OSM    C4F13634   3.994   2.160   7.002 -0.9654  0.7150  0.8325
  127OSM    H4F13635   4.098   2.184   6.972  1.2767 -4.6107  3.0443
  127OSM    H4G13636   4.020   2.056   7.031  1.3998  0.5369 -1.5723
  127OSM    C5F13637   3.971   2.258   7.107  0.5535  0.7645 -0.3522
  127OSM    H5F13638   3.912   2.344   7.068 -1.7078 -0.8985 -0.8045
  127OSM    H5G13639   4.067   2.298   7.146  0.3558  1.2906 -0.4031
  127OSM    C6F13640   3.908   2.188   7.221  0.3537 -0.3118  0.5232
  127OSM    H6F13641   3.974   2.104   7.253 -1.1870 -1.6818  0.2842
  127OSM    H6G13642   3.814   2.137   7.187 -0.0652  0.2867  0.7665
  127OSM    C7F13643   3.872   2.285   7.342  0.7399  0.0450  0.4957
  127OSM    H7F13644   3.818   2.372   7.299  1.8631  0.6519  0.2790
  127OSM    H7G13645   3.963   2.334   7.383  2.3630 -1.3103 -1.2504
  127OSM    C8F13646   3.782   2.212   7.445  0.2107 -0.7970 -0.1830
  127OSM    H8F13647   3.710   2.149   7.388 -1.5105  2.0787 -1.4009
  127OSM    H8G13648   3.724   2.293   7.494  1.6811  1.0258 -1.3078
  127OSM    C9F13649   3.855   2.123   7.540 -0.1393 -0.2824  0.8307
  127OSM    H9F13650   3.870   2.020   7.506  3.1622  0.2035  0.5416
  127OSM   C10F13651   3.899   2.160   7.666 -1.1853  0.1120 -0.0720
  127OSM   H10F13652   3.967   2.088   7.715 -1.7427  0.4694  1.2600
  127OSM   C11F13653   3.896   2.293   7.733 -0.4599  0.5548  0.4337
  127OSM   H11F13654   3.825   2.362   7.682  1.1755  1.6311 -0.4521
  127OSM   H11G13655   3.993   2.347   7.728 -0.5743  0.8203  0.9690
  127OSM   C12F13656   3.837   2.293   7.877 -0.2362  0.2432  0.0007
  127OSM   H12F13657   3.730   2.271   7.862  0.0349 -0.6265 -0.7578
  127OSM   H12G13658   3.855   2.399   7.906  2.8871 -0.2279  0.1371
  127OSM   C13F13659   3.899   2.197   7.982  0.3693 -0.2240 -0.9645
  127OSM   H13F13660   4.006   2.222   8.000  0.3508 -1.0422  0.4238
  127OSM   H13G13661   3.901   2.087   7.963 -2.9956 -0.7600  1.0600
  127OSM   C14F13662   3.829   2.205   8.121  0.7570  0.1465 -0.1478
  127OSM   H14F13663   3.724   2.168   8.114  1.3146 -2.0958  1.8622
  127OSM   H14G13664   3.815   2.312   8.149 -0.6084 -1.1300  5.1602
  127OSM   C15F13665   3.897   2.138   8.240 -0.4548 -0.0841 -0.0998
  127OSM   H15F13666   3.993   2.191   8.257  0.2359 -1.0018 -1.0000
  127OSM   H15G13667   3.910   2.032   8.209 -2.2492  0.0644 -1.5901
  127OSM   C16F13668   3.813   2.137   8.368  0.4908 -0.0159 -0.1058
  127OSM   H16F13669   3.873   2.098   8.454 -2.8093 -0.8132  2.0311
  127OSM   H16G13670   3.728   2.065   8.365  0.6363 -0.1720 -0.5817
  127OSM   C17F13671   3.756   2.275   8.404  0.6764  0.2868  0.1766
  127OSM   H17F13672   3.699   2.312   8.316  1.5822  0.5083 -0.3272
  127OSM   H17G13673   3.837   2.350   8.404  0.8919  0.0600 -0.1087
  127OSM   C18F13674   3.665   2.282   8.524  0.6248  1.1627 -0.3301
  127OSM   H18F13675   3.578   2.216   8.504  0.9186  0.6976 -0.1020
  127OSM   H18G13676   3.629   2.383   8.552  1.5200  2.1815 -2.6363
  127OSM   H18H13677   3.710   2.236   8.615 -1.5536 -2.7219 -0.9710
  128OSM      N13678   3.802   0.075   6.063  0.1659 -0.2532 -0.2534
  128OSM    C1513679   3.686   0.064   6.158 -0.2109  0.7107 -0.8453
  128OSM   H15A13680   3.608  -0.004   6.129 -0.2484 -0.2894  1.4210
  128OSM   H15B13681   3.631   0.157   6.168 -1.6145 -0.2531  1.0846
  128OSM   H15C13682   3.726   0.036   6.254 -2.2603  1.0906  0.1838
  128OSM    C1413683   3.875  -0.053   6.064  0.2443 -0.0188  0.6032
  128OSM   H14A13684   3.943  -0.066   6.147  3.2168  0.8731 -1.4759
  128OSM   H14B13685   3.943  -0.063   5.980  1.5675 -0.2764  1.6567
  128OSM   H14C13686   3.803  -0.134   6.063  0.3261 -0.1051 -0.7540
  128OSM    C1313687   3.755   0.095   5.922  0.4593 -0.3684  0.0572
  128OSM   H13A13688   3.707   0.192   5.917  0.8100 -0.2283 -0.9476
  128OSM   H13B13689   3.698   0.016   5.876  2.0885 -1.4652 -0.1792
  128OSM   H13C13690   3.839   0.104   5.853 -0.4990  0.1799 -1.0750
  128OSM    C1213691   3.898   0.182   6.112 -0.2602 -0.0717  0.0314
  128OSM   H12A13692   3.842   0.274   6.125 -0.4777  0.0174 -1.3695
  128OSM   H12B13693   3.962   0.213   6.031 -0.0571  1.1308  0.6276
  128OSM    C1113694   3.986   0.161   6.237  0.3177  0.3061  0.6158
  128OSM   H11A13695   3.906   0.154   6.314  1.5728  1.7770  2.1314
  128OSM   H11B13696   4.047   0.249   6.266  2.4170 -0.4822 -1.1296
  128OSM      P13697   4.219   0.051   6.184  0.4921  0.0947 -0.2029
  128OSM    O1313698   4.240  -0.056   6.088  0.2368 -0.0122 -0.2839
  128OSM    O1413699   4.251   0.184   6.132 -0.1337  0.5835 -0.3217
  128OSM    O1113700   4.306   0.035   6.311 -1.0434  0.4076 -0.4570
  128OSM    O1213701   4.068   0.048   6.238  0.3362  0.1172  0.0495
  128OSM    C1S13702   4.266   0.031   6.447 -0.4050 -0.0716  0.1536
  128OSM    H1S13703   4.159  -0.001   6.453 -1.2877  2.7516  1.0628
  128OSM    H1T13704   4.281   0.130   6.495  0.3421 -0.4118  0.6341
  128OSM     NF13705   4.285  -0.079   6.675 -0.6102 -0.7038 -0.0717
  128OSM    HNF13706   4.321  -0.013   6.742 -1.1460  0.4674 -0.9178
  128OSM    C2S13707   4.343  -0.071   6.546 -0.1303  0.5759  0.0663
  128OSM    H2S13708   4.342  -0.178   6.514 -0.3874  0.8016 -0.7063
  128OSM    C3S13709   4.500  -0.048   6.551 -0.0175 -0.3991 -0.3021
  128OSM    H3S13710   4.520   0.059   6.576 -0.1754 -0.5318  0.4285
  128OSM     O313711   4.562  -0.067   6.420 -0.5303  0.0345 -0.1657
  128OSM    HO313712   4.490  -0.076   6.358 -0.5259  1.7941 -0.4850
  128OSM    C4S13713   4.582  -0.131   6.641  0.1242 -0.3193 -0.9126
  128OSM    H4S13714   4.571  -0.238   6.617  0.3232 -1.1480  2.2390
  128OSM    C5S13715   4.643  -0.088   6.753 -0.2394  0.0209 -0.4065
  128OSM    H5S13716   4.621   0.008   6.802 -1.3077 -0.8604  0.9393
  128OSM    C6S13717   4.725  -0.175   6.845 -0.0251 -0.0389 -0.0327
  128OSM    H6S13718   4.821  -0.125   6.870  0.3268  0.1944 -1.7776
  128OSM    H6T13719   4.756  -0.264   6.787 -0.8583 -0.5684  0.3097
  128OSM    C7S13720   4.652  -0.218   6.977  0.2101  0.5954  0.3244
  128OSM    H7S13721   4.566  -0.286   6.955 -1.6881  2.4973  1.4782
  128OSM    H7T13722   4.618  -0.125   7.028 -0.5013 -0.7478  2.4639
  128OSM    C8S13723   4.755  -0.298   7.068  0.1597 -0.2370 -0.0963
  128OSM    H8S13724   4.849  -0.248   7.099 -0.4211 -0.1265  1.5929
  128OSM    H8T13725   4.775  -0.394   7.016  0.3059  0.2919 -1.0360
  128OSM    C9S13726   4.689  -0.321   7.205  0.0007 -0.0228  0.2776
  128OSM    H9S13727   4.586  -0.360   7.219 -0.1288  0.0764 -0.3537
  128OSM    H9T13728   4.697  -0.223   7.257 -0.0671 -0.7128  1.6307
  128OSM   C10S13729   4.779  -0.406   7.297  0.4529 -0.6362 -0.3056
  128OSM   H10S13730   4.887  -0.405   7.267  0.7335  0.2230  0.6628
  128OSM   H10T13731   4.754  -0.514   7.299  1.3710 -0.9249 -2.2092
  128OSM   C11S13732   4.777  -0.351   7.440  0.3281  0.3064  0.2900
  128OSM   H11S13733   4.670  -0.332   7.466  0.7586  1.8398  1.0700
  128OSM   H11T13734   4.821  -0.249   7.447  0.1780  0.4602 -0.8074
  128OSM   C12S13735   4.838  -0.451   7.541 -0.1067 -0.1993 -0.0358
  128OSM   H12S13736   4.948  -0.437   7.529 -0.2779 -0.1306 -1.7429
  128OSM   H12T13737   4.823  -0.558   7.519  0.3510 -0.7596  2.1570
  128OSM   C13S13738   4.804  -0.425   7.689  0.0603 -0.0127  0.2158
  128OSM   H13S13739   4.694  -0.428   7.700  0.1197  0.1316  0.8965
  128OSM   H13T13740   4.851  -0.326   7.708 -0.2200 -0.0361  1.0673
  128OSM   C14S13741   4.870  -0.523   7.794 -0.2440  0.6934  0.0352
  128OSM   H14S13742   4.971  -0.485   7.819  0.8748 -1.0457 -1.5393
  128OSM   H14T13743   4.890  -0.624   7.751  3.9484  1.7222 -0.8674
  128OSM   C15S13744   4.790  -0.525   7.925  0.1684  0.5205 -0.5785
  128OSM   H15S13745   4.684  -0.546   7.899 -0.0206  3.7214 -2.9926
  128OSM   H15T13746   4.797  -0.421   7.962  0.9930  0.0995  0.5003
  128OSM   C16S13747   4.850  -0.623   8.032 -0.1094 -0.4231  0.1298
  128OSM   H16S13748   4.954  -0.595   8.055  0.2795 -0.9440 -0.9288
  128OSM   H16T13749   4.855  -0.722   7.981  0.1747 -0.5839  0.4716
  128OSM   C17S13750   4.774  -0.628   8.157  0.1241 -1.1977  0.3523
  128OSM   H17S13751   4.663  -0.617   8.153  0.0324 -1.2808  2.0182
  128OSM   H17T13752   4.815  -0.537   8.205  0.8115 -0.2045 -1.9579
  128OSM   C18S13753   4.796  -0.755   8.229 -0.0790  0.8450  0.4256
  128OSM   H18S13754   4.893  -0.751   8.282 -1.0404  1.2713  2.2465
  128OSM   H18T13755   4.789  -0.845   8.164 -0.9287 -0.2964  2.0157
  128OSM   H18U13756   4.726  -0.772   8.314 -1.2543  0.5710 -0.5555
  128OSM    C1F13757   4.168  -0.138   6.696  0.1893 -0.9021 -0.6713
  128OSM     OF13758   4.117  -0.191   6.598  0.5683 -0.7953  0.8730
  128OSM    C2F13759   4.099  -0.135   6.835 -0.6764  0.0575  0.4700
  128OSM    H2F13760   3.989  -0.119   6.830 -0.7117  1.0625  3.0044
  128OSM    H2G13761   4.145  -0.059   6.901 -2.0263 -0.2565  1.8278
  128OSM    C3F13762   4.095  -0.274   6.909 -1.1431  0.1556  0.0323
  128OSM    H3F13763   4.046  -0.348   6.842  0.2074  0.7606 -1.6978
  128OSM    H3G13764   4.029  -0.279   6.998  1.2472 -1.9198  1.8369
  128OSM    C4F13765   4.234  -0.315   6.957 -0.2490 -0.5593 -0.5479
  128OSM    H4F13766   4.307  -0.325   6.874  2.1322  3.2829  0.8275
  128OSM    H4G13767   4.223  -0.415   7.005  0.7431 -0.0851  0.7319
  128OSM    C5F13768   4.308  -0.225   7.050  0.0472 -0.3071 -0.0737
  128OSM    H5F13769   4.334  -0.138   6.986  0.6460 -0.5227 -0.1273
  128OSM    H5G13770   4.407  -0.261   7.086 -0.8743 -0.5642  2.4424
  128OSM    C6F13771   4.221  -0.174   7.168  0.0741 -0.0772 -1.2776
  128OSM    H6F13772   4.188  -0.251   7.241  3.3993  0.1203  0.6204
  128OSM    H6G13773   4.126  -0.132   7.127 -0.4280 -0.9405 -1.0347
  128OSM    C7F13774   4.291  -0.060   7.246 -0.0215 -0.0747  0.3632
  128OSM    H7F13775   4.219  -0.019   7.320 -0.5392 -0.2285 -0.0499
  128OSM    H7G13776   4.320   0.023   7.178 -1.6654  0.0654 -0.2291
  128OSM    C8F13777   4.417  -0.102   7.323 -0.5743  0.9755 -0.7142
  128OSM    H8F13778   4.463  -0.011   7.368 -0.5978  0.6637 -0.0403
  128OSM    H8G13779   4.483  -0.136   7.240 -0.3024  2.1925 -1.0125
  128OSM    C9F13780   4.401  -0.214   7.424  0.0686  0.1086  0.6300
  128OSM    H9F13781   4.380  -0.310   7.374 -1.1537  1.6162 -1.9891
  128OSM   C10F13782   4.406  -0.214   7.558 -0.3503 -0.1388  0.4191
  128OSM   H10F13783   4.388  -0.310   7.609 -1.6934  0.4887  1.1832
  128OSM   C11F13784   4.433  -0.093   7.646  0.6616 -0.1621 -0.0499
  128OSM   H11F13785   4.342  -0.062   7.702 -0.5424 -1.9258 -0.9407
  128OSM   H11G13786   4.461  -0.002   7.590 -1.4487 -0.2849 -1.4219
  128OSM   C12F13787   4.544  -0.119   7.742  0.6750 -0.0083  0.0309
  128OSM   H12F13788   4.568  -0.031   7.806 -0.4175 -1.0816  2.0145
  128OSM   H12G13789   4.638  -0.167   7.709  0.7665 -0.4909  0.9476
  128OSM   C13F13790   4.496  -0.222   7.855 -0.2675  0.4439 -0.1420
  128OSM   H13F13791   4.491  -0.323   7.808  1.0972  0.2830  0.0365
  128OSM   H13G13792   4.399  -0.194   7.901 -0.5008 -0.2088 -0.2175
  128OSM   C14F13793   4.590  -0.237   7.974 -0.4822 -0.0407 -0.1750
  128OSM   H14F13794   4.691  -0.200   7.946  0.3566 -0.7611  1.7107
  128OSM   H14G13795   4.601  -0.346   7.992 -1.6026  0.0499  1.1999
  128OSM   C15F13796   4.543  -0.181   8.107 -0.3578  1.1242 -0.2498
  128OSM   H15F13797   4.449  -0.227   8.146  0.0082  0.1317 -0.5089
  128OSM   H15G13798   4.521  -0.072   8.098 -0.5072  0.9872 -1.9543
  128OSM   C16F13799   4.650  -0.196   8.220 -0.2680  0.0098  0.4624
  128OSM   H16F13800   4.747  -0.147   8.195  0.0991 -0.1992  1.4272
  128OSM   H16G13801   4.668  -0.305   8.232 -0.0236 -0.0282 -0.2377
  128OSM   C17F13802   4.586  -0.145   8.351  0.5432 -0.2431  0.1558
  128OSM   H17F13803   4.519  -0.224   8.394  1.7894  0.5363  3.8908
  128OSM   H17G13804   4.532  -0.049   8.337  1.3755  0.0486 -1.1844
  128OSM   C18F13805   4.692  -0.111   8.456  0.1725  0.0137  0.3077
  128OSM   H18F13806   4.655  -0.069   8.552 -0.4586 -1.4327  0.7167
  128OSM   H18G13807   4.768  -0.036   8.424  1.5617 -0.0187  3.2159
  128OSM   H18H13808   4.753  -0.199   8.487  1.2248  0.6227  0.0158
  129OSM      N13809   4.785   0.788   6.128  0.6789 -0.4647 -0.0424
  129OSM    C1513810   4.913   0.778   6.042 -0.0435  1.5545 -0.3975
  129OSM   H15A13811   4.992   0.722   6.090 -0.2958 -0.1229 -1.8414
  129OSM   H15B13812   4.951   0.871   6.002  0.0496  0.8455 -2.0305
  129OSM   H15C13813   4.888   0.724   5.952 -1.4710 -1.5556  1.6991
  129OSM    C1413814   4.682   0.878   6.059 -0.3110  0.9272 -0.2973
  129OSM   H14A13815   4.653   0.825   5.970 -0.5129 -2.0188  1.4014
  129OSM   H14B13816   4.718   0.980   6.050  0.5111  0.7776  1.0398
  129OSM   H14C13817   4.594   0.895   6.121 -0.8760 -0.0651 -0.8126
  129OSM    C1313818   4.729   0.646   6.135  0.4048  0.4760  0.2844
  129OSM   H13A13819   4.710   0.605   6.037  0.8998  1.0619 -0.0619
  129OSM   H13B13820   4.637   0.647   6.192  1.2399  1.4421  1.6756
  129OSM   H13C13821   4.798   0.577   6.183 -0.5641 -1.2640 -0.7186
  129OSM    C1213822   4.815   0.838   6.270 -0.4830 -0.2613 -0.3111
  129OSM   H12A13823   4.862   0.936   6.266  0.9283 -0.8239  1.5058
  129OSM   H12B13824   4.890   0.781   6.321 -0.8467  0.8977  1.6135
  129OSM    C1113825   4.699   0.854   6.370  0.1688 -0.2547 -0.2638
  129OSM   H11A13826   4.726   0.868   6.477 -1.1897  1.7669 -0.1083
  129OSM   H11B13827   4.650   0.755   6.378  1.8420 -1.2934 -2.1350
  129OSM      P13828   4.626   1.101   6.343 -0.6768 -0.0144  0.9168
  129OSM    O1313829   4.745   1.129   6.259  0.0432 -0.0427 -0.0518
  129OSM    O1413830   4.503   1.180   6.299 -0.5245  0.2712  0.1496
  129OSM    O1113831   4.661   1.130   6.491  0.2490  0.1773  0.5397
  129OSM    O1213832   4.598   0.950   6.337 -0.0089  0.1352 -0.5103
  129OSM    C1S13833   4.562   1.123   6.594  0.5776  0.4060  0.4075
  129OSM    H1S13834   4.517   1.022   6.588  1.8811 -0.1162 -1.8106
  129OSM    H1T13835   4.483   1.199   6.575  1.1467  0.6899 -0.9927
  129OSM     NF13836   4.493   1.143   6.829  0.3720  0.9219 -0.3585
  129OSM    HNF13837   4.432   1.222   6.833  2.3394  2.5228 -0.3585
  129OSM    C2S13838   4.609   1.147   6.742 -0.1508  0.4914 -0.1497
  129OSM    H2S13839   4.676   1.063   6.770  0.2683  1.3496  1.5337
  129OSM    C3S13840   4.696   1.276   6.744  0.3206 -0.1367  0.4252
  129OSM    H3S13841   4.632   1.364   6.721  1.6567  0.2979 -1.9864
  129OSM     O313842   4.805   1.277   6.648 -0.0343 -0.0563  0.2950
  129OSM    HO313843   4.780   1.206   6.587  1.4977  0.1225 -0.5904
  129OSM    C4S13844   4.741   1.293   6.887 -0.4416 -0.0846 -0.9543
  129OSM    H4S13845   4.677   1.357   6.949 -0.1649  1.1701 -1.9158
  129OSM    C5S13846   4.844   1.232   6.957  0.5014  0.1728 -0.4963
  129OSM    H5S13847   4.909   1.155   6.912  2.5570  0.5077  1.6532
  129OSM    C6S13848   4.882   1.271   7.101  0.3744  0.7763  0.3166
  129OSM    H6S13849   4.980   1.324   7.101  0.6572  0.2555  0.3480
  129OSM    H6T13850   4.924   1.181   7.151  0.4020  0.9222  0.5627
  129OSM    C7S13851   4.778   1.342   7.180  0.1839  0.0343 -0.3717
  129OSM    H7S13852   4.697   1.268   7.197 -0.5128  0.6241 -1.0583
  129OSM    H7T13853   4.732   1.425   7.122 -0.2574 -0.5446 -0.8614
  129OSM    C8S13854   4.822   1.404   7.319  0.0175 -1.1225  0.8689
  129OSM    H8S13855   4.731   1.457   7.354  0.1239 -0.3684  0.0526
  129OSM    H8T13856   4.903   1.478   7.302 -0.2539 -0.3396  2.7838
  129OSM    C9S13857   4.855   1.287   7.415  0.1900 -0.6376  0.4988
  129OSM    H9S13858   4.919   1.210   7.367 -0.5130 -1.0625  0.2273
  129OSM    H9T13859   4.765   1.226   7.437 -1.5473  1.5166 -0.1935
  129OSM   C10S13860   4.920   1.343   7.544 -0.2155  0.4617 -0.1050
  129OSM   H10S13861   5.003   1.413   7.518 -0.7267  1.2089  0.2405
  129OSM   H10T13862   4.963   1.259   7.603 -2.7254 -0.2713  0.7701
  129OSM   C11S13863   4.808   1.399   7.642 -0.3888  0.9603  0.2835
  129OSM   H11S13864   4.731   1.322   7.666 -1.3490  1.3306 -1.4277
  129OSM   H11T13865   4.751   1.485   7.602 -1.1864  0.0932 -0.5174
  129OSM   C12S13866   4.872   1.453   7.771  0.5930 -0.0561  0.0043
  129OSM   H12S13867   4.945   1.532   7.745  2.1603 -0.2704  3.1837
  129OSM   H12T13868   4.920   1.368   7.825 -1.2449  0.5981  2.9357
  129OSM   C13S13869   4.780   1.516   7.868 -0.1283 -0.0369  0.1092
  129OSM   H13S13870   4.713   1.438   7.910 -1.1656  0.2850 -0.9026
  129OSM   H13T13871   4.712   1.581   7.809 -0.6530 -0.5389  0.1544
  129OSM   C14S13872   4.849   1.585   7.987 -0.2120 -0.0560 -0.1845
  129OSM   H14S13873   4.921   1.665   7.960 -0.2722  0.4830  1.1562
  129OSM   H14T13874   4.904   1.505   8.041  0.4520  1.5312  1.6111
  129OSM   C15S13875   4.742   1.654   8.075 -0.1655  1.1872 -0.9513
  129OSM   H15S13876   4.682   1.572   8.119  0.4658 -0.5928 -3.2233
  129OSM   H15T13877   4.670   1.725   8.031 -0.4633  1.5267  0.0500
  129OSM   C16S13878   4.811   1.743   8.183  0.7790 -0.1335 -0.6763
  129OSM   H16S13879   4.831   1.842   8.137  1.0774  0.9847  1.6931
  129OSM   H16T13880   4.904   1.689   8.210  0.5849 -0.6013 -0.9195
  129OSM   C17S13881   4.725   1.786   8.305  0.3167  0.2273  1.1648
  129OSM   H17S13882   4.628   1.825   8.267  0.0538  0.6340  2.2251
  129OSM   H17T13883   4.778   1.869   8.357  2.7729  0.5908 -1.6391
  129OSM   C18S13884   4.699   1.668   8.395 -0.3800 -0.4875 -0.6002
  129OSM   H18S13885   4.652   1.693   8.492 -0.8664 -4.5936  0.4300
  129OSM   H18T13886   4.791   1.606   8.405 -0.9700 -1.3799 -0.5662
  129OSM   H18U13887   4.626   1.590   8.365 -0.8402 -0.3676  0.1721
  129OSM    C1F13888   4.445   1.028   6.871 -0.9135 -0.0887  0.0398
  129OSM     OF13889   4.515   0.928   6.862 -0.1728 -0.5665  0.0957
  129OSM    C2F13890   4.301   1.030   6.911 -0.3607 -0.4622 -0.5339
  129OSM    H2F13891   4.233   0.996   6.830 -1.1965 -0.6011  0.2052
  129OSM    H2G13892   4.274   1.133   6.941  0.6876 -0.9773  2.6146
  129OSM    C3F13893   4.278   0.939   7.039  0.1307  0.4065  0.4497
  129OSM    H3F13894   4.296   0.835   7.007  1.2436  0.7464 -0.0718
  129OSM    H3G13895   4.176   0.949   7.081 -0.2046 -3.2515  0.7598
  129OSM    C4F13896   4.368   0.971   7.164  0.3222  0.3523 -0.0730
  129OSM    H4F13897   4.473   0.950   7.134 -0.4894 -0.5064 -2.6003
  129OSM    H4G13898   4.323   0.893   7.230 -2.0459  0.7455 -1.1093
  129OSM    C5F13899   4.359   1.110   7.228 -0.3039  0.1251  0.3125
  129OSM    H5F13900   4.255   1.129   7.261  0.2640  0.4764  2.0151
  129OSM    H5G13901   4.387   1.182   7.148  1.2466  0.3958  1.0696
  129OSM    C6F13902   4.441   1.132   7.355  0.1302  0.5276  0.4993
  129OSM    H6F13903   4.428   1.238   7.386  0.3985  0.5952  0.3852
  129OSM    H6G13904   4.549   1.112   7.340 -0.7238 -3.6140 -1.9413
  129OSM    C7F13905   4.398   1.047   7.474  0.2849  0.1242 -0.8934
  129OSM    H7F13906   4.442   0.945   7.470  0.7239  0.1749  1.3258
  129OSM    H7G13907   4.287   1.044   7.479  0.1759  2.1810 -1.0663
  129OSM    C8F13908   4.447   1.123   7.596  0.2240  0.4194 -0.6901
  129OSM    H8F13909   4.383   1.213   7.591  0.5606  0.6077 -3.5503
  129OSM    H8G13910   4.548   1.166   7.576  0.2952  1.3569  1.4281
  129OSM    C9F13911   4.411   1.047   7.730 -0.4452 -0.2209 -0.0010
  129OSM    H9F13912   4.351   0.956   7.718  0.7143 -0.9646 -0.3751
  129OSM   C10F13913   4.450   1.087   7.853  1.6455  0.1145  0.2023
  129OSM   H10F13914   4.432   1.016   7.935  1.7707  0.8686  0.8898
  129OSM   C11F13915   4.525   1.209   7.892 -0.2401 -0.0908 -1.0094
  129OSM   H11F13916   4.465   1.274   7.959 -0.5124 -2.6373  1.4328
  129OSM   H11G13917   4.541   1.269   7.800 -1.5746  1.3794 -0.3214
  129OSM   C12F13918   4.649   1.155   7.969 -0.2610 -0.4214  0.0556
  129OSM   H12F13919   4.734   1.226   7.966 -0.6239  0.0369 -2.8935
  129OSM   H12G13920   4.687   1.063   7.918 -0.8226  0.3866 -1.9244
  129OSM   C13F13921   4.615   1.110   8.107  0.2940 -0.6111 -0.3509
  129OSM   H13F13922   4.523   1.048   8.109 -0.1135 -0.0029  1.2894
  129OSM   H13G13923   4.608   1.194   8.179  0.6492 -0.7554 -0.1425
  129OSM   C14F13924   4.731   1.022   8.163  0.9178 -0.1411  0.0878
  129OSM   H14F13925   4.818   1.091   8.152 -0.3124  1.5465  0.5420
  129OSM   H14G13926   4.733   0.933   8.097  1.4783  0.0016 -0.0967
  129OSM   C15F13927   4.707   0.982   8.307 -0.2613 -0.0834 -0.1176
  129OSM   H15F13928   4.754   0.882   8.318  2.6833  1.2222  0.0500
  129OSM   H15G13929   4.596   0.974   8.311 -0.3388 -1.1826 -2.4991
  129OSM   C16F13930   4.774   1.085   8.403  0.5574  0.4745  0.0959
  129OSM   H16F13931   4.717   1.178   8.384  0.3126  0.5821  1.2854
  129OSM   H16G13932   4.876   1.105   8.364 -0.3928  0.2142 -2.7973
  129OSM   C17F13933   4.758   1.046   8.553 -0.8547 -0.3924  0.6363
  129OSM   H17F13934   4.805   0.946   8.567  2.3354  0.7848 -0.7478
  129OSM   H17G13935   4.652   1.039   8.586 -1.1279  0.7100  0.0454
  129OSM   C18F13936   4.829   1.142   8.646 -0.3209  0.7690 -0.8184
  129OSM   H18F13937   4.835   1.096   8.747 -0.1797 -0.2088 -1.2549
  129OSM   H18G13938   4.779   1.240   8.655  1.7911  2.1633 -2.9526
  129OSM   H18H13939   4.934   1.155   8.611  0.4594 -2.1654  0.1448
  130OSM      N13940   6.156   5.383   6.444  0.0633  0.0363 -0.4237
  130OSM    C1513941   6.127   5.328   6.579 -0.3501 -0.0562 -0.1167
  130OSM   H15A13942   6.207   5.335   6.652 -1.6115 -1.7784  1.5509
  130OSM   H15B13943   6.109   5.222   6.569  0.5138 -0.3739  1.3712
  130OSM   H15C13944   6.039   5.374   6.623 -1.3097  0.6114 -2.5952
  130OSM    C1413945   6.219   5.519   6.457 -1.1391 -0.1437  0.0472
  130OSM   H14A13946   6.257   5.560   6.364 -2.2101 -0.0048 -0.3477
  130OSM   H14B13947   6.302   5.508   6.525 -1.2224  0.5330  0.2639
  130OSM   H14C13948   6.150   5.597   6.484  1.5316  3.4496 -2.4511
  130OSM    C1313949   6.254   5.295   6.377  0.0099  0.3376 -0.1857
  130OSM   H13A13950   6.343   5.291   6.438 -2.2321 -0.6491  3.3216
  130OSM   H13B13951   6.269   5.325   6.274 -1.3708 -0.2198 -0.5674
  130OSM   H13C13952   6.215   5.196   6.361 -0.6307  0.4211  0.7898
  130OSM    C1213953   6.039   5.390   6.350  0.1909 -0.4861 -0.5180
  130OSM   H12A13954   6.005   5.292   6.319 -0.8594 -0.0316 -0.8431
  130OSM   H12B13955   6.066   5.443   6.260 -0.3966  0.8378  0.0692
  130OSM    C1113956   5.919   5.461   6.412 -0.0407 -0.6126  0.4718
  130OSM   H11A13957   5.944   5.561   6.454  0.3783 -0.3858 -0.3154
  130OSM   H11B13958   5.876   5.413   6.503  0.1017 -0.6429  0.5238
  130OSM      P13959   5.717   5.365   6.276  0.1184  0.2293 -0.1286
  130OSM    O1313960   5.664   5.393   6.143  0.5254 -0.7252 -0.0173
  130OSM    O1413961   5.792   5.239   6.297  0.6959 -0.0611 -0.2463
  130OSM    O1113962   5.604   5.379   6.389  0.4732 -0.1319  0.3179
  130OSM    O1213963   5.823   5.476   6.315  0.0067  0.5558  0.0929
  130OSM    C1S13964   5.557   5.296   6.492  0.4753  0.0777 -0.4936
  130OSM    H1S13965   5.600   5.194   6.484  0.4888  0.1764 -2.0096
  130OSM    H1T13966   5.449   5.284   6.471  0.6638 -1.4088 -0.7154
  130OSM     NF13967   5.517   5.241   6.716 -0.0577  0.2614 -0.3546
  130OSM    HNF13968   5.420   5.222   6.721  0.1091 -1.0858 -1.5404
  130OSM    C2S13969   5.572   5.347   6.633  0.5684 -0.0061 -0.0297
  130OSM    H2S13970   5.681   5.353   6.655  0.7548 -1.3666 -0.4635
  130OSM    C3S13971   5.502   5.479   6.656  0.1237  0.2270 -0.0166
  130OSM    H3S13972   5.399   5.460   6.618  0.1456 -0.1880  0.1304
  130OSM     O313973   5.557   5.586   6.578 -0.2904  0.2420 -0.1203
  130OSM    HO313974   5.599   5.534   6.509 -0.0570 -1.6884  1.3762
  130OSM    C4S13975   5.503   5.516   6.806  0.1483 -0.0002 -0.1844
  130OSM    H4S13976   5.434   5.458   6.870  1.6071 -2.9464 -1.0817
  130OSM    C5S13977   5.578   5.609   6.867 -0.5992 -0.7645  0.6204
  130OSM    H5S13978   5.649   5.660   6.800 -0.1772 -0.0108  1.6230
  130OSM    C6S13979   5.570   5.659   7.005  0.4335  0.5428 -0.5297
  130OSM    H6S13980   5.524   5.760   7.002  1.6529  1.1409  0.1017
  130OSM    H6T13981   5.678   5.676   7.027  1.1809 -1.2645 -2.5710
  130OSM    C7S13982   5.503   5.564   7.109 -0.2164 -0.1721  0.1555
  130OSM    H7S13983   5.569   5.474   7.108  0.1616  0.0817 -1.9024
  130OSM    H7T13984   5.397   5.550   7.079  0.2047  1.6302 -2.5940
  130OSM    C8S13985   5.489   5.621   7.249 -0.0851 -0.7064 -0.5825
  130OSM    H8S13986   5.434   5.551   7.315 -1.4154  0.5889 -0.2839
  130OSM    H8T13987   5.432   5.716   7.241  0.5092 -0.4508 -2.2573
  130OSM    C9S13988   5.621   5.635   7.324 -0.1579  0.3706  0.1670
  130OSM    H9S13989   5.682   5.689   7.249  0.7305 -1.7707 -0.7125
  130OSM    H9T13990   5.664   5.532   7.328  0.2853  0.4047 -2.3135
  130OSM   C10S13991   5.618   5.698   7.468 -0.3090  0.7235 -0.2551
  130OSM   H10S13992   5.559   5.791   7.458 -2.1976 -0.2610  1.1885
  130OSM   H10T13993   5.719   5.723   7.507 -0.0591 -0.9600  0.2595
  130OSM   C11S13994   5.548   5.600   7.566  0.5775 -0.2230 -0.3507
  130OSM   H11S13995   5.605   5.505   7.566 -0.8128 -1.0897 -0.1750
  130OSM   H11T13996   5.446   5.582   7.526 -0.2201 -1.1794  1.9420
  130OSM   C12S13997   5.543   5.654   7.713 -0.6931  0.3265 -0.3820
  130OSM   H12S13998   5.502   5.576   7.781  0.3736 -2.0514 -2.3226
  130OSM   H12T13999   5.472   5.739   7.715 -1.1703 -0.0332 -1.6613
  130OSM   C13S14000   5.678   5.688   7.771  0.1869  0.1966 -0.3897
  130OSM   H13S14001   5.709   5.785   7.727 -1.0468  1.0008  0.4461
  130OSM   H13T14002   5.753   5.609   7.753  0.3563  0.5666 -1.3814
  130OSM   C14S14003   5.675   5.713   7.923  0.6909 -0.5430  0.1432
  130OSM   H14S14004   5.658   5.614   7.970 -0.6870 -0.7901 -0.8121
  130OSM   H14T14005   5.587   5.776   7.947 -0.4116 -2.5301  1.5939
  130OSM   C15S14006   5.806   5.769   7.974  0.0022  0.3696  0.2484
  130OSM   H15S14007   5.800   5.873   7.936  0.8706  0.5304  0.5388
  130OSM   H15T14008   5.892   5.730   7.915  0.5002  0.0228  1.1791
  130OSM   C16S14009   5.823   5.761   8.124  0.9181 -0.3146 -0.2480
  130OSM   H16S14010   5.851   5.655   8.146  1.0514 -0.1581  0.3615
  130OSM   H16T14011   5.729   5.790   8.175  1.2806  0.0305  0.2325
  130OSM   C17S14012   5.937   5.842   8.185 -0.5371 -0.1687  0.1647
  130OSM   H17S14013   5.932   5.949   8.155  0.3752  0.9939  3.6567
  130OSM   H17T14014   6.029   5.798   8.142 -1.9578 -2.1955 -0.9626
  130OSM   C18S14015   5.950   5.854   8.343 -0.4066 -0.4499  0.9169
  130OSM   H18S14016   5.959   5.750   8.382 -0.1241 -0.6511  0.3203
  130OSM   H18T14017   5.848   5.890   8.368 -3.1485 -4.2401 -3.2561
  130OSM   H18U14018   6.039   5.918   8.365  0.2940 -2.0338  3.1504
  130OSM    C1F14019   5.601   5.135   6.745  0.2437 -0.3130  0.4863
  130OSM     OF14020   5.722   5.156   6.725  0.3157  0.1078  0.0903
  130OSM    C2F14021   5.540   5.006   6.786  0.1964  0.0291  0.2510
  130OSM    H2F14022   5.552   4.948   6.692  1.0980  2.3880 -1.1879
  130OSM    H2G14023   5.433   5.028   6.806  0.4005  0.8920  0.4328
  130OSM    C3F14024   5.630   4.949   6.903  0.1272 -0.2278 -0.0544
  130OSM    H3F14025   5.740   4.955   6.890  0.2544  2.3284  1.5874
  130OSM    H3G14026   5.621   4.838   6.904  1.6628 -0.4296 -2.4015
  130OSM    C4F14027   5.614   5.028   7.033  0.3050  0.2726 -1.1373
  130OSM    H4F14028   5.507   5.030   7.062  0.7840  1.0273  0.7636
  130OSM    H4G14029   5.639   5.133   7.007 -0.7362  0.3290 -1.9783
  130OSM    C5F14030   5.720   4.982   7.140 -0.5512 -0.6501  0.6352
  130OSM    H5F14031   5.814   5.035   7.113 -1.2306 -0.7203 -2.2190
  130OSM    H5G14032   5.730   4.871   7.146 -3.5530 -0.9695  1.6921
  130OSM    C6F14033   5.687   5.042   7.274 -0.2390 -0.3574  0.0734
  130OSM    H6F14034   5.586   5.088   7.284 -1.5985 -2.5536 -2.4896
  130OSM    H6G14035   5.757   5.128   7.290  1.9443 -1.5683 -2.2366
  130OSM    C7F14036   5.713   4.953   7.394 -1.1105  0.3752  0.0271
  130OSM    H7F14037   5.815   4.911   7.392 -0.0923  2.4817  1.8991
  130OSM    H7G14038   5.647   4.865   7.384 -0.4424 -0.4113  2.0263
  130OSM    C8F14039   5.689   5.014   7.534 -0.0942 -0.7458 -0.1679
  130OSM    H8F14040   5.744   5.111   7.537  0.3205 -0.9452 -1.0654
  130OSM    H8G14041   5.735   4.931   7.591 -1.3934 -0.8183  0.8353
  130OSM    C9F14042   5.547   5.035   7.572 -0.7808  0.1871 -0.8514
  130OSM    H9F14043   5.474   4.996   7.499 -0.3783 -2.1507 -0.0983
  130OSM   C10F14044   5.497   5.106   7.672  0.2466 -0.4626  0.2451
  130OSM   H10F14045   5.388   5.112   7.686  0.2204 -0.3954  0.0190
  130OSM   C11F14046   5.570   5.188   7.775 -0.5317  0.1363 -0.0954
  130OSM   H11F14047   5.575   5.296   7.749 -3.2638  0.7856  1.6485
  130OSM   H11G14048   5.673   5.148   7.783 -1.0198 -0.9437  1.1864
  130OSM   C12F14049   5.521   5.191   7.920 -0.5715  0.1886 -0.1422
  130OSM   H12F14050   5.530   5.093   7.971  0.8824  1.4068  2.0701
  130OSM   H12G14051   5.411   5.210   7.918 -0.4120  1.0932 -0.5719
  130OSM   C13F14052   5.589   5.296   8.005 -0.1288 -0.3922 -0.0346
  130OSM   H13F14053   5.560   5.398   7.971  1.0347 -0.1520 -0.3696
  130OSM   H13G14054   5.698   5.292   7.983  0.4034  0.6659  2.1626
  130OSM   C14F14055   5.585   5.282   8.160 -0.4738  0.4810  0.2440
  130OSM   H14F14056   5.620   5.179   8.184  0.5874  0.7661 -0.0401
  130OSM   H14G14057   5.481   5.302   8.194 -0.8585 -0.3478 -0.4007
  130OSM   C15F14058   5.697   5.361   8.224  0.5508  0.0681  0.0324
  130OSM   H15F14059   5.665   5.468   8.225 -2.2300 -0.6748  1.3394
  130OSM   H15G14060   5.792   5.334   8.173  0.8412 -0.4263  0.8156
  130OSM   C16F14061   5.738   5.334   8.374  0.2658 -0.2657 -0.0392
  130OSM   H16F14062   5.655   5.349   8.447 -1.4260 -0.0992 -1.8876
  130OSM   H16G14063   5.824   5.394   8.409 -0.6523  1.1216 -0.0583
  130OSM   C17F14064   5.775   5.189   8.398  0.7506  0.1451  0.2672
  130OSM   H17F14065   5.850   5.153   8.325 -1.9747 -2.0367 -1.7143
  130OSM   H17G14066   5.683   5.129   8.382  1.6538 -0.9483 -1.0215
  130OSM   C18F14067   5.831   5.165   8.536  0.2303  0.6235 -0.0599
  130OSM   H18F14068   5.923   5.223   8.554  0.1896  0.0230  2.3863
  130OSM   H18G14069   5.846   5.056   8.552 -1.8056  0.2550 -0.3144
  130OSM   H18H14070   5.747   5.200   8.600 -0.3124  1.3241 -1.1082
  131OSM      N14071   1.303   0.411   5.796  0.0504 -0.1628  0.4545
  131OSM    C1514072   1.288   0.339   5.926 -0.1538 -0.1951 -0.4438
  131OSM   H15A14073   1.232   0.391   6.002  1.3839 -0.9303  1.2537
  131OSM   H15B14074   1.378   0.325   5.983  0.1039  0.8213 -0.5683
  131OSM   H15C14075   1.244   0.241   5.919  1.3522 -0.9504  0.3479
  131OSM    C1414076   1.342   0.316   5.688 -0.2326 -0.3024 -0.2494
  131OSM   H14A14077   1.255   0.272   5.641  0.9027  0.7804 -3.6804
  131OSM   H14B14078   1.415   0.245   5.724  0.6228  1.5863  1.9893
  131OSM   H14C14079   1.384   0.364   5.601  2.6827 -1.4245  0.4471
  131OSM    C1314080   1.165   0.469   5.765 -1.0792 -0.6301  0.5525
  131OSM   H13A14081   1.089   0.393   5.773 -0.2806 -1.2751  3.3451
  131OSM   H13B14082   1.166   0.522   5.671  3.3149 -0.2225  0.6304
  131OSM   H13C14083   1.152   0.546   5.840  3.5182  0.2685  0.7304
  131OSM    C1214084   1.406   0.519   5.806  0.2151  0.3695  0.0030
  131OSM   H12A14085   1.395   0.573   5.713 -0.8837  0.4210  0.1557
  131OSM   H12B14086   1.509   0.486   5.816  0.4686  1.5394  1.5554
  131OSM    C1114087   1.378   0.621   5.916 -0.0309  0.3457  0.4871
  131OSM   H11A14088   1.274   0.658   5.899 -0.9988 -2.4532 -0.2431
  131OSM   H11B14089   1.437   0.713   5.898 -0.7120  0.8184  0.5974
  131OSM      P14090   1.562   0.528   6.071 -0.2624  0.3036 -0.3425
  131OSM    O1314091   1.569   0.378   6.101  0.0572  0.3537  0.1262
  131OSM    O1414092   1.641   0.573   5.954 -0.0646 -0.2668 -0.8359
  131OSM    O1114093   1.601   0.611   6.201  0.0976 -0.2061  0.1919
  131OSM    O1214094   1.411   0.575   6.049  0.0532  0.1993 -0.1837
  131OSM    C1S14095   1.604   0.754   6.185 -0.9910 -0.0643 -0.9644
  131OSM    H1S14096   1.507   0.796   6.151 -1.7767 -0.4992  0.6846
  131OSM    H1T14097   1.689   0.799   6.130  0.6473 -0.7141  0.9212
  131OSM     NF14098   1.627   0.963   6.308  0.1850  0.2679 -0.4893
  131OSM    HNF14099   1.713   1.013   6.299  0.5924 -0.5192 -1.0982
  131OSM    C2S14100   1.626   0.820   6.323 -0.6651 -0.0810  0.6470
  131OSM    H2S14101   1.538   0.802   6.388 -0.7594 -0.0024  0.5435
  131OSM    C3S14102   1.763   0.778   6.391 -0.1074 -0.4124 -0.2433
  131OSM    H3S14103   1.842   0.820   6.325 -1.1129  0.6535 -0.8131
  131OSM     O314104   1.780   0.637   6.381 -0.2023  0.5547  0.5975
  131OSM    HO314105   1.705   0.599   6.334 -0.6676  1.8107  0.2748
  131OSM    C4S14106   1.778   0.829   6.534  0.1044 -0.6433 -0.4733
  131OSM    H4S14107   1.834   0.923   6.533  0.4827 -0.8674 -0.4022
  131OSM    C5S14108   1.748   0.762   6.645 -0.2772 -0.5415 -0.4567
  131OSM    H5S14109   1.724   0.655   6.643  1.0739 -0.8550 -0.8371
  131OSM    C6S14110   1.775   0.822   6.776  0.0756 -0.6503 -0.0191
  131OSM    H6S14111   1.812   0.926   6.785 -2.7113  0.3530  1.0591
  131OSM    H6T14112   1.851   0.758   6.826  1.9976  0.1270 -1.8079
  131OSM    C7S14113   1.653   0.827   6.868  0.6395  0.0942  0.0267
  131OSM    H7S14114   1.609   0.728   6.891  1.4697  0.0914  1.7442
  131OSM    H7T14115   1.573   0.888   6.821 -2.6828 -1.9934  2.5492
  131OSM    C8S14116   1.677   0.892   7.007  0.4174 -0.3788  0.7934
  131OSM    H8S14117   1.690   1.002   6.998  2.7520 -0.7161 -1.1350
  131OSM    H8T14118   1.778   0.863   7.044  0.1699  1.2354  2.8836
  131OSM    C9S14119   1.566   0.847   7.108  0.1503  0.1031  0.8082
  131OSM    H9S14120   1.554   0.737   7.102  0.7628  0.0915 -0.6710
  131OSM    H9T14121   1.470   0.886   7.067  1.3658  0.4929 -1.8952
  131OSM   C10S14122   1.597   0.887   7.253 -0.1666  0.1706  0.1648
  131OSM   H10S14123   1.689   0.838   7.292  0.1091  1.5710  1.3367
  131OSM   H10T14124   1.525   0.839   7.322 -1.1962  1.0888 -0.2510
  131OSM   C11S14125   1.580   1.038   7.273  0.4377 -0.6868 -0.4779
  131OSM   H11S14126   1.484   1.067   7.227 -0.0590 -0.5299  0.6216
  131OSM   H11T14127   1.664   1.090   7.223 -0.4575  0.9493 -0.3386
  131OSM   C12S14128   1.585   1.083   7.414  0.2887  0.1725  0.0648
  131OSM   H12S14129   1.492   1.066   7.472  0.6619  0.9509  0.9057
  131OSM   H12T14130   1.607   1.191   7.406 -1.9082  0.5380 -1.8887
  131OSM   C13S14131   1.679   1.003   7.501 -0.1933  0.0233 -0.6875
  131OSM   H13S14132   1.765   0.963   7.443  1.2674 -1.0208  1.9927
  131OSM   H13T14133   1.636   0.906   7.534  0.6789 -0.5065 -1.0845
  131OSM   C14S14134   1.747   1.083   7.612  0.2672 -1.0544 -0.8849
  131OSM   H14S14135   1.668   1.128   7.675  0.3210  1.4320 -2.4911
  131OSM   H14T14136   1.801   1.173   7.575  0.7460  0.4223  2.9598
  131OSM   C15S14137   1.851   0.992   7.674 -0.4630  0.3510 -0.1194
  131OSM   H15S14138   1.922   0.952   7.598 -0.4615 -2.5432  1.2593
  131OSM   H15T14139   1.808   0.903   7.724 -1.0416  1.0744  0.7108
  131OSM   C16S14140   1.931   1.072   7.787  0.2089 -0.4495  0.0129
  131OSM   H16S14141   1.944   1.175   7.745 -2.0685  0.1341  0.6053
  131OSM   H16T14142   2.035   1.034   7.781  0.1299 -0.4923 -1.7618
  131OSM   C17S14143   1.870   1.065   7.926 -0.5333  0.5100 -0.0550
  131OSM   H17S14144   1.868   0.960   7.963  2.4064  0.9330  1.6731
  131OSM   H17T14145   1.767   1.104   7.921 -1.2962 -1.4360 -0.4852
  131OSM   C18S14146   1.965   1.134   8.024 -0.2154  0.2408  1.1680
  131OSM   H18S14147   2.048   1.063   8.045  0.0102  0.3398  0.6337
  131OSM   H18T14148   1.907   1.146   8.118 -2.4073 -2.1828  0.2565
  131OSM   H18U14149   2.005   1.229   7.982 -0.9143 -0.0453 -0.2272
  131OSM    C1F14150   1.522   1.031   6.296 -0.3177 -0.6203  0.3769
  131OSM     OF14151   1.414   0.985   6.279  0.1426  0.1420  0.1533
  131OSM    C2F14152   1.546   1.179   6.298  0.1818  0.6762 -0.5417
  131OSM    H2F14153   1.451   1.225   6.334 -0.1685 -0.3484 -0.0926
  131OSM    H2G14154   1.581   1.214   6.199  4.8910 -2.1322 -0.1582
  131OSM    C3F14155   1.645   1.220   6.412  0.4946  0.2929  0.5535
  131OSM    H3F14156   1.647   1.331   6.418 -3.0606  0.6911 -1.9813
  131OSM    H3G14157   1.746   1.175   6.407  0.7158  0.8224  0.2961
  131OSM    C4F14158   1.587   1.190   6.549 -0.3554  0.1413 -0.2809
  131OSM    H4F14159   1.560   1.084   6.569  0.7978 -0.4319 -1.6073
  131OSM    H4G14160   1.495   1.249   6.564  0.0139  0.2865  1.7612
  131OSM    C5F14161   1.689   1.239   6.650 -0.2339  0.0433  0.0398
  131OSM    H5F14162   1.705   1.348   6.639 -1.4918  0.3009  0.5371
  131OSM    H5G14163   1.788   1.194   6.628 -1.1424 -1.8063 -0.5099
  131OSM    C6F14164   1.658   1.220   6.797  0.2130  0.0610 -0.0509
  131OSM    H6F14165   1.732   1.276   6.857 -2.0548  2.8367  0.3088
  131OSM    H6G14166   1.670   1.113   6.827  2.7933  0.5770  0.9801
  131OSM    C7F14167   1.530   1.281   6.849 -0.5853  0.0300  0.3389
  131OSM    H7F14168   1.450   1.247   6.780  0.1430  0.4220 -0.7283
  131OSM    H7G14169   1.545   1.391   6.844 -0.0042 -0.0442  0.3661
  131OSM    C8F14170   1.477   1.233   6.991  1.0495 -0.4845 -0.9935
  131OSM    H8F14171   1.490   1.123   6.985  0.1834 -0.5767 -1.4134
  131OSM    H8G14172   1.369   1.258   6.999  0.5525 -2.9966  1.8567
  131OSM    C9F14173   1.546   1.304   7.110  0.1415  0.0572 -0.4062
  131OSM    H9F14174   1.656   1.305   7.114  0.1680  1.1688 -0.8822
  131OSM   C10F14175   1.481   1.368   7.213 -0.0466 -0.3786 -0.4744
  131OSM   H10F14176   1.546   1.403   7.295  0.4980 -1.4848 -0.4038
  131OSM   C11F14177   1.332   1.385   7.236 -0.5385 -0.4227 -0.3725
  131OSM   H11F14178   1.263   1.333   7.166 -2.3510 -1.2046  1.8691
  131OSM   H11G14179   1.314   1.494   7.219 -2.0589 -0.7728 -1.1622
  131OSM   C12F14180   1.295   1.342   7.383  0.7027  0.3002 -0.2705
  131OSM   H12F14181   1.329   1.237   7.392  0.9368  0.4953  1.5627
  131OSM   H12G14182   1.183   1.339   7.384  0.6978 -0.1850  1.3733
  131OSM   C13F14183   1.335   1.422   7.503  0.8396  0.2044  0.6042
  131OSM   H13F14184   1.252   1.418   7.578  3.5917  2.5821  4.1525
  131OSM   H13G14185   1.343   1.531   7.481  0.1971 -0.3279 -2.8103
  131OSM   C14F14186   1.468   1.387   7.561  0.3386 -0.1646 -1.1971
  131OSM   H14F14187   1.550   1.438   7.506  1.2991  1.7310  1.7485
  131OSM   H14G14188   1.483   1.277   7.558  0.6532 -0.0923 -3.2241
  131OSM   C15F14189   1.473   1.426   7.714  0.4690 -0.7622  0.4056
  131OSM   H15F14190   1.388   1.376   7.765 -1.1382 -0.2605 -1.6375
  131OSM   H15G14191   1.452   1.534   7.721 -1.8891 -1.0368 -1.2556
  131OSM   C16F14192   1.604   1.401   7.792  0.2775  0.6067 -0.0187
  131OSM   H16F14193   1.684   1.454   7.736 -1.1295  0.9926 -1.7457
  131OSM   H16G14194   1.628   1.293   7.790  0.0548  0.5575 -1.9148
  131OSM   C17F14195   1.600   1.444   7.942  0.5479 -0.3558 -0.0485
  131OSM   H17F14196   1.563   1.549   7.955 -1.2900 -1.1253  1.5672
  131OSM   H17G14197   1.709   1.442   7.959  0.5627  2.5672  0.8692
  131OSM   C18F14198   1.510   1.363   8.038  0.0005 -0.2083 -0.5740
  131OSM   H18F14199   1.488   1.264   7.992 -1.9512  0.9471 -2.3364
  131OSM   H18G14200   1.415   1.421   8.038  0.7311  1.0277 -1.4043
  131OSM   H18H14201   1.547   1.358   8.143 -0.4712 -0.8953 -0.4262
  132OSM      N14202   6.558   4.016   6.326 -0.2954 -0.2041  0.0053
  132OSM    C1514203   6.531   4.138   6.243  0.0453 -0.0138  0.2173
  132OSM   H15A14204   6.601   4.217   6.266  1.1518 -1.1606  0.9540
  132OSM   H15B14205   6.434   4.184   6.253 -0.7869 -1.4772 -0.8628
  132OSM   H15C14206   6.550   4.113   6.140  1.1503  2.0150 -0.1355
  132OSM    C1414207   6.671   3.960   6.252  0.0578  0.5859  0.7412
  132OSM   H14A14208   6.699   3.862   6.289  2.1527  0.4884 -0.8606
  132OSM   H14B14209   6.761   4.019   6.259 -0.6557  1.5550  2.0979
  132OSM   H14C14210   6.657   3.962   6.145 -0.0718  3.5472  0.7317
  132OSM    C1314211   6.613   4.056   6.458 -0.2713  0.3248 -0.1234
  132OSM   H13A14212   6.629   3.967   6.518 -3.8158  0.5705  1.4455
  132OSM   H13B14213   6.544   4.108   6.523  1.5286  0.3576  1.8966
  132OSM   H13C14214   6.710   4.101   6.445  0.3068 -0.6505  0.5948
  132OSM    C1214215   6.440   3.922   6.343 -0.0706  0.2893  0.1262
  132OSM   H12A14216   6.473   3.821   6.363  1.7265  0.7733 -0.2659
  132OSM   H12B14217   6.398   3.911   6.244 -0.0831 -1.3785  0.2783
  132OSM    C1114218   6.338   3.940   6.454  0.2901 -0.0726  0.3428
  132OSM   H11A14219   6.385   3.949   6.554  0.9519 -0.6152  0.0870
  132OSM   H11B14220   6.274   3.849   6.449 -0.7954  0.6792  0.2683
  132OSM      P14221   6.128   4.074   6.366  0.2384  0.1409 -0.1326
  132OSM    O1314222   6.148   4.175   6.257 -0.3454  0.1451  0.3748
  132OSM    O1414223   6.089   3.940   6.323 -0.5620  0.8053 -0.5110
  132OSM    O1114224   6.020   4.131   6.468 -0.5634  0.0626 -0.2253
  132OSM    O1214225   6.267   4.061   6.435  0.5084  0.4870 -0.2324
  132OSM    C1S14226   6.042   4.112   6.610 -0.4843 -0.3954 -0.7665
  132OSM    H1S14227   6.127   4.179   6.636  0.2469 -1.0787 -1.3629
  132OSM    H1T14228   6.078   4.010   6.633 -1.1511 -0.4939 -0.1365
  132OSM     NF14229   5.960   4.138   6.845 -0.2422 -0.0288  0.2989
  132OSM    HNF14230   5.919   4.071   6.906 -2.4356 -0.3901 -1.4294
  132OSM    C2S14231   5.919   4.143   6.707 -0.4927  0.2304 -0.6873
  132OSM    H2S14232   5.901   4.252   6.692 -0.1346  0.5780  1.1728
  132OSM    C3S14233   5.793   4.055   6.675 -0.3321  0.1707  0.1376
  132OSM    H3S14234   5.829   3.950   6.679  3.4474  1.2648 -0.8306
  132OSM     O314235   5.747   4.079   6.541 -0.2532  0.0255 -0.3571
  132OSM    HO314236   5.804   4.143   6.499 -0.9830  1.5721  0.8822
  132OSM    C4S14237   5.683   4.076   6.772  0.4889 -0.4787  0.2361
  132OSM    H4S14238   5.662   4.179   6.802  0.3977 -0.9181  1.7458
  132OSM    C5S14239   5.588   3.981   6.810  0.6651 -0.4189 -0.0489
  132OSM    H5S14240   5.597   3.883   6.763  1.1663  0.3378 -1.5888
  132OSM    C6S14241   5.478   3.997   6.910  0.4931 -0.0790 -0.2857
  132OSM    H6S14242   5.474   3.910   6.978 -1.6252 -0.8132 -1.2781
  132OSM    H6T14243   5.383   3.995   6.853 -0.5731 -0.1117  1.4161
  132OSM    C7S14244   5.463   4.126   6.999 -0.3469  0.1833  0.1777
  132OSM    H7S14245   5.436   4.214   6.938  1.2209  0.2808 -0.4157
  132OSM    H7T14246   5.563   4.146   7.042  0.7727 -0.9647 -1.7336
  132OSM    C8S14247   5.362   4.110   7.116 -0.1114  0.2187 -0.1998
  132OSM    H8S14248   5.406   4.036   7.187 -0.6281  0.2928  0.2030
  132OSM    H8T14249   5.266   4.068   7.078 -1.1115  0.4148  1.9802
  132OSM    C9S14250   5.330   4.242   7.203  0.4765 -0.4128 -0.3731
  132OSM    H9S14251   5.296   4.323   7.135 -1.3688 -2.7205 -2.4240
  132OSM    H9T14252   5.430   4.280   7.232 -0.0683  0.2275  0.6891
  132OSM   C10S14253   5.242   4.213   7.326  0.7291  0.2889 -0.8693
  132OSM   H10S14254   5.272   4.110   7.357  0.4639 -0.2453 -2.2985
  132OSM   H10T14255   5.135   4.200   7.298  1.0458 -1.5160 -1.3873
  132OSM   C11S14256   5.255   4.317   7.437 -0.1085 -0.1905 -0.0778
  132OSM   H11S14257   5.222   4.418   7.407  1.5482  0.7860  1.1686
  132OSM   H11T14258   5.361   4.335   7.465  0.7405 -1.2041 -2.4287
  132OSM   C12S14259   5.174   4.282   7.567 -0.0757 -0.2203  0.0766
  132OSM   H12S14260   5.212   4.194   7.622  1.1633  0.3742  0.1959
  132OSM   H12T14261   5.067   4.264   7.543 -0.1249 -1.3602  1.0828
  132OSM   C13S14262   5.181   4.395   7.673 -0.1121  0.0588  0.0633
  132OSM   H13S14263   5.117   4.479   7.638  1.1463  0.6119 -0.9511
  132OSM   H13T14264   5.288   4.420   7.682  0.4267 -2.1273  0.2595
  132OSM   C14S14265   5.139   4.352   7.818  0.4943 -0.0695  0.0130
  132OSM   H14S14266   5.213   4.278   7.854 -0.3568 -1.0049 -0.1114
  132OSM   H14T14267   5.046   4.294   7.799 -1.5918  1.9495  3.1385
  132OSM   C15S14268   5.115   4.456   7.923 -0.5201  0.2030  0.4417
  132OSM   H15S14269   5.043   4.524   7.873 -1.6145 -2.8996 -2.6298
  132OSM   H15T14270   5.210   4.512   7.942 -0.5637  0.5564 -0.3431
  132OSM   C16S14271   5.063   4.394   8.052 -0.3256  0.5011 -0.0313
  132OSM   H16S14272   5.132   4.313   8.084  0.0005  0.6199 -0.4252
  132OSM   H16T14273   4.963   4.349   8.031 -1.2638  1.8661  1.3153
  132OSM   C17S14274   5.045   4.496   8.169  0.0159  0.0311 -0.1903
  132OSM   H17S14275   5.148   4.522   8.201 -0.0180  1.0074 -0.8292
  132OSM   H17T14276   4.997   4.444   8.254  2.0552 -0.3610  0.7888
  132OSM   C18S14277   4.961   4.626   8.149  0.0201  0.5163 -0.5255
  132OSM   H18S14278   4.857   4.601   8.180  0.6071  1.3188  2.3681
  132OSM   H18T14279   4.971   4.672   8.048  2.3386  1.8830  0.2514
  132OSM   H18U14280   4.990   4.701   8.225  0.4364 -1.0324  0.9184
  132OSM    C1F14281   6.039   4.235   6.898 -0.2082 -0.0051  0.3670
  132OSM     OF14282   6.085   4.323   6.831  1.2802 -0.4786  0.1214
  132OSM    C2F14283   6.065   4.216   7.040 -0.4371  0.8947 -0.0415
  132OSM    H2F14284   6.122   4.121   7.048 -3.1427 -0.7828  0.5345
  132OSM    H2G14285   5.970   4.215   7.096 -1.5309 -0.1751 -1.8215
  132OSM    C3F14286   6.166   4.324   7.093  0.1355  0.0819  0.1977
  132OSM    H3F14287   6.118   4.418   7.057  0.7104 -0.4001 -1.9718
  132OSM    H3G14288   6.265   4.316   7.044 -0.1780  0.8453 -0.5956
  132OSM    C4F14289   6.191   4.317   7.250 -0.0199 -0.3672  1.1664
  132OSM    H4F14290   6.249   4.406   7.283 -2.1993  0.4973  2.9600
  132OSM    H4G14291   6.263   4.236   7.274  2.6282  2.0497  1.9075
  132OSM    C5F14292   6.060   4.283   7.330 -0.0774  0.0561  0.2366
  132OSM    H5F14293   6.030   4.176   7.322 -3.4751  0.9316 -0.6118
  132OSM    H5G14294   5.978   4.338   7.279 -1.6000 -1.4175  0.9874
  132OSM    C6F14295   6.064   4.337   7.468 -0.2475  0.6470 -0.4239
  132OSM    H6F14296   6.056   4.448   7.466  1.7327  0.7969 -1.7116
  132OSM    H6G14297   6.157   4.303   7.517  0.1355 -1.0192 -2.1979
  132OSM    C7F14298   5.967   4.268   7.568 -0.1054 -0.0697 -0.2043
  132OSM    H7F14299   5.961   4.159   7.547  0.3847  0.4707 -3.6324
  132OSM    H7G14300   5.863   4.296   7.542 -0.3297 -0.3554  0.3693
  132OSM    C8F14301   6.013   4.304   7.711 -0.1190 -0.8811  0.0549
  132OSM    H8F14302   6.120   4.280   7.732 -0.0129  0.0480  0.6574
  132OSM    H8G14303   5.960   4.230   7.774 -1.7613 -0.3315 -0.6298
  132OSM    C9F14304   5.971   4.445   7.752 -0.0711 -0.3451  0.4576
  132OSM    H9F14305   5.952   4.510   7.665  1.8617  1.3226  1.2078
  132OSM   C10F14306   5.929   4.477   7.879  0.7029  0.0200 -0.6632
  132OSM   H10F14307   5.894   4.579   7.898  0.8089 -0.3153  1.5709
  132OSM   C11F14308   5.942   4.382   7.997 -0.1306  0.3729  0.5381
  132OSM   H11F14309   6.045   4.341   8.003 -0.1321 -0.0728 -1.5276
  132OSM   H11G14310   5.877   4.293   7.979 -1.1517  1.5619 -2.3059
  132OSM   C12F14311   5.919   4.454   8.126  0.6027 -0.1979 -0.5568
  132OSM   H12F14312   5.902   4.373   8.200  0.5078 -0.1827 -0.5616
  132OSM   H12G14313   5.839   4.531   8.126  1.3432  0.6397  1.3664
  132OSM   C13F14314   6.050   4.532   8.178 -0.4607  0.5845  0.7147
  132OSM   H13F14315   6.077   4.613   8.108 -0.7902 -1.4167 -1.8660
  132OSM   H13G14316   6.131   4.456   8.168  0.4751  1.7582 -1.1416
  132OSM   C14F14317   6.041   4.587   8.325  0.0938  0.0036  0.1243
  132OSM   H14F14318   5.996   4.504   8.384 -1.4827  1.9564  1.8253
  132OSM   H14G14319   5.971   4.673   8.329 -0.1178 -0.0356 -1.7745
  132OSM   C15F14320   6.174   4.630   8.387  0.1195  0.7264 -0.4187
  132OSM   H15F14321   6.226   4.697   8.315  1.2317 -0.5716 -0.8610
  132OSM   H15G14322   6.243   4.543   8.401 -0.3832  0.5448  1.2014
  132OSM   C16F14323   6.169   4.706   8.520 -1.2644 -0.3426 -0.1219
  132OSM   H16F14324   6.084   4.664   8.578 -1.7838  1.8806  0.8420
  132OSM   H16G14325   6.140   4.812   8.507 -0.8635 -0.1014  0.8789
  132OSM   C17F14326   6.302   4.689   8.599  0.3900 -0.6175 -0.2993
  132OSM   H17F14327   6.391   4.708   8.535  0.7381 -2.6623 -0.5000
  132OSM   H17G14328   6.322   4.586   8.636 -0.1938 -0.8355 -0.5833
  132OSM   C18F14329   6.304   4.783   8.721 -0.3498 -0.0536 -0.5197
  132OSM   H18F14330   6.228   4.767   8.800  1.2041  2.5305  1.6379
  132OSM   H18G14331   6.307   4.889   8.687  0.0009 -0.2720 -1.1921
  132OSM   H18H14332   6.405   4.774   8.766  0.6679  1.4208 -2.3665
  133OSM      N14333   0.970   3.537   6.098  0.9530  0.5097  1.0049
  133OSM    C1514334   0.973   3.523   5.949  0.0709  0.3651 -0.2585
  133OSM   H15A14335   1.065   3.492   5.902 -1.0424 -0.5038 -1.9441
  133OSM   H15B14336   0.934   3.611   5.900 -0.6359  0.5720  0.6488
  133OSM   H15C14337   0.892   3.456   5.923 -1.0166  1.4813  0.1372
  133OSM    C1414338   0.980   3.401   6.150 -0.1804 -0.3481 -0.1834
  133OSM   H14A14339   1.067   3.347   6.115 -0.4335 -0.6148 -0.3995
  133OSM   H14B14340   0.886   3.350   6.136 -1.5692  0.9530  3.2622
  133OSM   H14C14341   0.986   3.415   6.257 -0.2077  0.4262 -0.2777
  133OSM    C1314342   1.093   3.611   6.138  0.0053 -0.0703 -0.5786
  133OSM   H13A14343   1.094   3.635   6.243  1.4038 -0.8001 -0.4071
  133OSM   H13B14344   1.101   3.705   6.085 -0.1661  0.4055  0.2265
  133OSM   H13C14345   1.185   3.558   6.124 -1.0217 -1.6641 -1.6152
  133OSM    C1214346   0.845   3.612   6.148 -0.3053 -0.3052 -0.7944
  133OSM   H12A14347   0.754   3.569   6.111 -0.7792  0.3382 -0.3961
  133OSM   H12B14348   0.845   3.714   6.110 -3.2965  0.2964  0.5958
  133OSM    C1114349   0.821   3.626   6.300  0.2193  0.3956 -0.7300
  133OSM   H11A14350   0.801   3.524   6.338 -1.0884 -0.0620 -2.5101
  133OSM   H11B14351   0.721   3.669   6.324  0.5111  0.4847  0.3484
  133OSM      P14352   0.928   3.817   6.442  0.5598 -0.3846 -0.0714
  133OSM    O1314353   1.032   3.819   6.546  0.5114  0.3462 -0.6015
  133OSM    O1414354   0.919   3.936   6.355  0.5074 -0.1843 -0.0441
  133OSM    O1114355   0.778   3.814   6.514 -0.3176 -0.3508  0.1546
  133OSM    O1214356   0.936   3.685   6.357 -0.4147  0.3537 -0.1154
  133OSM    C1S14357   0.752   3.702   6.593  0.0838  0.3043  0.0044
  133OSM    H1S14358   0.817   3.615   6.570 -1.3502 -0.8649  0.2543
  133OSM    H1T14359   0.650   3.669   6.564 -0.0347 -0.5326  1.2980
  133OSM     NF14360   0.720   3.610   6.820  0.6141 -0.1133  0.3732
  133OSM    HNF14361   0.635   3.626   6.869 -0.3327  0.0237 -1.2339
  133OSM    C2S14362   0.753   3.723   6.748 -0.3290 -1.0071 -0.6036
  133OSM    H2S14363   0.858   3.742   6.779  0.9242 -1.9554 -3.8709
  133OSM    C3S14364   0.667   3.844   6.801 -0.2342  0.4103  0.2809
  133OSM    H3S14365   0.560   3.816   6.793 -0.4757  1.1986  0.7003
  133OSM     O314366   0.690   3.962   6.722  0.1518  0.4267 -0.4298
  133OSM    HO314367   0.732   3.927   6.644  1.2117  0.5025  0.0887
  133OSM    C4S14368   0.693   3.865   6.950 -0.5178 -0.4951 -0.8883
  133OSM    H4S14369   0.795   3.899   6.972 -0.2291 -0.6955 -1.8470
  133OSM    C5S14370   0.599   3.846   7.050 -0.4412 -0.1476  0.2263
  133OSM    H5S14371   0.495   3.813   7.038 -0.5749 -0.1192  1.2389
  133OSM    C6S14372   0.623   3.879   7.196  0.3342 -0.3785  0.0877
  133OSM    H6S14373   0.538   3.936   7.239  0.3926  0.4068 -0.8071
  133OSM    H6T14374   0.715   3.941   7.208 -0.7166  0.8051  2.7758
  133OSM    C7S14375   0.655   3.744   7.275 -0.0187  0.0407 -0.1233
  133OSM    H7S14376   0.741   3.689   7.230 -0.0038 -1.0416  1.1824
  133OSM    H7T14377   0.569   3.674   7.265  0.5114 -0.5075 -1.0645
  133OSM    C8S14378   0.670   3.773   7.423 -0.0261  0.2548 -0.1525
  133OSM    H8S14379   0.581   3.831   7.455  1.0569  1.1148  1.4335
  133OSM    H8T14380   0.763   3.834   7.435  0.1794 -0.4157  1.9429
  133OSM    C9S14381   0.676   3.644   7.505 -0.4092  0.5219  0.1790
  133OSM    H9S14382   0.770   3.589   7.483 -0.7630 -0.0447  0.0544
  133OSM    H9T14383   0.585   3.581   7.498 -1.3673  2.0758 -2.7340
  133OSM   C10S14384   0.679   3.680   7.656  0.2111 -0.1284 -0.0106
  133OSM   H10S14385   0.590   3.742   7.677  0.4227  0.1381  0.1087
  133OSM   H10T14386   0.762   3.750   7.680 -0.7370  0.1910  2.6837
  133OSM   C11S14387   0.709   3.562   7.748  0.4760 -0.5482  0.2274
  133OSM   H11S14388   0.815   3.531   7.734  1.5035  2.2417  1.1116
  133OSM   H11T14389   0.639   3.478   7.731  0.9406 -0.7300 -0.8715
  133OSM   C12S14390   0.683   3.614   7.895  0.3045  0.3836  0.4322
  133OSM   H12S14391   0.578   3.651   7.901  0.5928  1.1805  0.7353
  133OSM   H12T14392   0.748   3.704   7.897  3.0823 -1.4582 -1.1049
  133OSM   C13S14393   0.727   3.514   7.998 -0.0323 -0.8702  0.1631
  133OSM   H13S14394   0.837   3.509   7.986  0.0848  0.8480  0.2357
  133OSM   H13T14395   0.684   3.413   7.982 -0.9335 -0.6324  0.9948
  133OSM   C14S14396   0.678   3.571   8.132  0.0686 -0.1969  0.4177
  133OSM   H14S14397   0.569   3.567   8.152 -0.0654 -0.0877 -0.2673
  133OSM   H14T14398   0.711   3.676   8.141 -0.3339 -0.2726  4.0131
  133OSM   C15S14399   0.748   3.504   8.251  0.5632  0.2714 -0.3102
  133OSM   H15S14400   0.852   3.543   8.256  0.7199  0.1124 -2.0073
  133OSM   H15T14401   0.763   3.397   8.225  0.7190  0.2528 -0.1480
  133OSM   C16S14402   0.695   3.522   8.394  0.3419 -0.6883 -0.0885
  133OSM   H16S14403   0.764   3.460   8.456 -0.3406 -1.2161  0.1513
  133OSM   H16T14404   0.595   3.473   8.394  0.7153 -1.5091 -1.1446
  133OSM   C17S14405   0.683   3.676   8.437  1.0903 -0.1315 -0.0921
  133OSM   H17S14406   0.595   3.720   8.386 -0.4523 -3.6843 -0.7725
  133OSM   H17T14407   0.762   3.741   8.393 -0.6474  1.1879 -1.4225
  133OSM   C18S14408   0.671   3.711   8.587  0.5165  0.3574  0.0074
  133OSM   H18S14409   0.771   3.689   8.630  0.3955 -1.0047 -0.3484
  133OSM   H18T14410   0.591   3.645   8.628  0.7077 -1.2705 -2.0457
  133OSM   H18U14411   0.646   3.818   8.600 -0.5874  0.5185 -2.8910
  133OSM    C1F14412   0.792   3.496   6.835 -0.4862 -1.0304 -0.1689
  133OSM     OF14413   0.909   3.486   6.790  1.0828  0.7977  0.6021
  133OSM    C2F14414   0.735   3.390   6.924  0.8636 -0.3309  0.0313
  133OSM    H2F14415   0.809   3.308   6.936  0.9321 -0.1048  1.3010
  133OSM    H2G14416   0.646   3.352   6.869  1.3028 -2.2793  0.5740
  133OSM    C3F14417   0.705   3.433   7.065 -0.5514  0.0740  0.1736
  133OSM    H3F14418   0.670   3.539   7.071  0.2861  0.3086  1.4286
  133OSM    H3G14419   0.805   3.426   7.113  0.5918 -1.7889 -2.2979
  133OSM    C4F14420   0.596   3.339   7.130  0.0735 -0.0796  0.6416
  133OSM    H4F14421   0.624   3.234   7.107  0.2684 -0.2951  1.8355
  133OSM    H4G14422   0.506   3.367   7.071 -0.4563  2.6305  2.5562
  133OSM    C5F14423   0.596   3.373   7.275  0.6919 -0.3961 -0.3589
  133OSM    H5F14424   0.547   3.472   7.288  0.7800 -0.2547 -1.0352
  133OSM    H5G14425   0.691   3.388   7.331 -0.5633  4.8459  0.9128
  133OSM    C6F14426   0.499   3.273   7.348 -0.0542 -0.2767  0.0322
  133OSM    H6F14427   0.552   3.175   7.351  1.7359  0.6404 -0.0097
  133OSM    H6G14428   0.407   3.256   7.288  1.0624  1.2445 -2.2677
  133OSM    C7F14429   0.454   3.311   7.492  0.9388  0.0192 -0.5076
  133OSM    H7F14430   0.398   3.407   7.488 -0.1552 -0.4864  1.5367
  133OSM    H7G14431   0.552   3.336   7.537 -0.4714  1.8109  1.7859
  133OSM    C8F14432   0.386   3.204   7.579  0.7193 -0.5224 -0.3718
  133OSM    H8F14433   0.459   3.125   7.606 -0.4887 -1.8983 -0.9566
  133OSM    H8G14434   0.303   3.160   7.519  2.1714 -1.2676 -1.9482
  133OSM    C9F14435   0.329   3.272   7.706 -0.1419  0.5610 -0.1201
  133OSM    H9F14436   0.234   3.326   7.691 -0.9022 -1.0806 -1.4855
  133OSM   C10F14437   0.371   3.261   7.831 -0.4679 -1.1159 -0.3967
  133OSM   H10F14438   0.313   3.318   7.905  1.7919  2.9337 -1.3884
  133OSM   C11F14439   0.491   3.173   7.868  0.4965  0.5247 -0.2576
  133OSM   H11F14440   0.568   3.247   7.899  1.8514 -1.5369  1.6308
  133OSM   H11G14441   0.534   3.110   7.787 -0.1511 -0.1831 -0.0603
  133OSM   C12F14442   0.474   3.087   7.999 -0.2417 -0.5542 -0.0287
  133OSM   H12F14443   0.408   2.999   7.983 -1.6435  0.4453  0.0735
  133OSM   H12G14444   0.411   3.152   8.063 -1.4932 -0.8797 -0.9058
  133OSM   C13F14445   0.606   3.063   8.068 -0.1754 -0.1687 -0.5967
  133OSM   H13F14446   0.689   3.129   8.035  1.6193 -2.0891 -0.1605
  133OSM   H13G14447   0.645   2.964   8.036 -0.0702 -0.6684  0.9918
  133OSM   C14F14448   0.595   3.070   8.224 -0.0794 -0.5827  0.1236
  133OSM   H14F14449   0.609   3.172   8.266 -1.0563 -0.6805  0.7050
  133OSM   H14G14450   0.677   3.002   8.255  0.4032  0.5968  1.5789
  133OSM   C15F14451   0.452   3.025   8.279  0.1316 -0.0517 -0.6436
  133OSM   H15F14452   0.434   2.924   8.236  0.4746 -0.3929  0.0075
  133OSM   H15G14453   0.379   3.099   8.241 -0.3274 -0.8046 -1.2536
  133OSM   C16F14454   0.434   3.038   8.429 -0.7247 -0.0224 -0.4119
  133OSM   H16F14455   0.462   3.141   8.461 -0.5215 -0.5185  1.1075
  133OSM   H16G14456   0.508   2.982   8.492  1.0624  3.8311  1.2382
  133OSM   C17F14457   0.289   3.009   8.458  0.2592  1.2234 -0.3871
  133OSM   H17F14458   0.225   3.023   8.368  0.0600 -1.3044 -0.7067
  133OSM   H17G14459   0.246   3.081   8.531 -0.7687 -1.0168  1.3355
  133OSM   C18F14460   0.275   2.866   8.516  0.6457  0.7560 -0.2717
  133OSM   H18F14461   0.347   2.849   8.599  0.3287  1.3826  0.1371
  133OSM   H18G14462   0.299   2.779   8.452  1.8464  1.3685 -0.6829
  133OSM   H18H14463   0.172   2.847   8.554  0.8776  0.8555  0.4321
  134OSM      N14464   5.614   6.448   6.155 -0.0583 -0.8506  0.6228
  134OSM    C1514465   5.478   6.402   6.192 -0.5544 -0.2829  0.6051
  134OSM   H15A14466   5.436   6.473   6.261  1.1899  2.7537 -1.2000
  134OSM   H15B14467   5.487   6.299   6.222 -3.0678 -0.3389  1.3977
  134OSM   H15C14468   5.420   6.396   6.101  3.0683 -2.6279 -1.8269
  134OSM    C1414469   5.652   6.361   6.039 -0.3965  0.7104  0.5556
  134OSM   H14A14470   5.750   6.389   6.002  0.5977  0.6302  2.9259
  134OSM   H14B14471   5.584   6.350   5.956  0.5167 -1.7958  0.0134
  134OSM   H14C14472   5.659   6.259   6.076  1.1038  0.6205  0.1282
  134OSM    C1314473   5.603   6.594   6.107 -0.5352 -0.0576  0.1748
  134OSM   H13A14474   5.695   6.616   6.056 -0.0098 -0.1952  1.0394
  134OSM   H13B14475   5.592   6.651   6.198 -1.9935  0.3857 -0.2479
  134OSM   H13C14476   5.531   6.621   6.031 -1.0222 -0.5924  0.4320
  134OSM    C1214477   5.712   6.448   6.268 -0.5027  0.2242  1.0846
  134OSM   H12A14478   5.804   6.498   6.245  1.5265 -2.7379  2.1565
  134OSM   H12B14479   5.749   6.347   6.281 -0.3430 -0.0212 -0.9631
  134OSM    C1114480   5.663   6.505   6.400  0.1911 -0.5530  0.2887
  134OSM   H11A14481   5.733   6.479   6.483 -0.7068  0.6110  1.4603
  134OSM   H11B14482   5.569   6.453   6.428  0.6206 -1.1433  0.6678
  134OSM      P14483   5.572   6.741   6.494  0.1646  0.1707 -0.0562
  134OSM    O1314484   5.638   6.871   6.502  0.1457  0.5057 -0.1275
  134OSM    O1414485   5.436   6.732   6.442 -0.5058  0.4684 -0.7317
  134OSM    O1114486   5.571   6.673   6.635 -0.2060 -0.3964 -0.0152
  134OSM    O1214487   5.663   6.645   6.405  0.0384  0.0461  0.2858
  134OSM    C1S14488   5.695   6.644   6.702  0.4079 -0.4650 -0.1634
  134OSM    H1S14489   5.784   6.675   6.644 -0.6078  1.0850 -0.9569
  134OSM    H1T14490   5.697   6.534   6.712 -1.5157 -0.3772  2.0910
  134OSM     NF14491   5.834   6.716   6.895 -0.2102 -0.7885  0.0810
  134OSM    HNF14492   5.851   6.644   6.963 -0.9579 -1.0098  0.0406
  134OSM    C2S14493   5.701   6.717   6.838 -0.4195  0.2143  0.1536
  134OSM    H2S14494   5.663   6.821   6.827  0.1491  0.6526  2.0443
  134OSM    C3S14495   5.600   6.648   6.927 -0.0887  0.1721 -0.0666
  134OSM    H3S14496   5.628   6.541   6.936  0.5541  0.4989  2.4802
  134OSM     O314497   5.464   6.654   6.883  0.0405 -0.3791 -0.9240
  134OSM    HO314498   5.468   6.703   6.800  0.5469  0.2231 -0.5504
  134OSM    C4S14499   5.596   6.707   7.066  0.5268 -0.0685 -0.1240
  134OSM    H4S14500   5.554   6.808   7.075 -0.2595 -0.4896  1.1412
  134OSM    C5S14501   5.657   6.658   7.172  0.3777  0.0099  0.6250
  134OSM    H5S14502   5.705   6.559   7.163 -0.1341 -0.3136  1.3375
  134OSM    C6S14503   5.651   6.718   7.311  0.0318  0.0947  0.7091
  134OSM    H6S14504   5.589   6.655   7.379  1.4713 -1.2113  0.8747
  134OSM    H6T14505   5.610   6.821   7.306 -2.7209 -0.9740 -0.6883
  134OSM    C7S14506   5.791   6.737   7.354 -0.3457 -0.2486  0.1434
  134OSM    H7S14507   5.867   6.777   7.284 -0.7196  0.0009 -0.1238
  134OSM    H7T14508   5.842   6.641   7.374 -1.8091 -1.2366 -0.7217
  134OSM    C8S14509   5.806   6.800   7.498 -0.3699 -0.1635  0.0683
  134OSM    H8S14510   5.764   6.902   7.481 -1.1847 -0.3885  0.6759
  134OSM    H8T14511   5.912   6.806   7.532 -0.6301 -1.0376  1.0898
  134OSM    C9S14512   5.725   6.732   7.603  0.0714  0.3266 -0.1685
  134OSM    H9S14513   5.778   6.635   7.615  1.7068  1.0643 -1.2559
  134OSM    H9T14514   5.621   6.717   7.566  0.3974 -0.8941 -0.6332
  134OSM   C10S14515   5.744   6.823   7.726  0.4258 -0.1966 -0.0746
  134OSM   H10S14516   5.683   6.914   7.713  0.9523  0.0943 -0.5464
  134OSM   H10T14517   5.847   6.863   7.738  0.5722 -0.9461  1.4270
  134OSM   C11S14518   5.708   6.753   7.857 -0.3944 -0.1628 -0.2125
  134OSM   H11S14519   5.744   6.648   7.860 -3.0492 -1.1460  0.5563
  134OSM   H11T14520   5.599   6.745   7.834 -0.4912  0.1277  0.1425
  134OSM   C12S14521   5.733   6.847   7.978  0.3625  0.4271  0.1103
  134OSM   H12S14522   5.707   6.953   7.956  3.4572  0.5482 -4.5095
  134OSM   H12T14523   5.842   6.857   7.995  0.2018  2.1902  0.3188
  134OSM   C13S14524   5.668   6.795   8.109  0.0370 -0.0990  0.1878
  134OSM   H13S14525   5.675   6.684   8.098 -2.1092 -0.1442 -1.6759
  134OSM   H13T14526   5.557   6.792   8.100  0.0955  0.5768 -1.0349
  134OSM   C14S14527   5.731   6.826   8.244 -0.7719 -0.3586  0.0496
  134OSM   H14S14528   5.719   6.932   8.273 -1.7369 -1.2426  3.3153
  134OSM   H14T14529   5.839   6.812   8.225 -0.6596 -0.5231  0.7760
  134OSM   C15S14530   5.677   6.735   8.350 -0.1627 -0.1404 -0.0952
  134OSM   H15S14531   5.706   6.632   8.321 -1.4427  0.1733 -2.7939
  134OSM   H15T14532   5.566   6.749   8.353 -0.3744 -1.6099  3.1691
  134OSM   C16S14533   5.730   6.760   8.493  0.2657 -0.4654  0.1249
  134OSM   H16S14534   5.692   6.858   8.528  1.1455  0.0821 -0.4023
  134OSM   H16T14535   5.840   6.753   8.506  0.2996 -0.2739 -0.0546
  134OSM   C17S14536   5.670   6.665   8.601 -0.1682 -0.1213 -0.9566
  134OSM   H17S14537   5.560   6.657   8.590 -0.4358  1.4729  0.1933
  134OSM   H17T14538   5.696   6.705   8.701 -1.3162  2.1660 -1.4997
  134OSM   C18S14539   5.727   6.525   8.589 -0.3481 -0.5499  0.4552
  134OSM   H18S14540   5.742   6.494   8.695 -0.5097 -2.8934 -0.1552
  134OSM   H18T14541   5.826   6.522   8.537  0.3821  1.5655  1.6103
  134OSM   H18U14542   5.649   6.463   8.540 -0.8546  0.9686 -0.7324
  134OSM    C1F14543   5.935   6.802   6.863 -0.0744  0.4449 -0.5815
  134OSM     OF14544   5.909   6.890   6.782 -0.0317 -0.4710 -0.1484
  134OSM    C2F14545   6.070   6.786   6.929 -0.2817 -0.3769 -0.7898
  134OSM    H2F14546   6.118   6.691   6.898  0.8832  1.0140 -3.5297
  134OSM    H2G14547   6.062   6.771   7.039 -2.8059 -0.9016 -0.9827
  134OSM    C3F14548   6.161   6.906   6.894  0.6724 -0.1565 -0.3518
  134OSM    H3F14549   6.118   7.002   6.928 -0.4405 -0.3907 -1.0505
  134OSM    H3G14550   6.166   6.896   6.783 -1.9253 -2.6699 -0.3723
  134OSM    C4F14551   6.295   6.909   6.960 -0.7455 -0.7688  0.0123
  134OSM    H4F14552   6.300   6.936   7.068  1.8022  0.3185 -0.3104
  134OSM    H4G14553   6.363   6.987   6.919  1.9744 -2.9738  0.0893
  134OSM    C5F14554   6.375   6.779   6.936 -0.0429 -0.3790 -0.2261
  134OSM    H5F14555   6.370   6.741   6.831 -0.0613 -0.0332 -0.3508
  134OSM    H5G14556   6.327   6.696   6.992 -2.0731  1.8074  1.4254
  134OSM    C6F14557   6.522   6.792   6.960 -0.6528 -0.0035  0.3071
  134OSM    H6F14558   6.545   6.815   7.066  1.9879  0.0237 -0.1802
  134OSM    H6G14559   6.558   6.884   6.908 -1.0415  0.6605  1.1899
  134OSM    C7F14560   6.613   6.680   6.908 -0.7703 -0.8758 -0.0165
  134OSM    H7F14561   6.690   6.719   6.838 -1.6354 -1.3985 -1.2847
  134OSM    H7G14562   6.562   6.605   6.844 -0.2200 -0.9031 -0.4349
  134OSM    C8F14563   6.688   6.603   7.015 -0.3084 -0.1408 -0.2212
  134OSM    H8F14564   6.739   6.674   7.084 -2.7265 -0.6702  2.2903
  134OSM    H8G14565   6.764   6.540   6.965 -2.0587 -2.0927 -0.5712
  134OSM    C9F14566   6.606   6.516   7.101 -0.2124  0.7260  0.4205
  134OSM    H9F14567   6.525   6.454   7.060 -0.0864 -0.1013  1.3621
  134OSM   C10F14568   6.628   6.511   7.236 -0.6084  0.5505  0.1359
  134OSM   H10F14569   6.554   6.453   7.293 -0.8857  0.0865 -0.6720
  134OSM   C11F14570   6.736   6.585   7.316 -0.4682  0.6015 -0.6242
  134OSM   H11F14571   6.822   6.609   7.250  1.1176 -1.8009  0.4409
  134OSM   H11G14572   6.785   6.510   7.382 -0.5038  0.9505 -0.1998
  134OSM   C12F14573   6.687   6.714   7.392 -0.3669  0.5348  0.3028
  134OSM   H12F14574   6.646   6.783   7.316  0.8898 -0.3917 -1.2661
  134OSM   H12G14575   6.778   6.759   7.437  0.5981 -0.2002 -0.8682
  134OSM   C13F14576   6.580   6.685   7.500  0.0967  1.2353 -0.8277
  134OSM   H13F14577   6.487   6.642   7.457  0.8817  0.6750 -2.0432
  134OSM   H13G14578   6.556   6.776   7.558 -0.8365  0.7239 -0.3960
  134OSM   C14F14579   6.632   6.588   7.607 -0.1297  0.7060 -0.3197
  134OSM   H14F14580   6.734   6.624   7.634 -0.2114 -0.0647  1.0918
  134OSM   H14G14581   6.656   6.486   7.571 -0.6966  0.6561 -0.5823
  134OSM   C15F14582   6.549   6.571   7.746 -0.0393 -0.1818 -0.2544
  134OSM   H15F14583   6.460   6.505   7.732 -1.1083  1.0279  0.6208
  134OSM   H15G14584   6.508   6.670   7.774  0.5961  0.7297 -2.3480
  134OSM   C16F14585   6.629   6.510   7.859  0.3756 -0.5257  0.5173
  134OSM   H16F14586   6.717   6.576   7.875  0.2159 -0.1766 -0.0231
  134OSM   H16G14587   6.673   6.414   7.825 -0.9595 -1.6504  1.7959
  134OSM   C17F14588   6.545   6.507   7.989  0.1258 -0.0234 -0.2517
  134OSM   H17F14589   6.440   6.475   7.969 -0.5485  1.5933  0.5231
  134OSM   H17G14590   6.538   6.608   8.034  0.4005  0.4602 -1.2679
  134OSM   C18F14591   6.602   6.398   8.082 -0.3670  0.2563  0.1086
  134OSM   H18F14592   6.706   6.420   8.115 -1.1113  0.2649  2.6178
  134OSM   H18G14593   6.603   6.302   8.026 -1.8286  0.8390 -0.9916
  134OSM   H18H14594   6.547   6.381   8.176 -0.2283  0.2589  0.1906
  135OSM      N14595   5.289   5.780   6.276 -0.1691 -0.4260 -0.4792
  135OSM    C1514596   5.143   5.795   6.236  0.7096 -0.4017  0.0436
  135OSM   H15A14597   5.077   5.714   6.263 -2.9622  2.4311  0.3476
  135OSM   H15B14598   5.135   5.794   6.128  0.8861  0.4193  0.0193
  135OSM   H15C14599   5.095   5.881   6.280  0.8790 -1.0183  1.4907
  135OSM    C1414600   5.281   5.719   6.416 -0.1320 -0.4755  0.0521
  135OSM   H14A14601   5.376   5.682   6.454 -0.4948 -1.3016  0.1708
  135OSM   H14B14602   5.211   5.637   6.413  0.3339 -1.1650  3.6573
  135OSM   H14C14603   5.241   5.791   6.485 -1.6571 -0.2625 -1.0157
  135OSM    C1314604   5.359   5.678   6.193  0.2878 -0.4649 -0.4853
  135OSM   H13A14605   5.377   5.718   6.095 -0.3169 -1.8246 -1.1817
  135OSM   H13B14606   5.297   5.589   6.190 -1.1779  0.5235 -1.0005
  135OSM   H13C14607   5.457   5.656   6.232  0.3514  1.1073  0.3195
  135OSM    C1214608   5.366   5.914   6.276 -0.1718  0.5581  0.2090
  135OSM   H12A14609   5.348   5.948   6.175  0.7852  0.0685 -0.1380
  135OSM   H12B14610   5.472   5.902   6.292 -0.6619 -1.5990  2.4240
  135OSM    C1114611   5.310   6.021   6.374  0.2513 -0.6393  0.1700
  135OSM   H11A14612   5.381   6.104   6.355  0.1669 -0.9255 -1.5895
  135OSM   H11B14613   5.305   5.992   6.481  0.6287  1.3787  0.7740
  135OSM      P14614   5.098   6.157   6.446 -0.4771 -0.6399 -0.0536
  135OSM    O1314615   4.978   6.213   6.386 -0.4973 -0.2028  0.7094
  135OSM    O1414616   5.081   6.090   6.576 -0.0730  0.4172  0.2469
  135OSM    O1114617   5.191   6.285   6.466 -0.1366  0.1296  0.6546
  135OSM    O1214618   5.179   6.062   6.342  0.3197  0.1619  0.0149
  135OSM    C1S14619   5.183   6.384   6.562  0.3277 -0.3398  0.4408
  135OSM    H1S14620   5.075   6.397   6.581  0.0525 -0.5854 -0.8397
  135OSM    H1T14621   5.214   6.480   6.515 -1.5050  0.2917  0.4336
  135OSM     NF14622   5.233   6.460   6.792 -0.0399  0.1209 -1.0427
  135OSM    HNF14623   5.308   6.522   6.816  1.1835 -0.7216 -2.5676
  135OSM    C2S14624   5.270   6.359   6.693  0.1170 -0.9874 -0.5262
  135OSM    H2S14625   5.247   6.260   6.738 -1.6508 -0.4560 -0.2030
  135OSM    C3S14626   5.419   6.352   6.672 -0.3468 -0.5325 -0.2080
  135OSM    H3S14627   5.448   6.456   6.647 -2.6529  0.5376  1.2162
  135OSM     O314628   5.459   6.258   6.571  0.2203  0.7648 -0.2258
  135OSM    HO314629   5.377   6.245   6.523  0.2092  3.5089 -1.1595
  135OSM    C4S14630   5.489   6.322   6.800 -0.0273 -0.0769 -0.9846
  135OSM    H4S14631   5.526   6.413   6.850  1.5571 -0.7397 -0.8791
  135OSM    C5S14632   5.496   6.198   6.857 -0.3085  0.5259  0.3565
  135OSM    H5S14633   5.465   6.105   6.807  0.8957 -0.9172  2.1665
  135OSM    C6S14634   5.563   6.167   6.986 -1.0911  0.3635 -0.7966
  135OSM    H6S14635   5.618   6.071   6.985  0.4785  1.2300 -0.8659
  135OSM    H6T14636   5.486   6.163   7.066  0.5198  1.5902  0.8956
  135OSM    C7S14637   5.673   6.262   7.042  0.2383 -0.1929  0.4077
  135OSM    H7S14638   5.629   6.362   7.063  0.2197 -0.5426  2.1553
  135OSM    H7T14639   5.763   6.260   6.976 -0.8060  0.7790 -1.1279
  135OSM    C8S14640   5.729   6.195   7.175 -0.1625  0.3410 -0.0148
  135OSM    H8S14641   5.828   6.245   7.178  0.4227 -0.4694 -3.1898
  135OSM    H8T14642   5.747   6.086   7.165  0.2291  0.1609  2.0879
  135OSM    C9S14643   5.645   6.236   7.296  0.0173  0.5308 -0.0157
  135OSM    H9S14644   5.540   6.199   7.290  0.8150 -1.8407 -0.2496
  135OSM    H9T14645   5.649   6.347   7.287 -1.8649  0.5273 -1.9021
  135OSM   C10S14646   5.716   6.205   7.435  1.0128  0.5507  0.3839
  135OSM   H10S14647   5.822   6.235   7.422  0.6706  2.4266  1.4660
  135OSM   H10T14648   5.717   6.095   7.446  0.5811  0.5462  0.3927
  135OSM   C11S14649   5.660   6.289   7.556 -0.8612 -0.6103  0.7361
  135OSM   H11S14650   5.549   6.286   7.557 -0.8924  0.0477 -0.0275
  135OSM   H11T14651   5.678   6.396   7.532 -2.5560 -0.8902 -2.1825
  135OSM   C12S14652   5.740   6.257   7.683  0.0319 -0.0412 -0.3180
  135OSM   H12S14653   5.844   6.284   7.659  0.4923  0.0155  1.5874
  135OSM   H12T14654   5.724   6.148   7.697 -2.4487  0.1200 -1.2936
  135OSM   C13S14655   5.690   6.335   7.806 -0.7165 -0.2086 -0.7486
  135OSM   H13S14656   5.581   6.314   7.815 -0.8211 -0.0079 -1.4517
  135OSM   H13T14657   5.684   6.444   7.785  1.4745  0.3902  1.2847
  135OSM   C14S14658   5.776   6.317   7.938  0.0393 -0.4073 -0.3003
  135OSM   H14S14659   5.878   6.359   7.932  1.0239 -2.6970 -0.6838
  135OSM   H14T14660   5.786   6.206   7.939 -1.7644 -0.6071 -0.1742
  135OSM   C15S14661   5.703   6.364   8.063  0.7418 -0.1133 -0.9898
  135OSM   H15S14662   5.614   6.300   8.076 -0.6934  2.1298  0.9764
  135OSM   H15T14663   5.679   6.468   8.032 -0.4420  0.4059  1.4660
  135OSM   C16S14664   5.783   6.362   8.194 -0.3561  0.3149 -0.1176
  135OSM   H16S14665   5.723   6.386   8.285  1.0919 -1.5051  1.3957
  135OSM   H16T14666   5.863   6.438   8.182 -2.0084  2.1330 -0.1881
  135OSM   C17S14667   5.840   6.225   8.227  0.5821  0.1842 -1.4997
  135OSM   H17S14668   5.896   6.193   8.136  0.0658  0.3166 -1.8702
  135OSM   H17T14669   5.753   6.156   8.237 -0.5623  1.8903  1.5252
  135OSM   C18S14670   5.908   6.229   8.362 -0.5904  0.3932  0.2801
  135OSM   H18S14671   5.913   6.127   8.406 -2.9563  0.5380  1.0543
  135OSM   H18T14672   5.850   6.288   8.437  0.6611  0.0563  1.5487
  135OSM   H18U14673   6.007   6.278   8.361 -2.5163  4.7748  0.0375
  135OSM    C1F14674   5.115   6.477   6.851  0.0950 -0.3036 -0.1917
  135OSM     OF14675   5.011   6.427   6.807  0.3670 -0.0932 -0.3219
  135OSM    C2F14676   5.107   6.563   6.962 -0.1050 -0.9277  0.0023
  135OSM    H2F14677   5.013   6.622   6.971  0.4630 -0.0056 -0.0144
  135OSM    H2G14678   5.184   6.643   6.966 -1.1179  0.0281  3.0267
  135OSM    C3F14679   5.131   6.470   7.091 -0.5575  0.1682  0.6039
  135OSM    H3F14680   5.229   6.418   7.095  0.0160  0.9475 -1.8486
  135OSM    H3G14681   5.052   6.392   7.090 -1.3909  0.9248  2.2004
  135OSM    C4F14682   5.119   6.545   7.220 -0.0476 -0.3231  0.9379
  135OSM    H4F14683   5.015   6.575   7.245 -0.1092  0.6873 -0.4040
  135OSM    H4G14684   5.163   6.645   7.198 -0.2753 -0.1527  1.2454
  135OSM    C5F14685   5.178   6.467   7.337  0.4666 -0.8674  0.5216
  135OSM    H5F14686   5.274   6.425   7.300  2.2261  3.9346 -1.1713
  135OSM    H5G14687   5.098   6.393   7.362  0.9841 -1.1912  1.2553
  135OSM    C6F14688   5.220   6.546   7.462 -0.3687 -0.7197 -0.5359
  135OSM    H6F14689   5.130   6.585   7.514 -0.6059  1.2179 -2.2869
  135OSM    H6G14690   5.287   6.632   7.443  1.2664 -0.9909  3.1187
  135OSM    C7F14691   5.298   6.454   7.564 -0.4288 -1.1322  0.3757
  135OSM    H7F14692   5.388   6.419   7.509  1.5283 -0.3580  2.9107
  135OSM    H7G14693   5.232   6.371   7.595 -0.9567 -0.5808  0.7607
  135OSM    C8F14694   5.363   6.524   7.684  0.5375  0.4585 -0.6176
  135OSM    H8F14695   5.428   6.604   7.642 -1.1821  2.3214  0.0612
  135OSM    H8G14696   5.413   6.450   7.749 -3.0167 -0.6130  1.1297
  135OSM    C9F14697   5.259   6.591   7.771  0.5057  0.3647 -1.5034
  135OSM    H9F14698   5.174   6.638   7.719  1.7825  2.0357 -2.1787
  135OSM   C10F14699   5.257   6.590   7.908  0.5624 -0.1701 -0.3192
  135OSM   H10F14700   5.168   6.636   7.952  0.9217 -0.3657  0.6468
  135OSM   C11F14701   5.359   6.521   7.998  0.1724  0.5341 -0.3862
  135OSM   H11F14702   5.444   6.583   8.036 -0.6591  1.8302 -0.5684
  135OSM   H11G14703   5.408   6.438   7.944  0.9621  1.8733 -1.7863
  135OSM   C12F14704   5.300   6.448   8.121  0.1763  0.1203  0.7750
  135OSM   H12F14705   5.386   6.402   8.174 -0.0488 -2.7386 -1.1593
  135OSM   H12G14706   5.227   6.372   8.087 -0.0068  0.9615 -0.7902
  135OSM   C13F14707   5.238   6.542   8.220 -0.1703 -0.3512 -0.1789
  135OSM   H13F14708   5.154   6.597   8.172  0.9511 -0.1062 -1.9637
  135OSM   H13G14709   5.321   6.612   8.242  1.3099 -2.5956  1.9102
  135OSM   C14F14710   5.182   6.466   8.344  0.1335 -0.8827  0.1159
  135OSM   H14F14711   5.111   6.392   8.302 -2.2915  0.3699  1.7856
  135OSM   H14G14712   5.124   6.539   8.404  0.4080  0.3757 -1.1086
  135OSM   C15F14713   5.278   6.407   8.449  0.2047  0.1016 -0.6890
  135OSM   H15F14714   5.380   6.427   8.408 -0.2581  1.1975 -1.3472
  135OSM   H15G14715   5.269   6.298   8.467  1.0287 -0.2415 -2.1590
  135OSM   C16F14716   5.255   6.481   8.589  0.2149  0.6864  0.6279
  135OSM   H16F14717   5.151   6.463   8.622 -0.3895  0.2119 -1.3867
  135OSM   H16G14718   5.258   6.592   8.577  0.5385  0.6261  0.1190
  135OSM   C17F14719   5.351   6.439   8.704  0.7444  0.3310 -0.8029
  135OSM   H17F14720   5.459   6.424   8.685  0.9479  1.6889 -0.8037
  135OSM   H17G14721   5.324   6.332   8.722 -0.5976  0.8797  0.6298
  135OSM   C18F14722   5.334   6.520   8.829  0.3825 -0.8410  0.0353
  135OSM   H18F14723   5.349   6.626   8.799 -1.4867 -0.4357  0.4028
  135OSM   H18G14724   5.407   6.494   8.909 -0.8158 -2.3314  0.7094
  135OSM   H18H14725   5.232   6.507   8.871 -0.2957 -1.0156 -1.6055
  136OSM      N14726   5.454   5.021   6.148 -0.6684 -0.8864 -0.1781
  136OSM    C1514727   5.512   4.973   6.021  0.3248 -0.3414 -0.3531
  136OSM   H15A14728   5.598   5.027   5.985 -0.1838  0.0674 -0.9776
  136OSM   H15B14729   5.450   4.982   5.933 -0.4254  1.5418  0.3130
  136OSM   H15C14730   5.532   4.868   6.034 -0.6014 -0.2456  2.8219
  136OSM    C1414731   5.554   4.999   6.257  0.1665 -0.2880  0.3143
  136OSM   H14A14732   5.569   4.893   6.264  0.2869 -0.4801 -1.8876
  136OSM   H14B14733   5.518   5.037   6.351 -0.7658  0.9731 -0.5002
  136OSM   H14C14734   5.649   5.042   6.230 -0.2960  0.8988  0.5036
  136OSM    C1314735   5.425   5.167   6.133  0.3223 -0.0373  0.6992
  136OSM   H13A14736   5.373   5.199   6.222  0.1898  1.0075  0.2568
  136OSM   H13B14737   5.359   5.173   6.048  2.7751 -3.4236 -1.7375
  136OSM   H13C14738   5.510   5.229   6.108  0.5837 -1.4325 -2.2070
  136OSM    C1214739   5.329   4.942   6.183  0.0383 -0.2710  0.1471
  136OSM   H12A14740   5.367   4.841   6.185  0.0722 -0.2497  0.5466
  136OSM   H12B14741   5.252   4.964   6.111 -0.7781  0.0422  1.1002
  136OSM    C1114742   5.259   4.967   6.311 -0.0618 -0.4415 -0.0051
  136OSM   H11A14743   5.328   4.958   6.398  1.9143 -1.0824 -1.5832
  136OSM   H11B14744   5.190   4.883   6.330  0.3431 -1.0926 -1.3415
  136OSM      P14745   5.050   5.119   6.369  0.4432 -0.5034  0.0552
  136OSM    O1314746   4.994   5.248   6.318 -0.1814  0.1036  0.2915
  136OSM    O1414747   4.964   5.000   6.337 -0.5850 -0.4435 -0.1387
  136OSM    O1114748   5.073   5.123   6.525 -0.6835  0.1937 -0.1133
  136OSM    O1214749   5.198   5.098   6.314 -0.0598  0.1605  0.0051
  136OSM    C1S14750   4.974   5.200   6.599  0.1629  0.0842  0.1398
  136OSM    H1S14751   4.876   5.151   6.585 -0.4755  1.1738  0.6496
  136OSM    H1T14752   4.967   5.303   6.558  0.2129 -0.8659 -2.3951
  136OSM     NF14753   4.871   5.226   6.822 -0.2065  0.1140 -0.1807
  136OSM    HNF14754   4.870   5.322   6.850  1.1881  0.0678  0.1152
  136OSM    C2S14755   4.997   5.203   6.755 -0.2561 -0.1126  0.3977
  136OSM    H2S14756   5.034   5.099   6.773  1.7090  1.0682  4.1185
  136OSM    C3S14757   5.111   5.305   6.793 -0.2632 -0.3560  0.9973
  136OSM    H3S14758   5.093   5.407   6.755  1.5288 -0.4624 -0.2126
  136OSM     O314759   5.229   5.275   6.717  0.3333 -0.1972  0.0223
  136OSM    HO314760   5.193   5.238   6.636  1.4583 -0.7091 -0.2577
  136OSM    C4S14761   5.136   5.303   6.941  0.3825 -0.6432  0.3902
  136OSM    H4S14762   5.175   5.207   6.979  1.5160  0.5419  2.3558
  136OSM    C5S14763   5.117   5.412   7.022  0.4183  0.2949  0.0591
  136OSM    H5S14764   5.083   5.503   6.972  1.3180  1.1565  0.9568
  136OSM    C6S14765   5.143   5.416   7.171 -0.2795  0.1374 -0.5404
  136OSM    H6S14766   5.051   5.450   7.222  1.0226 -0.2438  2.2325
  136OSM    H6T14767   5.221   5.492   7.191  0.5658 -0.1019 -2.6219
  136OSM    C7S14768   5.199   5.287   7.247  0.3889 -0.2081  0.2216
  136OSM    H7S14769   5.280   5.241   7.187  0.1240 -0.4713  0.0582
  136OSM    H7T14770   5.111   5.219   7.255  0.4799 -0.2576  0.8596
  136OSM    C8S14771   5.243   5.313   7.392 -0.5493 -0.0919  0.6292
  136OSM    H8S14772   5.329   5.383   7.385 -1.8208  1.5625  0.9941
  136OSM    H8T14773   5.283   5.226   7.448  0.4068  0.1504  0.3406
  136OSM    C9S14774   5.141   5.366   7.494 -0.7427  0.3116  0.0889
  136OSM    H9S14775   5.049   5.304   7.505  0.9404 -2.2569  0.5435
  136OSM    H9T14776   5.112   5.466   7.455  0.5618 -0.0506 -2.0097
  136OSM   C10S14777   5.189   5.377   7.642  0.1624 -0.7668 -0.2601
  136OSM   H10S14778   5.285   5.428   7.665 -2.0811  3.2291  1.2205
  136OSM   H10T14779   5.179   5.277   7.688  2.4734 -1.8739 -1.9902
  136OSM   C11S14780   5.078   5.465   7.717 -0.4585 -0.4479  0.6491
  136OSM   H11S14781   4.977   5.436   7.679 -0.2875 -1.5882  1.0265
  136OSM   H11T14782   5.098   5.568   7.681 -0.7515 -0.1761  1.2554
  136OSM   C12S14783   5.087   5.461   7.874  0.3780  0.1393  0.4390
  136OSM   H12S14784   5.121   5.358   7.896 -2.6515 -1.2340 -0.8483
  136OSM   H12T14785   4.982   5.469   7.909 -0.2971  1.1452 -1.6600
  136OSM   C13S14786   5.179   5.570   7.925 -0.6953  0.1348  0.5732
  136OSM   H13S14787   5.133   5.669   7.905  0.4416  0.4590 -0.5403
  136OSM   H13T14788   5.270   5.567   7.862 -1.4171 -2.4660 -0.4933
  136OSM   C14S14789   5.225   5.555   8.074  0.0449  0.6747 -0.1979
  136OSM   H14S14790   5.297   5.637   8.099  1.3578 -0.4013 -0.3536
  136OSM   H14T14791   5.279   5.459   8.081 -0.9809  0.1488  0.7255
  136OSM   C15S14792   5.101   5.562   8.167  0.0138  0.0101  0.1789
  136OSM   H15S14793   5.028   5.479   8.176  1.2577 -0.9009  3.1770
  136OSM   H15T14794   5.033   5.642   8.131 -1.7795 -1.7910 -0.6207
  136OSM   C16S14795   5.149   5.574   8.315  0.4481  0.1697 -0.2558
  136OSM   H16S14796   5.218   5.659   8.332  0.4378 -0.2195  2.0640
  136OSM   H16T14797   5.201   5.479   8.341  0.3218  0.5854  1.6184
  136OSM   C17S14798   5.018   5.599   8.395  0.4931 -0.3255 -0.3792
  136OSM   H17S14799   4.964   5.503   8.409  1.7463 -0.9675  0.1899
  136OSM   H17T14800   4.954   5.668   8.337 -2.4413 -3.3926 -1.0959
  136OSM   C18S14801   5.051   5.659   8.534 -0.7133 -0.7013  0.9033
  136OSM   H18S14802   5.138   5.728   8.524 -1.1447 -0.0319  1.6703
  136OSM   H18T14803   5.080   5.582   8.609  3.1009  0.8514  1.2660
  136OSM   H18U14804   4.958   5.714   8.560 -0.3381  0.0367  0.7046
  136OSM    C1F14805   4.773   5.132   6.843 -0.4354 -0.8017  0.1676
  136OSM     OF14806   4.796   5.016   6.820  0.1471  0.4489  0.0118
  136OSM    C2F14807   4.655   5.195   6.914  0.3661 -0.4172  0.5497
  136OSM    H2F14808   4.648   5.298   6.873  1.6503 -0.1104  1.0271
  136OSM    H2G14809   4.674   5.195   7.024 -0.9949 -1.3547  0.8102
  136OSM    C3F14810   4.522   5.121   6.904  0.3319  0.2078  0.4173
  136OSM    H3F14811   4.547   5.014   6.918  3.5261  0.5750 -1.2786
  136OSM    H3G14812   4.497   5.135   6.796  1.3628  0.0337  0.1413
  136OSM    C4F14813   4.403   5.180   6.975  0.2980  0.1779  0.0140
  136OSM    H4F14814   4.321   5.107   6.956 -1.6072  2.5435 -1.5214
  136OSM    H4G14815   4.383   5.279   6.929  1.0077 -0.2999 -1.3701
  136OSM    C5F14816   4.430   5.193   7.119  0.0198 -0.5096  0.1890
  136OSM    H5F14817   4.485   5.289   7.133 -1.0641  0.3826 -1.3705
  136OSM    H5G14818   4.489   5.109   7.162 -0.8380 -1.2632 -0.0707
  136OSM    C6F14819   4.311   5.206   7.218 -0.3749  0.3688 -0.2792
  136OSM    H6F14820   4.245   5.117   7.216 -0.8290  0.6247  1.5242
  136OSM    H6G14821   4.247   5.296   7.204 -0.3588  0.7361  1.7353
  136OSM    C7F14822   4.358   5.216   7.359  0.3416  0.2468 -0.4587
  136OSM    H7F14823   4.409   5.307   7.395  0.3183 -0.0917  0.4423
  136OSM    H7G14824   4.427   5.130   7.374  0.4497  0.3303 -0.4719
  136OSM    C8F14825   4.242   5.198   7.472 -0.4185  0.1212 -0.0233
  136OSM    H8F14826   4.298   5.171   7.564 -1.5979 -0.8186  0.4472
  136OSM    H8G14827   4.182   5.110   7.440 -1.2326  0.4526  0.5845
  136OSM    C9F14828   4.156   5.315   7.504  0.2511  0.0391  0.0142
  136OSM    H9F14829   4.118   5.372   7.419  0.0305  0.2847  0.2755
  136OSM   C10F14830   4.128   5.368   7.623  1.1349  0.3578  1.4107
  136OSM   H10F14831   4.065   5.459   7.621 -1.4633 -1.3245  0.8104
  136OSM   C11F14832   4.168   5.323   7.760  0.0926  0.1164 -0.0162
  136OSM   H11F14833   4.265   5.270   7.751 -0.4734 -0.6928 -1.7835
  136OSM   H11G14834   4.090   5.251   7.795  0.5336 -0.7079 -0.7019
  136OSM   C12F14835   4.157   5.440   7.864 -0.2741  0.2936  0.4180
  136OSM   H12F14836   4.060   5.491   7.848  0.4108  1.2048 -1.1152
  136OSM   H12G14837   4.235   5.510   7.828  0.4630 -0.8118 -0.2192
  136OSM   C13F14838   4.148   5.396   8.013  0.7686  0.5471  0.3199
  136OSM   H13F14839   4.248   5.365   8.050  1.1085  2.7301  1.3865
  136OSM   H13G14840   4.076   5.311   8.016 -0.6396  1.7095  1.2474
  136OSM   C14F14841   4.110   5.511   8.106 -0.5968 -0.2568 -0.1202
  136OSM   H14F14842   4.015   5.549   8.062 -1.0104 -0.6322  0.4220
  136OSM   H14G14843   4.185   5.593   8.106  1.3232 -1.9536 -1.0201
  136OSM   C15F14844   4.084   5.462   8.245 -0.2040  0.1908 -0.1826
  136OSM   H15F14845   4.185   5.427   8.275 -0.9269 -1.9367 -0.0740
  136OSM   H15G14846   4.030   5.365   8.237 -0.2103 -0.0852  2.3669
  136OSM   C16F14847   4.029   5.568   8.343  0.1819 -0.1178 -0.1834
  136OSM   H16F14848   3.944   5.523   8.398 -0.0534  0.1219 -0.3504
  136OSM   H16G14849   4.009   5.658   8.281 -0.8687  0.9287  1.5965
  136OSM   C17F14850   4.124   5.603   8.460  0.6987  0.6953  0.3472
  136OSM   H17F14851   4.219   5.623   8.405  2.2244 -0.6527  2.3572
  136OSM   H17G14852   4.149   5.518   8.527  0.6140  0.1881 -0.2501
  136OSM   C18F14853   4.092   5.732   8.536 -0.5274  0.1662 -0.3079
  136OSM   H18F14854   4.176   5.756   8.606 -0.6872  3.6161 -1.0860
  136OSM   H18G14855   4.011   5.724   8.612  0.0111 -0.7484  0.1861
  136OSM   H18H14856   4.079   5.813   8.461 -1.9100 -0.9628 -1.3406
  137OSM      N14857   1.437   4.970   6.439 -0.0042  0.5487 -0.5624
  137OSM    C1514858   1.524   5.050   6.349  0.6728 -0.2983 -0.3642
  137OSM   H15A14859   1.624   5.011   6.336  1.2919  0.5576  1.4175
  137OSM   H15B14860   1.548   5.144   6.397 -1.2123  1.3735 -2.5020
  137OSM   H15C14861   1.474   5.070   6.255 -1.2140  1.1445  0.8685
  137OSM    C1414862   1.400   4.848   6.357 -0.4714  0.6151  0.3503
  137OSM   H14A14863   1.352   4.766   6.409 -1.6449  0.4836 -0.8950
  137OSM   H14B14864   1.486   4.807   6.306 -1.3547 -1.0528  0.1452
  137OSM   H14C14865   1.330   4.876   6.280  0.1993  2.0152  0.2161
  137OSM    C1314866   1.514   4.928   6.560 -0.2423  0.6812  0.1347
  137OSM   H13A14867   1.528   5.008   6.631  4.0775  0.6515 -0.3947
  137OSM   H13B14868   1.616   4.904   6.533  0.1395  1.1958  1.0796
  137OSM   H13C14869   1.458   4.852   6.613  1.2892  0.2924  1.2609
  137OSM    C1214870   1.311   5.051   6.476 -0.1595 -0.2925 -0.5210
  137OSM   H12A14871   1.237   4.986   6.520 -0.7518 -0.0749 -1.1785
  137OSM   H12B14872   1.259   5.096   6.393  0.2270  2.4566  0.6206
  137OSM    C1114873   1.334   5.176   6.567 -0.1578  0.8335 -0.4269
  137OSM   H11A14874   1.401   5.160   6.654  0.1101 -0.6359 -0.8799
  137OSM   H11B14875   1.232   5.196   6.606 -0.2983 -0.2469 -0.2087
  137OSM      P14876   1.291   5.365   6.393 -0.0686  0.5362  0.2345
  137OSM    O1314877   1.364   5.460   6.313  0.9390 -0.7499 -0.0768
  137OSM    O1414878   1.210   5.269   6.313  0.2500  0.1115  0.9270
  137OSM    O1114879   1.195   5.446   6.478  0.1745  0.3292  0.2176
  137OSM    O1214880   1.377   5.287   6.493 -0.9453 -0.1188 -0.6498
  137OSM    C1S14881   1.055   5.425   6.507 -0.7888 -0.4433 -0.1446
  137OSM    H1S14882   1.033   5.320   6.536  2.6465 -0.9371  1.1477
  137OSM    H1T14883   0.993   5.465   6.424 -0.5109 -0.0715 -0.1731
  137OSM     NF14884   0.883   5.530   6.657  0.0284 -0.5695  0.0851
  137OSM    HNF14885   0.833   5.610   6.626  0.3785 -0.1608  0.5443
  137OSM    C2S14886   1.031   5.519   6.636  0.1836  0.2735 -0.3952
  137OSM    H2S14887   1.081   5.474   6.724 -0.6747 -0.4670 -0.2705
  137OSM    C3S14888   1.097   5.663   6.619 -0.1276  0.3533  0.5893
  137OSM    H3S14889   1.041   5.711   6.537 -0.9327  2.9060  2.5282
  137OSM     O314890   1.236   5.672   6.576  0.8049 -0.1092 -0.1730
  137OSM    HO314891   1.261   5.580   6.567 -0.7388 -0.7816  1.6024
  137OSM    C4S14892   1.077   5.758   6.732  0.1988  0.0111  0.1214
  137OSM    H4S14893   0.978   5.805   6.719  0.1221 -0.2407 -0.2062
  137OSM    C5S14894   1.154   5.796   6.827  0.1956  0.1655 -0.8655
  137OSM    H5S14895   1.252   5.745   6.829  0.4185  0.5758  1.4646
  137OSM    C6S14896   1.112   5.890   6.938 -0.0844  0.7191  0.4445
  137OSM    H6S14897   1.001   5.893   6.941 -0.1870  0.4127 -1.7473
  137OSM    H6T14898   1.149   5.988   6.901  1.6900  0.3134  1.0618
  137OSM    C7S14899   1.170   5.851   7.077 -0.7483  0.1445  0.1592
  137OSM    H7S14900   1.281   5.850   7.087 -0.7646 -1.7513  0.6473
  137OSM    H7T14901   1.133   5.755   7.118  0.8984  0.2585  2.0704
  137OSM    C8S14902   1.121   5.942   7.196 -0.2289  0.0769 -0.0116
  137OSM    H8S14903   1.011   5.940   7.206 -0.0408 -1.1342  2.8511
  137OSM    H8T14904   1.146   6.047   7.170 -0.7885  0.3918  0.6694
  137OSM    C9S14905   1.183   5.893   7.321 -0.0295  0.6414 -0.0802
  137OSM    H9S14906   1.293   5.911   7.325  0.3080 -0.6956 -2.0365
  137OSM    H9T14907   1.167   5.784   7.336  2.4986  0.1194 -0.6466
  137OSM   C10S14908   1.110   5.960   7.439  0.0570 -0.8579  0.0302
  137OSM   H10S14909   1.006   5.921   7.435  0.2078 -1.3728  0.8057
  137OSM   H10T14910   1.105   6.069   7.418  1.8482 -0.4816  1.2893
  137OSM   C11S14911   1.178   5.949   7.575 -0.1469 -0.3311 -0.9643
  137OSM   H11S14912   1.287   5.971   7.576 -0.3006  0.4503 -0.1340
  137OSM   H11T14913   1.167   5.844   7.610 -2.9367 -0.5303 -2.1739
  137OSM   C12S14914   1.100   6.030   7.686 -0.1428 -0.1281  0.9196
  137OSM   H12S14915   0.996   5.993   7.690  0.1371 -0.8800  1.4685
  137OSM   H12T14916   1.110   6.138   7.662  1.5625 -0.7414 -1.5200
  137OSM   C13S14917   1.145   6.002   7.833 -0.3099  0.1879  0.0886
  137OSM   H13S14918   1.248   6.042   7.839  0.0544 -0.7161  0.0591
  137OSM   H13T14919   1.131   5.894   7.856 -0.0083  0.2608  0.6129
  137OSM   C14S14920   1.067   6.079   7.944  0.5758 -0.6707  0.3640
  137OSM   H14S14921   0.978   6.019   7.974  1.0179 -1.8074 -0.5177
  137OSM   H14T14922   1.039   6.182   7.914  2.9696  0.3287  1.3075
  137OSM   C15S14923   1.157   6.096   8.070  0.2371 -0.4146 -0.9908
  137OSM   H15S14924   1.231   6.013   8.081  0.6068 -0.0401 -0.6216
  137OSM   H15T14925   1.093   6.096   8.161  2.3906 -0.6663  0.6116
  137OSM   C16S14926   1.241   6.223   8.058 -0.9030  0.2862 -0.4689
  137OSM   H16S14927   1.172   6.306   8.035  0.0877  0.5287 -2.8155
  137OSM   H16T14928   1.306   6.206   7.969 -0.2797 -3.4635  0.5262
  137OSM   C17S14929   1.341   6.249   8.170 -0.1755  0.1198  0.7842
  137OSM   H17S14930   1.390   6.151   8.193 -0.3369  0.1268  1.1575
  137OSM   H17T14931   1.289   6.285   8.261  0.5631  3.7073 -0.0899
  137OSM   C18S14932   1.446   6.360   8.137 -0.3524 -0.2767 -0.0389
  137OSM   H18S14933   1.392   6.442   8.085 -0.4973 -0.3334  0.0211
  137OSM   H18T14934   1.525   6.320   8.071 -0.8691 -0.5325 -0.5063
  137OSM   H18U14935   1.486   6.399   8.233 -0.9586 -3.2589  1.5437
  137OSM    C1F14936   0.822   5.417   6.698 -0.6534  0.1122 -0.4169
  137OSM     OF14937   0.894   5.322   6.717 -0.0007 -0.3060 -0.2807
  137OSM    C2F14938   0.675   5.412   6.712 -0.0025  0.0148  0.0469
  137OSM    H2F14939   0.639   5.349   6.628  1.9114 -0.1467 -0.7156
  137OSM    H2G14940   0.622   5.507   6.690  1.0340  0.5491 -0.2200
  137OSM    C3F14941   0.618   5.356   6.848 -0.2988 -0.5561  0.6505
  137OSM    H3F14942   0.644   5.249   6.860 -0.7709 -0.5284  2.0778
  137OSM    H3G14943   0.509   5.349   6.827  0.2602 -1.1611 -2.5462
  137OSM    C4F14944   0.664   5.423   6.974  0.8346 -0.1477 -0.3709
  137OSM    H4F14945   0.774   5.436   6.980  0.5132  1.8834  3.0851
  137OSM    H4G14946   0.649   5.357   7.062 -0.1556 -2.0042 -1.8381
  137OSM    C5F14947   0.609   5.566   6.997 -0.2575 -0.4983 -0.6916
  137OSM    H5F14948   0.502   5.571   6.971 -0.7510 -3.5853  0.3439
  137OSM    H5G14949   0.657   5.635   6.924 -0.5941  0.7079  0.1741
  137OSM    C6F14950   0.653   5.623   7.136 -0.2547 -0.2905  0.8943
  137OSM    H6F14951   0.600   5.562   7.212 -1.6818 -0.9572 -0.5754
  137OSM    H6G14952   0.610   5.724   7.148  1.3330  0.8232 -1.9333
  137OSM    C7F14953   0.801   5.643   7.170  0.3811  0.7663  0.6640
  137OSM    H7F14954   0.834   5.719   7.096 -1.4953  1.4525  0.4849
  137OSM    H7G14955   0.836   5.538   7.156 -0.6529  0.3551  1.0271
  137OSM    C8F14956   0.831   5.694   7.310 -0.1311  0.2040  0.0525
  137OSM    H8F14957   0.935   5.732   7.311 -0.2961  0.6689  1.2249
  137OSM    H8G14958   0.832   5.601   7.371  1.3301  0.1647  0.0137
  137OSM    C9F14959   0.736   5.798   7.355  0.5072 -0.6058 -0.3303
  137OSM    H9F14960   0.690   5.860   7.277  1.4953 -0.3457 -0.7197
  137OSM   C10F14961   0.709   5.826   7.489 -0.5111  0.1567  0.4435
  137OSM   H10F14962   0.644   5.910   7.518 -0.2749  0.6498 -0.4121
  137OSM   C11F14963   0.782   5.761   7.598 -0.2922  0.1042  0.6736
  137OSM   H11F14964   0.888   5.755   7.568 -0.8460 -0.1581 -1.3717
  137OSM   H11G14965   0.754   5.653   7.608 -0.9529  0.3362  1.5687
  137OSM   C12F14966   0.761   5.823   7.741 -0.3572 -0.5178  0.5848
  137OSM   H12F14967   0.653   5.804   7.759 -0.3813  0.4160  1.5095
  137OSM   H12G14968   0.778   5.933   7.730  1.7219 -0.7040  1.5096
  137OSM   C13F14969   0.848   5.765   7.847 -0.4192 -0.4556  0.3450
  137OSM   H13F14970   0.953   5.775   7.811 -0.7200 -0.9925 -0.7159
  137OSM   H13G14971   0.836   5.655   7.857  1.3764 -0.7043  0.0770
  137OSM   C14F14972   0.798   5.814   7.980  0.1177  0.1951  0.0939
  137OSM   H14F14973   0.699   5.771   8.004  0.6931  0.0712  2.5635
  137OSM   H14G14974   0.782   5.924   7.984 -2.8776 -0.1135 -1.4413
  137OSM   C15F14975   0.892   5.760   8.082 -0.3753  0.4747 -0.3198
  137OSM   H15F14976   0.998   5.795   8.083  0.1147 -0.8648  1.6092
  137OSM   H15G14977   0.901   5.654   8.053 -1.5815  0.5485 -1.0194
  137OSM   C16F14978   0.846   5.750   8.231 -0.1719  0.4528  0.2722
  137OSM   H16F14979   0.928   5.708   8.292 -0.0117  1.9191  1.0952
  137OSM   H16G14980   0.754   5.689   8.223 -0.0828  0.2146  0.9945
  137OSM   C17F14981   0.812   5.886   8.286  0.0497 -1.3058  0.4336
  137OSM   H17F14982   0.753   5.943   8.210 -1.0963 -1.2965  1.3076
  137OSM   H17G14983   0.910   5.939   8.290 -1.7347  2.3288  0.3781
  137OSM   C18F14984   0.746   5.888   8.421  0.8374 -0.4091 -0.5364
  137OSM   H18F14985   0.802   5.826   8.495  0.2728 -0.4274 -0.1201
  137OSM   H18G14986   0.647   5.838   8.413  0.6819 -0.2385  0.2200
  137OSM   H18H14987   0.724   5.987   8.468 -1.0972  0.3920 -2.9257
  138OSM      N14988   1.697   5.782   5.969  0.1248 -0.0859 -0.2792
  138OSM    C1514989   1.619   5.665   5.923  0.7375  0.5387  0.5285
  138OSM   H15A14990   1.664   5.567   5.916 -3.2285 -1.4823 -0.0949
  138OSM   H15B14991   1.574   5.686   5.827  1.6742 -1.0967 -0.3200
  138OSM   H15C14992   1.539   5.649   5.994 -0.4042  1.5555 -0.4809
  138OSM    C1414993   1.805   5.816   5.864  0.0467  0.0691 -0.5010
  138OSM   H14A14994   1.873   5.882   5.916  0.8944 -1.7018  0.7699
  138OSM   H14B14995   1.751   5.861   5.782  1.1626  0.4734 -1.0336
  138OSM   H14C14996   1.858   5.725   5.838 -0.1648 -0.8599  2.0141
  138OSM    C1314997   1.599   5.891   5.977 -0.4687 -0.4320  0.9461
  138OSM   H13A14998   1.519   5.860   6.042 -1.7428 -1.3819 -0.9951
  138OSM   H13B14999   1.561   5.914   5.879 -1.7856  0.3861  1.6176
  138OSM   H13C15000   1.642   5.983   6.013  1.2303  0.4136 -2.7672
  138OSM    C1215001   1.768   5.748   6.099  0.3945  0.9717  0.4122
  138OSM   H12A15002   1.831   5.662   6.087  0.1215  0.5918  1.6439
  138OSM   H12B15003   1.697   5.721   6.175  1.5359 -0.7657  0.9110
  138OSM    C1115004   1.864   5.853   6.154  0.1302 -0.9636 -0.1197
  138OSM   H11A15005   1.886   5.817   6.257  0.2575 -2.8471 -0.7846
  138OSM   H11B15006   1.816   5.951   6.176 -0.0121 -0.3882 -2.7499
  138OSM      P15007   2.082   5.995   6.117  0.3835  0.5289 -0.3139
  138OSM    O1315008   2.212   5.945   6.074  0.2098  0.0031  0.6018
  138OSM    O1415009   2.031   6.119   6.044  0.3684  0.8246 -0.2329
  138OSM    O1115010   2.082   6.009   6.270 -0.3598 -0.4743 -0.0820
  138OSM    O1215011   1.986   5.866   6.087  0.0567 -0.4732  0.2630
  138OSM    C1S15012   2.024   6.134   6.328 -0.1639  0.5610 -0.0016
  138OSM    H1S15013   1.913   6.129   6.332 -0.2249 -0.0766 -1.7473
  138OSM    H1T15014   2.067   6.225   6.282  1.3928 -0.9537 -1.7469
  138OSM     NF15015   2.029   6.245   6.553  0.2523  0.7905 -0.8024
  138OSM    HNF15016   2.096   6.318   6.564 -0.1262  0.9532  0.5319
  138OSM    C2S15017   2.079   6.135   6.475 -0.6281 -0.0426 -0.0689
  138OSM    H2S15018   2.046   6.047   6.534  0.1607 -2.1127 -2.5488
  138OSM    C3S15019   2.238   6.132   6.485 -0.3522 -0.2049  0.1810
  138OSM    H3S15020   2.273   6.236   6.471 -2.5483  0.4177 -1.0150
  138OSM     O315021   2.309   6.060   6.388  0.2832 -0.0572  0.0952
  138OSM    HO315022   2.244   6.019   6.331  0.7690 -0.2683 -0.3088
  138OSM    C4S15023   2.277   6.095   6.625 -0.2593 -0.7283  0.5461
  138OSM    H4S15024   2.253   6.177   6.694 -1.8933 -1.6803  1.1758
  138OSM    C5S15025   2.317   5.980   6.677  0.1872  0.0362  0.3642
  138OSM    H5S15026   2.322   5.896   6.606 -0.0536 -1.2485  1.8235
  138OSM    C6S15027   2.357   5.944   6.817 -0.2659  0.0423  0.2478
  138OSM    H6S15028   2.465   5.918   6.820  0.7021  2.9986 -2.3815
  138OSM    H6T15029   2.302   5.851   6.841 -0.9101  0.5196  0.6950
  138OSM    C7S15030   2.325   6.038   6.928  0.7033  0.6395  0.5324
  138OSM    H7S15031   2.215   6.055   6.930  0.6502  0.2651  1.7726
  138OSM    H7T15032   2.369   6.140   6.915  0.2882  0.7665  0.1140
  138OSM    C8S15033   2.369   5.974   7.065 -0.3106 -0.2025  1.2829
  138OSM    H8S15034   2.473   5.938   7.050 -1.0924 -1.3932 -2.2442
  138OSM    H8T15035   2.323   5.876   7.087 -1.9519 -0.2621 -1.8529
  138OSM    C9S15036   2.354   6.076   7.182  0.3694  0.6639 -0.6748
  138OSM    H9S15037   2.254   6.124   7.184 -0.1403 -0.3509 -0.6936
  138OSM    H9T15038   2.417   6.166   7.176  0.6730  0.5567  0.5758
  138OSM   C10S15039   2.379   6.008   7.315  0.3688  0.1787 -0.3112
  138OSM   H10S15040   2.481   5.966   7.306  0.0950 -0.2325 -1.8750
  138OSM   H10T15041   2.305   5.926   7.325 -0.1983  0.5392 -1.3675
  138OSM   C11S15042   2.377   6.096   7.442  0.4858  0.2256 -0.4237
  138OSM   H11S15043   2.276   6.138   7.464  0.9862  0.8262  0.7886
  138OSM   H11T15044   2.442   6.184   7.426 -0.8403  1.1061 -1.2131
  138OSM   C12S15045   2.434   6.024   7.570 -0.1269 -0.1345 -0.3042
  138OSM   H12S15046   2.532   5.986   7.533 -0.7181 -0.3593 -1.6981
  138OSM   H12T15047   2.377   5.931   7.592  0.5306 -0.2156  1.1240
  138OSM   C13S15048   2.451   6.102   7.694  0.5834  0.7554 -0.6296
  138OSM   H13S15049   2.348   6.127   7.727  0.8459 -0.3033  1.1130
  138OSM   H13T15050   2.496   6.200   7.666  0.5850  0.8453 -0.3225
  138OSM   C14S15051   2.527   6.025   7.806  0.1072  0.4141  0.5334
  138OSM   H14S15052   2.634   6.011   7.779 -0.5819 -0.4160 -2.0784
  138OSM   H14T15053   2.487   5.921   7.807  0.7350  0.1254 -0.9309
  138OSM   C15S15054   2.528   6.085   7.944  0.4472 -0.2426 -0.2154
  138OSM   H15S15055   2.430   6.108   7.991  0.6419  0.2762 -0.0568
  138OSM   H15T15056   2.573   6.186   7.938  0.6132 -0.1666  1.6187
  138OSM   C16S15057   2.611   5.991   8.035  0.7166 -0.3229 -0.9843
  138OSM   H16S15058   2.706   5.957   7.990  1.5549  0.3399  0.2468
  138OSM   H16T15059   2.546   5.904   8.060  0.2962  0.5201  1.0970
  138OSM   C17S15060   2.639   6.064   8.167 -0.1863 -0.2549 -0.5846
  138OSM   H17S15061   2.548   6.122   8.192 -1.3741 -1.1510 -2.6219
  138OSM   H17T15062   2.706   6.151   8.153  0.2841 -0.4938  0.1076
  138OSM   C18S15063   2.687   5.990   8.286 -0.0362  0.0812  0.2404
  138OSM   H18S15064   2.774   5.926   8.260 -1.4333 -1.5327 -0.6354
  138OSM   H18T15065   2.600   5.929   8.319 -0.7860  0.4633 -0.9914
  138OSM   H18U15066   2.710   6.052   8.375 -1.9793 -0.9077  1.4962
  138OSM    C1F15067   1.904   6.270   6.592  0.0950 -0.5703 -0.2203
  138OSM     OF15068   1.812   6.204   6.544  0.0396 -0.5339 -0.3337
  138OSM    C2F15069   1.884   6.396   6.669 -0.5082 -0.1882  0.0696
  138OSM    H2F15070   1.881   6.487   6.605 -0.3857 -0.3927 -0.2287
  138OSM    H2G15071   1.967   6.415   6.741 -2.2009  1.5350  1.6865
  138OSM    C3F15072   1.745   6.394   6.741  0.4434  0.1954 -0.1492
  138OSM    H3F15073   1.672   6.350   6.669  0.7946 -0.5643 -0.0504
  138OSM    H3G15074   1.712   6.499   6.761  3.0591  0.8124  1.3915
  138OSM    C4F15075   1.741   6.314   6.877  0.3644  0.2331  0.0395
  138OSM    H4F15076   1.771   6.208   6.865  1.3419  0.3742  1.0293
  138OSM    H4G15077   1.637   6.309   6.913  0.4748 -3.6660  0.2567
  138OSM    C5F15078   1.833   6.379   6.980  0.7448  0.3665 -0.4922
  138OSM    H5F15079   1.830   6.490   6.982  0.4889  0.3958 -1.7732
  138OSM    H5G15080   1.940   6.353   6.967  0.4158 -1.4967  0.2403
  138OSM    C6F15081   1.785   6.336   7.115  0.7316  0.1354  0.3610
  138OSM    H6F15082   1.822   6.235   7.138  2.9049  0.5673 -0.9754
  138OSM    H6G15083   1.674   6.337   7.117  0.6463 -1.8907 -0.8641
  138OSM    C7F15084   1.836   6.424   7.229  0.2605 -0.6980  0.0991
  138OSM    H7F15085   1.782   6.519   7.214  0.1361 -0.8033 -0.1321
  138OSM    H7G15086   1.942   6.457   7.225  0.1332 -0.3862 -2.2093
  138OSM    C8F15087   1.791   6.377   7.369 -0.0754  0.4136 -0.3325
  138OSM    H8F15088   1.687   6.339   7.361  0.2512 -0.2593 -1.6701
  138OSM    H8G15089   1.799   6.465   7.436  4.2200 -0.9469  1.2323
  138OSM    C9F15090   1.868   6.265   7.438  0.4973 -0.3456 -0.6069
  138OSM    H9F15091   1.827   6.164   7.418 -1.0808 -0.4321  2.4248
  138OSM   C10F15092   1.973   6.270   7.517  0.5333 -0.4363  0.1717
  138OSM   H10F15093   2.022   6.186   7.568 -1.5118 -0.4867  2.2461
  138OSM   C11F15094   2.045   6.395   7.560  0.5746 -0.2441  0.1229
  138OSM   H11F15095   1.980   6.483   7.541  2.2292  0.6079 -2.1172
  138OSM   H11G15096   2.145   6.416   7.515  0.1167  5.3210  0.9909
  138OSM   C12F15097   2.085   6.395   7.710  0.4578  0.3632  0.8292
  138OSM   H12F15098   2.125   6.498   7.726 -1.6142  1.9729 -2.9814
  138OSM   H12G15099   2.163   6.317   7.721  0.4313  0.3488  0.9116
  138OSM   C13F15100   1.972   6.356   7.810  0.3501  0.2693 -0.1913
  138OSM   H13F15101   2.006   6.363   7.916  0.5454 -0.9771 -0.1568
  138OSM   H13G15102   1.940   6.250   7.806 -0.8376  0.2941  3.9976
  138OSM   C14F15103   1.848   6.445   7.801  0.1481 -0.1750 -0.6216
  138OSM   H14F15104   1.770   6.415   7.874  2.0846 -0.8436  1.2746
  138OSM   H14G15105   1.803   6.429   7.700 -0.7269 -0.3640 -0.2130
  138OSM   C15F15106   1.867   6.600   7.820  0.2433 -0.6182 -0.3410
  138OSM   H15F15107   1.937   6.646   7.747 -0.6983  2.0691  0.3503
  138OSM   H15G15108   1.898   6.607   7.927 -1.6381  0.4417  0.1715
  138OSM   C16F15109   1.737   6.677   7.796 -0.0853 -0.0482  0.0553
  138OSM   H16F15110   1.716   6.671   7.687  1.0281  0.4740 -0.1986
  138OSM   H16G15111   1.761   6.782   7.821  2.3295 -0.7188  0.9159
  138OSM   C17F15112   1.616   6.621   7.875  0.3377  0.1789 -0.4160
  138OSM   H17F15113   1.652   6.585   7.973 -0.1955 -2.7865 -1.1987
  138OSM   H17G15114   1.569   6.532   7.828 -0.3719  0.6084 -0.5412
  138OSM   C18F15115   1.493   6.710   7.889 -0.1628 -0.3312 -0.9116
  138OSM   H18F15116   1.441   6.721   7.791 -0.9456 -0.6998 -0.5453
  138OSM   H18G15117   1.510   6.811   7.931 -3.3050 -0.5115  1.1104
  138OSM   H18H15118   1.422   6.667   7.963 -2.1321 -0.5096 -2.7859
  139OSM      N15119   6.090   1.349   6.235 -0.5516 -0.4756 -0.5167
  139OSM    C1515120   5.998   1.358   6.352 -1.0862  0.0440  0.3805
  139OSM   H15A15121   6.050   1.365   6.446 -2.3356  1.5359  1.0115
  139OSM   H15B15122   5.927   1.277   6.356  1.2019 -2.4530 -3.4327
  139OSM   H15C15123   5.951   1.455   6.344  2.6283  1.9911 -0.2370
  139OSM    C1415124   6.010   1.365   6.114  0.3315  0.5266  0.0553
  139OSM   H14A15125   6.071   1.345   6.027 -0.7510 -3.0821 -0.0366
  139OSM   H14B15126   5.959   1.460   6.115  1.2107  1.0052 -0.0351
  139OSM   H14C15127   5.935   1.288   6.105  1.3943 -0.3653 -1.7986
  139OSM    C1315128   6.191   1.461   6.244 -0.0671 -0.7026  0.0492
  139OSM   H13A15129   6.144   1.556   6.262  0.8402  0.2091 -2.1083
  139OSM   H13B15130   6.245   1.481   6.153 -0.5869 -0.6214 -0.2444
  139OSM   H13C15131   6.266   1.450   6.321  1.0194 -0.0580 -0.8864
  139OSM    C1215132   6.144   1.205   6.233  0.0630  0.7803  0.4338
  139OSM   H12A15133   6.056   1.143   6.217  0.4034  0.3314  0.2769
  139OSM   H12B15134   6.180   1.194   6.334 -0.3596  1.6830  0.6919
  139OSM    C1115135   6.252   1.160   6.129 -1.3087 -0.3719 -0.2544
  139OSM   H11A15136   6.196   1.177   6.034 -0.8653  0.7830 -0.3305
  139OSM   H11B15137   6.275   1.052   6.133  1.2417  0.1100 -0.6325
  139OSM      P15138   6.491   1.194   6.242 -0.4230 -0.5567 -0.3287
  139OSM    O1315139   6.528   1.052   6.216  0.6931 -0.2822  0.9063
  139OSM    O1415140   6.601   1.294   6.234 -0.0757  0.5218  0.0147
  139OSM    O1115141   6.415   1.206   6.390 -0.8827  0.3527  0.0565
  139OSM    O1215142   6.371   1.245   6.137  0.7977 -0.0900 -0.0929
  139OSM    C1S15143   6.491   1.151   6.501  0.1714  0.6890  0.4087
  139OSM    H1S15144   6.585   1.210   6.513 -0.3387  1.5281  0.3452
  139OSM    H1T15145   6.527   1.048   6.479 -0.2420  1.0217 -2.0811
  139OSM     NF15146   6.479   1.133   6.758 -0.7642 -0.0957 -0.4653
  139OSM    HNF15147   6.453   1.064   6.824 -3.4643  3.1772  2.2903
  139OSM    C2S15148   6.407   1.156   6.641  0.2939 -0.0037  0.2988
  139OSM    H2S15149   6.376   1.263   6.642  0.0668 -0.0296 -1.2724
  139OSM    C3S15150   6.278   1.068   6.631  0.3834 -0.7669  0.8850
  139OSM    H3S15151   6.307   0.963   6.650 -0.6679 -0.9219  1.7415
  139OSM     O315152   6.214   1.077   6.503 -0.0506  0.3086 -1.0818
  139OSM    HO315153   6.272   1.138   6.458  0.2757  1.5154  0.8352
  139OSM    C4S15154   6.173   1.093   6.735 -0.0414  0.6613  0.1597
  139OSM    H4S15155   6.147   1.000   6.788 -0.8382  0.7198 -0.1219
  139OSM    C5S15156   6.106   1.206   6.763  0.1177  0.0364  0.1516
  139OSM    H5S15157   6.130   1.297   6.707  1.4195  0.7089  1.7004
  139OSM    C6S15158   5.989   1.208   6.863  0.8085 -0.3144  0.3357
  139OSM    H6S15159   5.905   1.262   6.815  1.7400 -0.6188 -1.7674
  139OSM    H6T15160   6.015   1.261   6.956 -0.7077 -0.1294  0.6766
  139OSM    C7S15161   5.936   1.080   6.922 -0.8057  0.1779 -0.6788
  139OSM    H7S15162   6.020   1.014   6.953 -1.4004 -0.1433  0.3267
  139OSM    H7T15163   5.879   1.024   6.845 -0.1193  0.2417 -1.2447
  139OSM    C8S15164   5.856   1.100   7.059  0.1814  0.3619  0.2988
  139OSM    H8S15165   5.780   1.181   7.057 -0.4405 -0.1649  1.5834
  139OSM    H8T15166   5.928   1.140   7.134  1.3744 -0.1752 -0.5328
  139OSM    C9S15167   5.790   0.969   7.106 -1.2892 -0.4143 -0.3749
  139OSM    H9S15168   5.870   0.891   7.110  0.4251  1.2871  0.0461
  139OSM    H9T15169   5.721   0.921   7.033  0.0128 -1.0215 -1.2493
  139OSM   C10S15170   5.722   0.985   7.242  0.3800  0.3813 -0.6524
  139OSM   H10S15171   5.627   1.040   7.224  0.0521  0.4921  1.2443
  139OSM   H10T15172   5.798   1.048   7.293  0.1450  0.4470 -0.3859
  139OSM   C11S15173   5.697   0.855   7.328 -1.2827  0.2604 -0.5829
  139OSM   H11S15174   5.687   0.896   7.431  2.7031 -0.6938  0.3798
  139OSM   H11T15175   5.786   0.788   7.330 -1.4658 -0.0030  1.6545
  139OSM   C12S15176   5.575   0.767   7.302  0.1577 -0.3501 -0.2648
  139OSM   H12S15177   5.609   0.671   7.257 -1.3670 -1.3655  0.6433
  139OSM   H12T15178   5.501   0.814   7.234 -0.3320  1.3730  1.3730
  139OSM   C13S15179   5.497   0.735   7.428  0.1068  0.3768 -0.3785
  139OSM   H13S15180   5.418   0.665   7.393  0.1779 -1.5187  2.8312
  139OSM   H13T15181   5.449   0.833   7.450 -0.0602  0.3135 -0.4607
  139OSM   C14S15182   5.578   0.667   7.535 -0.4683  0.3322  0.1166
  139OSM   H14S15183   5.656   0.726   7.588 -0.7225 -0.6493  1.6785
  139OSM   H14T15184   5.630   0.582   7.487 -0.5459  0.6484 -0.5248
  139OSM   C15S15185   5.478   0.626   7.646 -0.2436  0.6705 -0.1644
  139OSM   H15S15186   5.532   0.572   7.727 -1.9668 -0.6863  0.1473
  139OSM   H15T15187   5.392   0.561   7.619 -0.0830  1.0435 -1.6559
  139OSM   C16S15188   5.434   0.755   7.724 -0.0586  0.5148  0.2345
  139OSM   H16S15189   5.358   0.814   7.667  1.5360  2.9500  0.4844
  139OSM   H16T15190   5.519   0.823   7.746  1.6721 -1.7380  0.8739
  139OSM   C17S15191   5.364   0.719   7.854  0.3302  0.0056 -0.8859
  139OSM   H17S15192   5.300   0.631   7.831 -0.0951  0.9826 -3.8253
  139OSM   H17T15193   5.287   0.793   7.884 -1.2458 -2.0443  0.3793
  139OSM   C18S15194   5.456   0.690   7.978  0.0643 -0.3032 -0.0584
  139OSM   H18S15195   5.393   0.673   8.067  0.3086  3.0524  0.9003
  139OSM   H18T15196   5.525   0.772   8.008  1.6429 -2.4832  2.8159
  139OSM   H18U15197   5.523   0.607   7.947  1.1236  0.8232 -0.9364
  139OSM    C1F15198   6.580   1.213   6.793 -0.3225  0.5783  0.4567
  139OSM     OF15199   6.598   1.315   6.727  0.1773 -0.0219  0.3824
  139OSM    C2F15200   6.653   1.175   6.919  0.0031 -0.6363  0.5329
  139OSM    H2F15201   6.755   1.142   6.890 -0.0209 -0.9328  0.7771
  139OSM    H2G15202   6.613   1.083   6.968  1.3464 -1.5280  0.0115
  139OSM    C3F15203   6.649   1.300   7.008 -0.7282 -0.2913 -0.4073
  139OSM    H3F15204   6.547   1.344   7.003 -0.8062 -0.5771 -1.6754
  139OSM    H3G15205   6.711   1.380   6.963 -2.7471  0.4638 -1.9727
  139OSM    C4F15206   6.698   1.270   7.153  0.2188  0.0238  0.1528
  139OSM    H4F15207   6.807   1.252   7.155 -0.0995 -2.2224  0.1162
  139OSM    H4G15208   6.663   1.169   7.181 -0.0803 -0.1295 -0.7254
  139OSM    C5F15209   6.652   1.370   7.263 -0.7625  0.3599 -0.3344
  139OSM    H5F15210   6.541   1.367   7.273 -0.6871  2.3614  2.0137
  139OSM    H5G15211   6.687   1.466   7.219  0.2557 -0.4385 -1.3326
  139OSM    C6F15212   6.712   1.323   7.395  0.3009 -0.0650  0.1020
  139OSM    H6F15213   6.823   1.320   7.404  0.2247 -1.0626  0.8401
  139OSM    H6G15214   6.679   1.217   7.393  0.2753 -0.0696  0.7780
  139OSM    C7F15215   6.652   1.388   7.517 -1.1378  0.2837 -0.5940
  139OSM    H7F15216   6.568   1.330   7.560 -0.7696 -0.6555 -1.0946
  139OSM    H7G15217   6.615   1.489   7.490  0.6360  1.1854  0.1113
  139OSM    C8F15218   6.758   1.411   7.628 -0.0652 -0.1142 -0.5932
  139OSM    H8F15219   6.706   1.461   7.713 -0.3267 -2.1107  0.5027
  139OSM    H8G15220   6.831   1.487   7.595 -1.2414  1.9039  1.1742
  139OSM    C9F15221   6.814   1.280   7.670 -0.0831  0.0655  0.0103
  139OSM    H9F15222   6.906   1.256   7.614 -0.7365  0.4568 -1.2784
  139OSM   C10F15223   6.768   1.200   7.771 -0.8077 -0.7362 -0.1158
  139OSM   H10F15224   6.818   1.108   7.804 -1.7367 -1.1505  0.1639
  139OSM   C11F15225   6.649   1.239   7.857 -0.8928  0.1281  0.0202
  139OSM   H11F15226   6.568   1.167   7.830  2.0083 -2.5677 -2.3073
  139OSM   H11G15227   6.604   1.340   7.849 -0.4668  0.5278  2.1288
  139OSM   C12F15228   6.680   1.235   8.007 -0.5075  0.3786 -0.6927
  139OSM   H12F15229   6.587   1.263   8.061 -0.3064 -0.0134 -0.1326
  139OSM   H12G15230   6.763   1.303   8.039 -0.4649 -0.9410  2.2820
  139OSM   C13F15231   6.717   1.091   8.051 -0.4854  0.2314 -0.4457
  139OSM   H13F15232   6.810   1.054   8.004 -0.7406 -1.4394  0.2807
  139OSM   H13G15233   6.637   1.027   8.008  0.0637 -0.3503 -0.6018
  139OSM   C14F15234   6.741   1.068   8.203 -0.2790  0.5356  0.1556
  139OSM   H14F15235   6.654   1.102   8.263 -0.4165 -1.0129  0.8925
  139OSM   H14G15236   6.827   1.135   8.223 -0.9007  1.4479 -0.1766
  139OSM   C15F15237   6.771   0.917   8.234 -0.0769 -0.5882 -0.3742
  139OSM   H15F15238   6.860   0.883   8.176  0.4108  0.0050  0.0129
  139OSM   H15G15239   6.689   0.850   8.202 -0.1025  0.8444 -3.6390
  139OSM   C16F15240   6.802   0.895   8.381  0.0064  0.3362 -0.0658
  139OSM   H16F15241   6.719   0.937   8.443  0.3945  0.9397  0.0583
  139OSM   H16G15242   6.893   0.952   8.409  0.4493 -0.4010  0.0178
  139OSM   C17F15243   6.822   0.749   8.412  0.1350 -0.1298  0.5824
  139OSM   H17F15244   6.868   0.736   8.512  1.3156 -1.2255 -0.0770
  139OSM   H17G15245   6.900   0.696   8.354  0.4164  0.8822  0.0101
  139OSM   C18F15246   6.694   0.657   8.415 -0.0745  0.4671 -0.1294
  139OSM   H18F15247   6.599   0.691   8.463  0.1934  1.6205 -0.3875
  139OSM   H18G15248   6.716   0.561   8.466 -2.2652  0.4508  0.9274
  139OSM   H18H15249   6.669   0.639   8.308  0.8554  0.4412 -0.3484
  140OSM      N15250   2.808   3.205   6.261  0.6252  0.3317 -0.2960
  140OSM    C1515251   2.795   3.163   6.117 -0.6352 -0.7315  0.1169
  140OSM   H15A15252   2.770   3.059   6.113 -1.0382 -0.6090 -0.7132
  140OSM   H15B15253   2.891   3.174   6.068 -1.8129 -1.4358 -2.5190
  140OSM   H15C15254   2.720   3.222   6.065  0.6929  2.0960  1.1956
  140OSM    C1415255   2.719   3.117   6.335  0.1199  0.1606  0.0569
  140OSM   H14A15256   2.726   3.152   6.437 -0.9032  0.1765  0.1369
  140OSM   H14B15257   2.723   3.011   6.315  1.7560  0.0791  0.6770
  140OSM   H14C15258   2.616   3.149   6.319  0.8059  2.3930 -0.2553
  140OSM    C1315259   2.948   3.170   6.307  0.3548  0.3636  0.6740
  140OSM   H13A15260   3.016   3.245   6.269 -1.7985  3.0645  1.8605
  140OSM   H13B15261   2.976   3.075   6.264  4.0728  1.3011  0.6286
  140OSM   H13C15262   2.960   3.168   6.414  1.3255  3.2030  0.6990
  140OSM    C1215263   2.779   3.353   6.277 -0.0455  0.0537 -0.6133
  140OSM   H12A15264   2.849   3.407   6.216  1.5259 -0.9119  0.2858
  140OSM   H12B15265   2.810   3.378   6.378  1.5938  0.7479 -1.2586
  140OSM    C1115266   2.631   3.398   6.253  0.0769 -0.3284  0.7893
  140OSM   H11A15267   2.560   3.329   6.301 -2.5303  1.9447  0.4734
  140OSM   H11B15268   2.615   3.400   6.143  1.0707 -1.4280  0.6115
  140OSM      P15269   2.479   3.561   6.391 -0.0858 -0.0483  0.4995
  140OSM    O1315270   2.466   3.708   6.410  0.0622 -0.0276  0.2206
  140OSM    O1415271   2.356   3.489   6.341  0.4074  0.5392 -0.3019
  140OSM    O1115272   2.516   3.508   6.535  0.1071 -0.4287  0.1147
  140OSM    O1215273   2.612   3.530   6.306 -0.4244 -0.1407 -0.1682
  140OSM    C1S15274   2.510   3.371   6.569 -0.3223  0.7373 -0.1544
  140OSM    H1S15275   2.581   3.307   6.511  0.8401  0.6605  1.2987
  140OSM    H1T15276   2.406   3.335   6.558 -0.3022  1.2253 -2.6149
  140OSM     NF15277   2.574   3.223   6.768 -0.2853  0.2734  0.0322
  140OSM    HNF15278   2.515   3.173   6.831  0.8050 -0.6481  0.3631
  140OSM    C2S15279   2.542   3.355   6.723 -0.2689  0.0864  0.9646
  140OSM    H2S15280   2.634   3.412   6.752 -1.0096  0.9933  1.6085
  140OSM    C3S15281   2.431   3.427   6.812 -0.0738 -0.8562  0.2894
  140OSM    H3S15282   2.333   3.379   6.791 -1.1346 -0.0701  2.9545
  140OSM     O315283   2.414   3.564   6.787 -0.1780  0.3448  0.4216
  140OSM    HO315284   2.480   3.597   6.726 -0.1458  3.0789  1.8067
  140OSM    C4S15285   2.476   3.408   6.951  0.1859 -0.5785 -0.1964
  140OSM    H4S15286   2.577   3.441   6.979  0.1838 -0.1564 -0.6812
  140OSM    C5S15287   2.404   3.353   7.049  0.5539  0.5455 -1.1634
  140OSM    H5S15288   2.299   3.320   7.045  0.6547 -0.0521  0.4014
  140OSM    C6S15289   2.444   3.320   7.192 -0.2768 -0.5899  0.5490
  140OSM    H6S15290   2.443   3.212   7.215  0.9940 -1.0044 -1.2284
  140OSM    H6T15291   2.366   3.350   7.266 -0.7223  1.6497 -0.7163
  140OSM    C7S15292   2.583   3.376   7.235  1.0761  0.1735  0.3098
  140OSM    H7S15293   2.595   3.483   7.205 -1.3225  0.8656  1.5948
  140OSM    H7T15294   2.660   3.320   7.178  1.3128 -0.5731  1.3351
  140OSM    C8S15295   2.595   3.358   7.390  0.5580  0.6981  0.9124
  140OSM    H8S15296   2.595   3.247   7.402  3.5602  0.3053 -1.2747
  140OSM    H8T15297   2.506   3.398   7.441 -1.4163  0.9554 -2.4231
  140OSM    C9S15298   2.728   3.410   7.455 -0.2955  0.4197  1.1424
  140OSM    H9S15299   2.726   3.521   7.443 -1.0391  0.3896  0.9619
  140OSM    H9T15300   2.812   3.362   7.400 -0.0294 -0.1891  2.0502
  140OSM   C10S15301   2.724   3.367   7.601  0.2561 -0.0012  0.3547
  140OSM   H10S15302   2.723   3.257   7.613 -1.4689 -0.0369  0.1726
  140OSM   H10T15303   2.624   3.394   7.641  0.0583 -1.6968  1.0686
  140OSM   C11S15304   2.839   3.411   7.689 -0.1865 -0.2566 -1.4459
  140OSM   H11S15305   2.836   3.522   7.686  1.4059 -0.0462  0.9602
  140OSM   H11T15306   2.935   3.368   7.652  0.3376 -1.5757  1.1619
  140OSM   C12S15307   2.826   3.372   7.840  0.0440  0.4275  0.1750
  140OSM   H12S15308   2.827   3.261   7.838  1.5646  0.4359 -0.6153
  140OSM   H12T15309   2.724   3.410   7.866 -0.0907  1.7842 -2.1303
  140OSM   C13S15310   2.937   3.438   7.928  0.6056  0.4165 -0.3704
  140OSM   H13S15311   2.920   3.546   7.911  0.4681  0.3598 -0.6043
  140OSM   H13T15312   3.038   3.424   7.883 -0.1446  0.5309 -2.1918
  140OSM   C14S15313   2.925   3.399   8.073  0.3607  0.9976  0.2231
  140OSM   H14S15314   2.927   3.288   8.063  4.1641  1.0626 -1.0515
  140OSM   H14T15315   2.825   3.435   8.105 -0.0470  0.1429 -0.0451
  140OSM   C15S15316   3.032   3.463   8.155 -0.8268 -0.2127  0.4515
  140OSM   H15S15317   3.064   3.566   8.128  2.1321 -0.5230  2.2497
  140OSM   H15T15318   3.128   3.416   8.125  0.5207  1.1451  2.3111
  140OSM   C16S15319   3.008   3.449   8.307  0.1384  0.3652  0.5030
  140OSM   H16S15320   2.974   3.347   8.334  0.1915  0.5512  1.2712
  140OSM   H16T15321   2.933   3.524   8.338  0.4369  1.7505 -1.8525
  140OSM   C17S15322   3.131   3.487   8.388  0.1307  0.4421 -0.6020
  140OSM   H17S15323   3.184   3.570   8.338  0.6391  1.8556  2.0777
  140OSM   H17T15324   3.207   3.406   8.398 -0.9510 -0.9414 -2.7922
  140OSM   C18S15325   3.100   3.534   8.527  0.3392  0.3304 -0.1646
  140OSM   H18S15326   3.200   3.552   8.572  1.1964 -2.9714 -0.4825
  140OSM   H18T15327   3.035   3.458   8.577  1.0130 -1.7733 -2.2865
  140OSM   H18U15328   3.040   3.625   8.511  2.3089  1.5818 -0.7288
  140OSM    C1F15329   2.677   3.154   6.713 -0.2448 -0.5963 -0.5974
  140OSM     OF15330   2.765   3.216   6.652 -0.0445  0.3786  0.2339
  140OSM    C2F15331   2.675   3.011   6.726 -0.0939 -0.3963 -0.5017
  140OSM    H2F15332   2.695   2.967   6.626 -0.1895  0.0193 -0.7021
  140OSM    H2G15333   2.574   2.978   6.758  0.3458 -2.2014 -0.8429
  140OSM    C3F15334   2.776   2.972   6.830 -0.1152  0.0476 -1.1139
  140OSM    H3F15335   2.882   2.979   6.796 -0.2855 -0.6334 -1.8049
  140OSM    H3G15336   2.759   2.863   6.842 -0.6161  0.3606  1.6924
  140OSM    C4F15337   2.749   3.024   6.970 -0.1429 -0.2238 -0.2549
  140OSM    H4F15338   2.639   3.042   6.973 -0.2221 -0.6438 -0.4991
  140OSM    H4G15339   2.804   3.121   6.967 -0.9979  0.2600 -1.1921
  140OSM    C5F15340   2.799   2.939   7.087 -0.0634  0.2860  0.6779
  140OSM    H5F15341   2.903   2.906   7.062 -0.1271 -0.1242  0.9500
  140OSM    H5G15342   2.748   2.841   7.090  0.6365 -0.1989 -1.4358
  140OSM    C6F15343   2.793   3.025   7.212  0.5338  0.6019 -0.8433
  140OSM    H6F15344   2.692   3.073   7.207 -0.3221 -1.1109 -0.6755
  140OSM    H6G15345   2.867   3.108   7.207 -0.1904  1.3192 -0.1005
  140OSM    C7F15346   2.814   2.949   7.344 -0.1778  0.1187  0.0531
  140OSM    H7F15347   2.922   2.924   7.353  0.0765  1.6447  1.7604
  140OSM    H7G15348   2.754   2.855   7.337  1.9563 -1.2130 -1.7898
  140OSM    C8F15349   2.771   3.023   7.474 -0.2451 -0.4081  0.2169
  140OSM    H8F15350   2.663   3.049   7.475 -0.3668 -0.9090  0.5551
  140OSM    H8G15351   2.824   3.119   7.491 -0.8753 -0.0776  0.3217
  140OSM    C9F15352   2.791   2.935   7.591 -0.2322  0.4398 -0.2581
  140OSM    H9F15353   2.730   2.844   7.581  0.9033 -0.3748 -0.0622
  140OSM   C10F15354   2.884   2.950   7.686 -0.6869  0.6088  0.1415
  140OSM   H10F15355   2.884   2.875   7.767  0.3540 -1.1914 -1.4256
  140OSM   C11F15356   2.988   3.056   7.693  0.2346 -0.7721  0.1770
  140OSM   H11F15357   2.974   3.118   7.784  4.3046  1.2833 -0.4195
  140OSM   H11G15358   2.990   3.115   7.599  2.8109 -0.5583  0.3188
  140OSM   C12F15359   3.128   2.994   7.701  1.0711 -0.0788 -0.8751
  140OSM   H12F15360   3.197   3.076   7.670  1.0374 -1.0258 -3.7576
  140OSM   H12G15361   3.139   2.920   7.619  0.0576 -1.6936  0.4078
  140OSM   C13F15362   3.165   2.931   7.838 -0.0495  0.2223  0.4125
  140OSM   H13F15363   3.263   2.878   7.844  1.4990  3.0020  1.9751
  140OSM   H13G15364   3.084   2.856   7.849 -1.4408  0.8878 -3.6024
  140OSM   C14F15365   3.163   3.028   7.957  0.1175  0.0889 -0.2806
  140OSM   H14F15366   3.057   3.043   7.987 -0.0375  0.7320 -1.1264
  140OSM   H14G15367   3.201   3.121   7.911  0.3795  1.6152  2.8049
  140OSM   C15F15368   3.253   2.996   8.075 -0.1597 -0.3367 -0.4539
  140OSM   H15F15369   3.356   2.968   8.043  1.2179  1.3339  2.1891
  140OSM   H15G15370   3.210   2.912   8.132  0.0573 -0.8823 -1.0768
  140OSM   C16F15371   3.276   3.122   8.167 -0.2054  0.6581 -0.1923
  140OSM   H16F15372   3.181   3.160   8.210 -0.3728  0.3692 -0.3018
  140OSM   H16G15373   3.311   3.206   8.105 -1.1800  1.0140 -0.2790
  140OSM   C17F15374   3.382   3.109   8.272 -0.1100 -0.4882 -0.9197
  140OSM   H17F15375   3.393   3.205   8.328  0.0382 -0.4409 -1.0303
  140OSM   H17G15376   3.477   3.100   8.215  1.2810 -1.6394  1.4110
  140OSM   C18F15377   3.373   2.983   8.359  0.3408 -0.2582  0.8543
  140OSM   H18F15378   3.377   2.895   8.291 -1.1622  1.0599 -1.0380
  140OSM   H18G15379   3.277   2.983   8.415  0.0427  0.3216  0.3516
  140OSM   H18H15380   3.450   2.984   8.440  1.5549  1.5557 -0.2450
  141OSM      N15381   6.439   6.718   6.483 -0.1929 -0.8388  0.5815
  141OSM    C1515382   6.568   6.693   6.415 -0.1738 -0.2342 -0.1532
  141OSM   H15A15383   6.566   6.605   6.352 -0.9441 -0.2243 -0.1528
  141OSM   H15B15384   6.638   6.663   6.491 -1.2756 -5.6727 -0.8239
  141OSM   H15C15385   6.598   6.783   6.364  2.1215  0.0497  1.5281
  141OSM    C1415386   6.404   6.610   6.580 -0.1726 -0.0671 -0.6197
  141OSM   H14A15387   6.398   6.516   6.527  2.8300 -0.5495 -0.2705
  141OSM   H14B15388   6.305   6.628   6.620 -1.1337 -0.1290 -2.8306
  141OSM   H14C15389   6.473   6.601   6.662 -1.2328 -0.8362  0.2110
  141OSM    C1315390   6.446   6.850   6.562 -0.2855 -0.3899 -0.7131
  141OSM   H13A15391   6.459   6.941   6.505  2.0631 -1.3955 -1.9459
  141OSM   H13B15392   6.529   6.843   6.632 -0.2745 -1.9344 -0.8416
  141OSM   H13C15393   6.366   6.870   6.631  0.3483  0.2195 -0.1304
  141OSM    C1215394   6.329   6.731   6.378  0.2833 -0.1315 -0.1566
  141OSM   H12A15395   6.337   6.635   6.330  1.4420 -0.8564  1.3849
  141OSM   H12B15396   6.352   6.805   6.303 -0.1005  1.7706  1.5287
  141OSM    C1115397   6.180   6.760   6.421 -0.3189  0.5605  0.3151
  141OSM   H11A15398   6.118   6.753   6.329 -0.3539 -1.1866  0.4409
  141OSM   H11B15399   6.184   6.863   6.462 -0.4565  0.3253  0.9438
  141OSM      P15400   6.074   6.530   6.470  0.2307  0.0030  0.0033
  141OSM    O1315401   5.982   6.551   6.354 -0.1315 -0.0259 -0.1928
  141OSM    O1415402   6.180   6.436   6.453  0.4237 -0.1491 -0.0869
  141OSM    O1115403   5.995   6.487   6.600 -0.5865  0.5298  0.0188
  141OSM    O1215404   6.141   6.663   6.521  0.1959  0.5122  0.6350
  141OSM    C1S15405   6.047   6.481   6.731 -0.2138  0.0086  0.1417
  141OSM    H1S15406   5.995   6.558   6.791  0.1219  2.5869 -2.6257
  141OSM    H1T15407   6.153   6.516   6.732 -1.0285  2.7682 -0.7381
  141OSM     NF15408   6.077   6.339   6.947  0.8210 -0.2769  0.0645
  141OSM    HNF15409   6.148   6.272   6.969 -0.6009 -1.7381  0.3715
  141OSM    C2S15410   6.015   6.347   6.809  0.6061 -0.4486 -0.5650
  141OSM    H2S15411   5.905   6.345   6.827  0.9822 -0.1803  2.3090
  141OSM    C3S15412   6.048   6.227   6.720  0.0150 -0.3143  0.5280
  141OSM    H3S15413   6.150   6.239   6.678  0.4419  1.0805  1.8849
  141OSM     O315414   5.957   6.217   6.606  0.6888 -0.7132  1.2318
  141OSM    HO315415   5.935   6.307   6.582  0.7684 -0.3250  2.5680
  141OSM    C4S15416   6.048   6.094   6.786  0.1434  0.3458  1.0045
  141OSM    H4S15417   6.143   6.040   6.777 -1.0745 -1.7131 -0.6600
  141OSM    C5S15418   5.939   6.020   6.816 -0.0561 -0.5906  0.0419
  141OSM    H5S15419   5.839   6.061   6.793  0.6052 -0.2172 -2.4496
  141OSM    C6S15420   5.926   5.883   6.872 -0.9911  0.6494 -0.5709
  141OSM    H6S15421   6.026   5.836   6.871 -1.7076 -0.9285 -0.6994
  141OSM    H6T15422   5.868   5.813   6.808 -0.4240  0.1555 -0.5560
  141OSM    C7S15423   5.878   5.865   7.015  0.0161 -0.0007  0.4501
  141OSM    H7S15424   5.880   5.757   7.041 -0.4156 -0.3247 -0.7880
  141OSM    H7T15425   5.773   5.893   7.036  0.5685  1.5715  1.2439
  141OSM    C8S15426   5.968   5.948   7.112  0.2473  0.6907 -0.4997
  141OSM    H8S15427   5.959   6.053   7.079  1.0813  0.0127 -3.1312
  141OSM    H8T15428   6.073   5.920   7.087  0.5315  0.2365  1.0996
  141OSM    C9S15429   5.931   5.916   7.261  0.0756 -0.0297  0.7307
  141OSM    H9S15430   5.947   5.807   7.274  0.6247 -0.0478 -0.0279
  141OSM    H9T15431   5.828   5.945   7.291  0.6952  1.5106  1.4921
  141OSM   C10S15432   6.021   5.989   7.358  0.6410 -0.2754 -0.4192
  141OSM   H10S15433   6.014   6.099   7.338  1.3573 -0.0881  0.3043
  141OSM   H10T15434   6.124   5.954   7.335  0.7672  0.3952 -0.9393
  141OSM   C11S15435   5.989   5.971   7.507 -0.2200 -0.2661  0.4941
  141OSM   H11S15436   5.998   5.863   7.529 -0.3395 -0.3123  0.3166
  141OSM   H11T15437   5.881   5.995   7.520 -0.4081 -0.1652 -1.1261
  141OSM   C12S15438   6.076   6.063   7.594 -0.6646 -0.8650  0.0605
  141OSM   H12S15439   6.065   6.172   7.576 -0.4454 -0.7832  0.4123
  141OSM   H12T15440   6.182   6.048   7.566 -0.1203 -1.0528  2.0588
  141OSM   C13S15441   6.065   6.023   7.744  0.0915  0.4850  0.0020
  141OSM   H13S15442   6.067   5.914   7.763 -1.4343  0.6502  1.3412
  141OSM   H13T15443   5.961   6.043   7.779  0.5117  1.8549  0.5369
  141OSM   C14S15444   6.177   6.077   7.840  0.9389  0.5523  0.5475
  141OSM   H14S15445   6.190   6.187   7.831 -0.2927  0.6271 -0.7489
  141OSM   H14T15446   6.272   6.040   7.795  0.6240  0.4202 -0.0281
  141OSM   C15S15447   6.153   6.036   7.983 -0.9332 -0.2130 -0.1474
  141OSM   H15S15448   6.111   5.934   7.986 -1.5189  0.0535  2.3811
  141OSM   H15T15449   6.083   6.110   8.027 -0.6504 -0.5617  0.8956
  141OSM   C16S15450   6.282   6.045   8.063 -0.4256  1.2608  1.2653
  141OSM   H16S15451   6.321   6.149   8.066  1.1804  0.7128  0.6837
  141OSM   H16T15452   6.351   5.980   8.004 -0.3184  1.2906  1.3576
  141OSM   C17S15453   6.280   5.987   8.206  0.1189  0.2497  0.0516
  141OSM   H17S15454   6.250   5.880   8.201 -0.8278  0.5378 -0.5478
  141OSM   H17T15455   6.200   6.041   8.261 -0.7633 -2.6976  1.8568
  141OSM   C18S15456   6.420   6.009   8.274  0.0560  0.1513 -0.0167
  141OSM   H18S15457   6.463   6.110   8.256 -2.1631  1.1900  0.1526
  141OSM   H18T15458   6.500   5.946   8.231  1.0981  0.6936  1.0574
  141OSM   H18U15459   6.413   5.985   8.382 -1.4689 -1.7261 -0.4779
  141OSM    C1F15460   6.055   6.428   7.039  0.2575 -0.1585 -0.7282
  141OSM     OF15461   5.977   6.524   7.026 -0.2947  0.0031  0.1796
  141OSM    C2F15462   6.126   6.405   7.170 -0.0014 -0.3294 -0.2599
  141OSM    H2F15463   6.222   6.459   7.158  0.0700 -0.8382 -2.2813
  141OSM    H2G15464   6.129   6.295   7.182  0.6102 -0.3910 -0.9781
  141OSM    C3F15465   6.039   6.464   7.287 -0.3428  0.3653  0.0976
  141OSM    H3F15466   5.948   6.400   7.282 -0.4200  0.5071 -0.4086
  141OSM    H3G15467   6.003   6.569   7.277  1.1197  0.8055 -0.8302
  141OSM    C4F15468   6.125   6.453   7.417  0.4022  0.6545 -0.3390
  141OSM    H4F15469   6.226   6.495   7.398  0.4293  0.3364 -0.9225
  141OSM    H4G15470   6.143   6.347   7.446 -0.8433  0.6386  0.4585
  141OSM    C5F15471   6.054   6.514   7.544 -0.1309  0.1769 -0.4361
  141OSM    H5F15472   5.958   6.460   7.558 -0.4313  0.6792 -0.5565
  141OSM    H5G15473   6.041   6.623   7.528 -0.7839 -0.0501 -1.5825
  141OSM    C6F15474   6.138   6.491   7.672  0.0206 -0.2885  0.2876
  141OSM    H6F15475   6.231   6.551   7.657  0.3809 -0.6496  1.0037
  141OSM    H6G15476   6.178   6.389   7.692  1.7755  0.5759  1.4490
  141OSM    C7F15477   6.072   6.563   7.788 -0.8885  0.1842  0.5886
  141OSM    H7F15478   5.980   6.502   7.799 -1.3647  0.6578 -0.6316
  141OSM    H7G15479   6.033   6.666   7.772 -2.6414  0.0891  3.5155
  141OSM    C8F15480   6.163   6.583   7.920 -0.0833 -0.2161 -0.4322
  141OSM    H8F15481   6.248   6.643   7.881 -0.2345  0.7189  0.6088
  141OSM    H8G15482   6.187   6.478   7.947  3.2284  0.8895  1.4932
  141OSM    C9F15483   6.095   6.658   8.033 -0.0160  0.0180  0.5071
  141OSM    H9F15484   6.014   6.727   8.005  0.8300  1.1720  0.8578
  141OSM   C10F15485   6.114   6.628   8.159 -0.5282  1.2154 -0.0620
  141OSM   H10F15486   6.061   6.675   8.243 -0.9190 -0.8541  0.9084
  141OSM   C11F15487   6.210   6.518   8.211  0.4115  0.2417 -0.0553
  141OSM   H11F15488   6.309   6.540   8.166 -1.3231  2.3623 -3.2299
  141OSM   H11G15489   6.165   6.422   8.177 -0.9370  0.6556  0.5011
  141OSM   C12F15490   6.198   6.525   8.361 -0.2430  0.5248  0.4117
  141OSM   H12F15491   6.108   6.567   8.411  0.8665 -0.1351  3.1585
  141OSM   H12G15492   6.266   6.610   8.385 -1.4059  1.4744  0.4759
  141OSM   C13F15493   6.253   6.402   8.426 -0.4000  0.1878 -1.0652
  141OSM   H13F15494   6.362   6.417   8.416  0.0502  0.1656  2.5515
  141OSM   H13G15495   6.217   6.313   8.369  0.3609 -0.0364 -1.2030
  141OSM   C14F15496   6.220   6.407   8.572  0.3493  0.4371  0.0261
  141OSM   H14F15497   6.112   6.426   8.590  0.3157  2.5606 -1.9955
  141OSM   H14G15498   6.271   6.494   8.618 -1.8524  0.6407  2.3246
  141OSM   C15F15499   6.259   6.283   8.659  0.1849 -0.7135  0.3057
  141OSM   H15F15500   6.236   6.305   8.766  0.9221 -0.2292  0.3720
  141OSM   H15G15501   6.368   6.261   8.650 -0.1215 -1.8233 -1.1454
  141OSM   C16F15502   6.189   6.154   8.611 -0.1346  1.2644 -0.4381
  141OSM   H16F15503   6.190   6.147   8.500 -3.3426 -4.1025 -0.4872
  141OSM   H16G15504   6.081   6.160   8.640 -0.8769  0.6284 -2.8508
  141OSM   C17F15505   6.249   6.021   8.675  0.2352 -0.4793 -0.4774
  141OSM   H17F15506   6.359   6.020   8.659  0.3940  2.3945 -0.1971
  141OSM   H17G15507   6.223   5.928   8.621  1.5158 -0.0498 -1.9106
  141OSM   C18F15508   6.233   6.008   8.827  0.6715 -0.3543 -0.5661
  141OSM   H18F15509   6.132   6.041   8.860  1.4936  0.5266  1.2108
  141OSM   H18G15510   6.302   6.068   8.890 -1.3737  0.6403  0.8405
  141OSM   H18H15511   6.254   5.901   8.844  1.0613 -0.3383 -0.9375
  142OSM      N15512   0.393   5.546   5.980 -0.1471 -0.1648  0.4354
  142OSM    C1515513   0.423   5.408   6.020 -0.2102 -0.5434 -0.5467
  142OSM   H15A15514   0.468   5.358   5.936  1.5244  1.8307 -1.1070
  142OSM   H15B15515   0.335   5.354   6.054  0.5842 -0.3293  1.9980
  142OSM   H15C15516   0.496   5.405   6.099  0.3325  5.8066 -0.3087
  142OSM    C1415517   0.302   5.557   5.865 -1.2765  0.3078  0.1239
  142OSM   H14A15518   0.353   5.524   5.776 -0.8095  1.2801  0.0167
  142OSM   H14B15519   0.278   5.658   5.837  1.8418  1.6591  1.8436
  142OSM   H14C15520   0.206   5.507   5.868 -0.8669 -0.4806  0.4722
  142OSM    C1315521   0.323   5.615   6.096  0.7460  0.6165 -0.3837
  142OSM   H13A15522   0.282   5.711   6.066 -0.8167  0.6871  1.7501
  142OSM   H13B15523   0.385   5.625   6.184  1.5991 -0.1077 -0.8913
  142OSM   H13C15524   0.237   5.560   6.132  0.8751  1.8823  2.0939
  142OSM    C1215525   0.520   5.628   5.951  0.0872  0.2331 -0.4135
  142OSM   H12A15526   0.496   5.734   5.952 -1.9789 -0.0933 -3.1297
  142OSM   H12B15527   0.561   5.602   5.855  0.5212 -1.3932  0.1911
  142OSM    C1115528   0.641   5.623   6.051  0.2978 -0.2958  0.0162
  142OSM   H11A15529   0.715   5.686   5.997 -0.3429  0.9720  0.5765
  142OSM   H11B15530   0.685   5.521   6.053  0.3535 -0.3156 -1.2509
  142OSM      P15531   0.720   5.669   6.289  0.3835  0.1310  0.1808
  142OSM    O1315532   0.725   5.536   6.350 -0.0989  0.6864 -0.2094
  142OSM    O1415533   0.846   5.723   6.236 -0.2545 -0.1091  0.2913
  142OSM    O1115534   0.660   5.766   6.400 -0.2176 -0.3527 -0.2836
  142OSM    O1215535   0.608   5.682   6.172 -0.1095  0.2105 -0.2865
  142OSM    C1S15536   0.674   5.904   6.389  0.0308 -0.1553 -0.6634
  142OSM    H1S15537   0.601   5.948   6.317 -1.1074  1.2809  1.2564
  142OSM    H1T15538   0.775   5.941   6.361 -0.8962  4.6127  1.2954
  142OSM     NF15539   0.634   6.124   6.492  0.1455 -0.2996  0.4077
  142OSM    HNF15540   0.707   6.177   6.534  0.9096 -1.2024  0.2528
  142OSM    C2S15541   0.630   5.980   6.514 -0.1582  0.0824 -0.1710
  142OSM    H2S15542   0.529   5.945   6.544 -0.1349 -1.4650 -1.7335
  142OSM    C3S15543   0.719   5.930   6.635 -0.4049  0.3702  0.4275
  142OSM    H3S15544   0.825   5.946   6.605 -0.8119  0.9169 -0.8103
  142OSM     O315545   0.713   5.789   6.652 -0.3145 -0.3346 -0.8411
  142OSM    HO315546   0.675   5.748   6.574 -2.6213  0.1467 -0.0448
  142OSM    C4S15547   0.696   6.001   6.765  0.0187 -0.4637 -0.3811
  142OSM    H4S15548   0.752   6.095   6.776 -1.3698  0.2836  0.5223
  142OSM    C5S15549   0.615   5.964   6.868  0.5198 -0.1605 -0.9090
  142OSM    H5S15550   0.559   5.871   6.852 -1.0074  0.3108  1.3164
  142OSM    C6S15551   0.579   6.029   7.000  0.1681  0.2882  0.1871
  142OSM    H6S15552   0.589   5.948   7.077 -0.6379 -0.8056 -0.8126
  142OSM    H6T15553   0.472   6.059   6.992  0.9642  3.1664 -0.4371
  142OSM    C7S15554   0.656   6.157   7.046 -0.1056  0.0612 -1.0537
  142OSM    H7S15555   0.600   6.188   7.137  3.8468 -1.7884  2.3648
  142OSM    H7T15556   0.655   6.230   6.963  2.4680 -0.1705 -1.3587
  142OSM    C8S15557   0.801   6.132   7.083  0.6007 -0.6115 -0.5927
  142OSM    H8S15558   0.860   6.129   6.988  0.6070  0.0687 -0.6168
  142OSM    H8T15559   0.800   6.032   7.130 -0.7518 -0.4064 -0.1425
  142OSM    C9S15560   0.853   6.241   7.174  0.4929  0.1267 -0.7313
  142OSM    H9S15561   0.845   6.342   7.127  0.9478  0.4022 -0.2285
  142OSM    H9T15562   0.962   6.220   7.183  0.5858  1.3533  1.8272
  142OSM   C10S15563   0.782   6.246   7.310  0.8100  0.2690 -0.5116
  142OSM   H10S15564   0.754   6.152   7.362 -1.4059  0.6862 -0.8106
  142OSM   H10T15565   0.681   6.290   7.298  0.3077 -0.9642 -1.0403
  142OSM   C11S15566   0.854   6.344   7.415  0.0673 -0.6850  0.4915
  142OSM   H11S15567   0.871   6.443   7.368 -1.2543 -1.2372 -1.2467
  142OSM   H11T15568   0.949   6.300   7.453 -1.3791 -1.7345  3.1698
  142OSM   C12S15569   0.758   6.365   7.533 -0.2156  0.1943 -0.6540
  142OSM   H12S15570   0.651   6.375   7.508 -0.1909 -0.0076 -0.8485
  142OSM   H12T15571   0.790   6.450   7.597  0.6729 -1.2399  0.9130
  142OSM   C13S15572   0.771   6.247   7.631 -0.2661  1.0551  0.5734
  142OSM   H13S15573   0.874   6.206   7.644 -0.8044 -1.4541 -2.0939
  142OSM   H13T15574   0.705   6.166   7.593  0.2909  1.2842 -0.9545
  142OSM   C14S15575   0.713   6.292   7.767  0.4669  0.3360  0.0583
  142OSM   H14S15576   0.616   6.342   7.747 -0.0052  0.9387  3.2485
  142OSM   H14T15577   0.772   6.370   7.820 -0.0857 -0.2962  1.6802
  142OSM   C15S15578   0.696   6.180   7.869 -0.2769  0.0369 -0.4069
  142OSM   H15S15579   0.793   6.127   7.883  0.8920  1.8218 -1.3133
  142OSM   H15T15580   0.630   6.101   7.825  0.9747 -0.9670 -0.5492
  142OSM   C16S15581   0.651   6.223   8.002  0.2673 -0.1214 -0.0443
  142OSM   H16S15582   0.630   6.141   8.074  0.4513  1.3750  1.7857
  142OSM   H16T15583   0.557   6.281   7.988  0.0661 -0.6639 -0.9968
  142OSM   C17S15584   0.742   6.314   8.072  0.0164 -0.1019 -0.1803
  142OSM   H17S15585   0.736   6.415   8.027 -0.2233 -1.0229 -2.2990
  142OSM   H17T15586   0.847   6.287   8.048  0.1643  0.3964 -0.1057
  142OSM   C18S15587   0.713   6.319   8.225  0.0979 -0.6166 -0.0004
  142OSM   H18S15588   0.765   6.409   8.263 -0.5140 -0.5645  0.7576
  142OSM   H18T15589   0.761   6.236   8.283 -0.6646  0.6410  2.5847
  142OSM   H18U15590   0.608   6.333   8.259  0.3619 -1.6840  1.3644
  142OSM    C1F15591   0.540   6.191   6.431 -0.1245  0.0821 -0.0324
  142OSM     OF15592   0.433   6.137   6.396 -0.4315  0.1718  0.2338
  142OSM    C2F15593   0.569   6.337   6.403 -0.0887  0.5296 -0.1551
  142OSM    H2F15594   0.567   6.351   6.293  1.4318 -1.9102 -0.5767
  142OSM    H2G15595   0.676   6.350   6.432 -0.1395  0.7628 -0.0726
  142OSM    C3F15596   0.488   6.446   6.485 -0.1724 -0.1703 -0.1246
  142OSM    H3F15597   0.381   6.426   6.462  0.2997 -2.7737 -0.3373
  142OSM    H3G15598   0.509   6.553   6.464  1.0975 -0.7976 -2.3280
  142OSM    C4F15599   0.503   6.432   6.639 -0.9868 -0.2810 -0.1167
  142OSM    H4F15600   0.607   6.456   6.668 -1.3867 -0.0534  1.1664
  142OSM    H4G15601   0.479   6.325   6.661 -0.2446 -0.6374 -0.9319
  142OSM    C5F15602   0.410   6.519   6.716 -0.1217 -0.7645  0.5731
  142OSM    H5F15603   0.307   6.495   6.681 -0.5548  1.8038 -0.0483
  142OSM    H5G15604   0.438   6.621   6.684  0.1978 -1.8564 -3.0513
  142OSM    C6F15605   0.430   6.512   6.866 -0.1861  0.3060  0.3756
  142OSM    H6F15606   0.539   6.530   6.878  0.3425 -2.1064 -0.2627
  142OSM    H6G15607   0.402   6.409   6.897 -0.1040 -0.1785 -1.1018
  142OSM    C7F15608   0.342   6.611   6.941 -0.5056 -0.7688  0.2770
  142OSM    H7F15609   0.237   6.574   6.948 -0.7759  0.0789  0.9632
  142OSM    H7G15610   0.361   6.709   6.893 -0.5788 -0.4081  0.9619
  142OSM    C8F15611   0.384   6.623   7.087  0.0124 -0.8630 -0.0416
  142OSM    H8F15612   0.494   6.606   7.092 -0.0616 -1.0703  1.8092
  142OSM    H8G15613   0.351   6.531   7.140  1.3937 -0.8889  0.8500
  142OSM    C9F15614   0.340   6.747   7.160 -0.1189  0.0474 -0.1590
  142OSM    H9F15615   0.329   6.840   7.103  0.5327 -0.5938 -1.3634
  142OSM   C10F15616   0.306   6.761   7.289 -0.1200 -0.1164  0.2437
  142OSM   H10F15617   0.291   6.862   7.329  0.1455 -0.1453  0.4260
  142OSM   C11F15618   0.301   6.661   7.402  0.1326 -0.1847  0.4455
  142OSM   H11F15619   0.376   6.579   7.395  1.9770  1.2703  2.0763
  142OSM   H11G15620   0.202   6.611   7.408 -0.2713  0.7563  2.4140
  142OSM   C12F15621   0.333   6.742   7.530  0.5827  0.4385 -0.6117
  142OSM   H12F15622   0.243   6.807   7.536  0.2019  0.1147 -2.3142
  142OSM   H12G15623   0.415   6.817   7.530  2.7834 -1.7722  1.5204
  142OSM   C13F15624   0.358   6.655   7.652 -0.3259 -0.8466 -0.3186
  142OSM   H13F15625   0.467   6.638   7.656  0.2994  2.3222 -1.3607
  142OSM   H13G15626   0.295   6.564   7.658 -1.9857  0.0918 -2.2289
  142OSM   C14F15627   0.324   6.735   7.777 -0.4516 -0.5324  0.0018
  142OSM   H14F15628   0.216   6.756   7.763  0.2424  2.9405 -1.2636
  142OSM   H14G15629   0.376   6.834   7.781 -0.1602 -0.5619 -2.1349
  142OSM   C15F15630   0.352   6.656   7.908 -0.6823  0.3504  0.3280
  142OSM   H15F15631   0.453   6.610   7.907 -0.2560  1.2561  0.6574
  142OSM   H15G15632   0.269   6.582   7.919 -0.7582  0.5467  1.1081
  142OSM   C16F15633   0.360   6.738   8.036  0.3708 -0.1933  0.2996
  142OSM   H16F15634   0.265   6.796   8.037  1.7201  2.2289 -1.3022
  142OSM   H16G15635   0.451   6.801   8.028 -0.0185  0.3883  0.3735
  142OSM   C17F15636   0.375   6.657   8.164 -0.3183  0.0864  0.3174
  142OSM   H17F15637   0.311   6.568   8.142  1.4017 -1.0806 -0.1457
  142OSM   H17G15638   0.322   6.704   8.249 -0.0565 -0.4355  0.7741
  142OSM   C18F15639   0.521   6.623   8.201  0.3244  1.1188  0.1167
  142OSM   H18F15640   0.580   6.572   8.122  1.0312  0.6357  0.9321
  142OSM   H18G15641   0.529   6.556   8.289 -0.9047 -0.3224 -0.8272
  142OSM   H18H15642   0.565   6.724   8.220 -1.0803  1.7818 -0.0325
  143OSM      N15643   1.505   3.390   6.428 -0.2944  0.6395 -0.2909
  143OSM    C1515644   1.450   3.527   6.477  0.0398  0.3498 -0.1635
  143OSM   H15A15645   1.345   3.511   6.500  0.4982 -0.8841  1.2833
  143OSM   H15B15646   1.456   3.601   6.399  0.6677 -1.6928 -2.1634
  143OSM   H15C15647   1.501   3.559   6.567  1.8043  1.5781 -1.5300
  143OSM    C1415648   1.426   3.345   6.317 -0.0475  0.4365  0.0118
  143OSM   H14A15649   1.470   3.250   6.291  0.9391  0.5251  1.2709
  143OSM   H14B15650   1.437   3.413   6.234  1.3106  0.9360  0.5753
  143OSM   H14C15651   1.329   3.303   6.340  0.4984 -1.7861 -1.4141
  143OSM    C1315652   1.650   3.418   6.388  0.1501 -0.3607  0.1045
  143OSM   H13A15653   1.710   3.332   6.364  1.1984  0.0463  1.1731
  143OSM   H13B15654   1.706   3.443   6.477 -0.7426  0.1507  0.5439
  143OSM   H13C15655   1.665   3.495   6.314  0.0474  0.5765  1.0319
  143OSM    C1215656   1.509   3.285   6.539 -0.3958  0.6356 -0.4001
  143OSM   H12A15657   1.567   3.324   6.622  1.5204 -1.3311 -0.7377
  143OSM   H12B15658   1.566   3.199   6.508 -0.2768 -0.3150  2.1983
  143OSM    C1115659   1.378   3.220   6.592 -0.3733  0.0658  0.3198
  143OSM   H11A15660   1.308   3.300   6.623  0.7473  0.6857  1.3119
  143OSM   H11B15661   1.394   3.163   6.686 -1.3616  0.5473  0.7920
  143OSM      P15662   1.349   2.999   6.441  0.0234  0.0387 -0.0355
  143OSM    O1315663   1.306   2.987   6.304  0.2395 -0.5149  0.2429
  143OSM    O1415664   1.491   2.973   6.469  0.3950 -0.3551  0.0886
  143OSM    O1115665   1.272   2.889   6.522 -0.3490 -0.5382 -0.2121
  143OSM    O1215666   1.308   3.142   6.488  0.7076 -0.3200 -0.3314
  143OSM    C1S15667   1.211   2.925   6.645 -0.3661 -0.3655 -0.6047
  143OSM    H1S15668   1.120   2.990   6.644 -0.3783 -0.1905  2.0832
  143OSM    H1T15669   1.280   2.977   6.715 -0.2781  1.5949 -2.0555
  143OSM     NF15670   1.093   2.816   6.832  0.5198  0.7771 -0.3616
  143OSM    HNF15671   1.142   2.832   6.918  0.4037 -0.1126 -0.1085
  143OSM    C2S15672   1.170   2.791   6.714 -0.3062 -0.1076  0.5516
  143OSM    H2S15673   1.118   2.720   6.645  0.5496  1.5684 -1.9654
  143OSM    C3S15674   1.306   2.720   6.754 -0.1457 -0.0040  0.3243
  143OSM    H3S15675   1.360   2.796   6.814 -0.1862  0.8642 -0.6932
  143OSM     O315676   1.378   2.681   6.635 -0.6909 -0.1971  0.4468
  143OSM    HO315677   1.370   2.751   6.570  0.8657  0.4957  0.9695
  143OSM    C4S15678   1.283   2.590   6.823  0.1448 -0.2265 -0.4576
  143OSM    H4S15679   1.232   2.514   6.762  1.5345 -2.7404  1.3236
  143OSM    C5S15680   1.312   2.565   6.955  0.3261  0.0779  0.0105
  143OSM    H5S15681   1.341   2.653   7.013 -1.7905  1.2770 -0.6419
  143OSM    C6S15682   1.276   2.448   7.037 -0.2379  0.2142  0.2558
  143OSM    H6S15683   1.229   2.496   7.126  1.6341  3.3583 -0.2829
  143OSM    H6T15684   1.366   2.403   7.085 -0.8030 -0.3026  0.8591
  143OSM    C7S15685   1.191   2.331   6.983 -0.2443 -0.4606  0.0398
  143OSM    H7S15686   1.241   2.293   6.892 -0.1043 -0.0344 -0.0648
  143OSM    H7T15687   1.092   2.372   6.953 -0.0975  1.9880  2.3833
  143OSM    C8S15688   1.167   2.224   7.093 -0.1048  0.5594 -0.1803
  143OSM    H8S15689   1.120   2.262   7.187  0.3145 -3.9746  2.1307
  143OSM    H8T15690   1.269   2.198   7.128  0.6298  0.9413 -1.9261
  143OSM    C9S15691   1.090   2.100   7.048  0.7191  1.2414  0.0441
  143OSM    H9S15692   1.148   2.027   6.989 -1.6401 -0.2107 -0.6296
  143OSM    H9T15693   1.011   2.134   6.978  0.8173  2.0978  0.3359
  143OSM   C10S15694   1.030   2.016   7.168 -0.7320  0.2102 -0.0434
  143OSM   H10S15695   0.974   1.931   7.123 -0.9758  1.3756 -2.0741
  143OSM   H10T15696   0.962   2.087   7.220 -0.7605  1.7468 -2.0593
  143OSM   C11S15697   1.140   1.978   7.269  0.0261  0.2453  0.2403
  143OSM   H11S15698   1.173   2.065   7.329  1.1248 -0.7207  1.0688
  143OSM   H11T15699   1.217   1.934   7.201 -0.4553  1.1596 -0.9511
  143OSM   C12S15700   1.080   1.870   7.365  1.0798 -0.7022  0.1063
  143OSM   H12S15701   1.051   1.787   7.298 -0.1574  0.0965 -0.3797
  143OSM   H12T15702   0.984   1.901   7.411  1.3234 -0.0199  0.1789
  143OSM   C13S15703   1.176   1.842   7.476  0.8920  0.1611  1.0127
  143OSM   H13S15704   1.225   1.930   7.520  0.6300 -0.3618  2.3907
  143OSM   H13T15705   1.249   1.770   7.432 -1.1797 -1.6169  0.2535
  143OSM   C14S15706   1.100   1.759   7.592  0.3667  0.2720  0.2397
  143OSM   H14S15707   1.071   1.657   7.557 -0.1896  0.2597  0.7260
  143OSM   H14T15708   1.010   1.815   7.622  1.7495  2.5062  0.4735
  143OSM   C15S15709   1.174   1.730   7.724 -0.2798  0.7204  0.4307
  143OSM   H15S15710   1.227   1.823   7.755 -0.0404  0.4270  0.9226
  143OSM   H15T15711   1.248   1.652   7.694 -0.6392  0.3418  0.5285
  143OSM   C16S15712   1.089   1.691   7.842 -0.3988 -0.1551 -0.7168
  143OSM   H16S15713   1.021   1.607   7.819  0.0101 -0.6667 -0.0747
  143OSM   H16T15714   1.019   1.770   7.877 -1.6452 -1.7109  0.3944
  143OSM   C17S15715   1.173   1.654   7.960  0.3740  0.7161 -0.2106
  143OSM   H17S15716   1.238   1.727   8.014 -0.2507  0.1250  1.4166
  143OSM   H17T15717   1.236   1.575   7.915  1.0347  1.1177 -0.0051
  143OSM   C18S15718   1.070   1.589   8.052 -0.9426  0.7793 -0.4536
  143OSM   H18S15719   1.110   1.576   8.155 -0.4284 -2.7356 -0.9693
  143OSM   H18T15720   1.019   1.500   8.008 -0.6344  0.7837 -0.8267
  143OSM   H18U15721   0.986   1.661   8.060 -0.6496  1.0651  0.0751
  143OSM    C1F15722   0.966   2.850   6.825  0.4521  0.3828  0.1172
  143OSM     OF15723   0.902   2.838   6.723 -0.1734 -0.1365  0.3049
  143OSM    C2F15724   0.915   2.905   6.959  0.0126 -0.0619  0.0645
  143OSM    H2F15725   0.944   3.012   6.963  0.8039 -0.1336 -2.2445
  143OSM    H2G15726   0.951   2.834   7.036 -1.1419 -2.5090 -1.5362
  143OSM    C3F15727   0.760   2.902   6.948  0.4165  0.2793  0.3497
  143OSM    H3F15728   0.718   2.811   6.899  0.4932 -0.8978  2.3719
  143OSM    H3G15729   0.736   2.988   6.881 -0.8103 -0.8231 -0.6828
  143OSM    C4F15730   0.683   2.942   7.077  0.5446  0.3759  0.3828
  143OSM    H4F15731   0.585   2.987   7.052  0.8351  0.2738 -1.0641
  143OSM    H4G15732   0.737   3.024   7.130 -2.9015  1.4836  2.4753
  143OSM    C5F15733   0.659   2.826   7.175  1.0748 -0.4431  0.2042
  143OSM    H5F15734   0.701   2.737   7.125 -1.5889 -1.4958 -0.3133
  143OSM    H5G15735   0.552   2.800   7.184  1.0592 -0.0535  1.4069
  143OSM    C6F15736   0.718   2.844   7.316  0.0268 -0.1906 -0.4267
  143OSM    H6F15737   0.663   2.926   7.367 -2.9019 -0.9713 -2.0540
  143OSM    H6G15738   0.827   2.865   7.315 -0.0298  0.4121  1.5098
  143OSM    C7F15739   0.679   2.721   7.407  0.2514  0.3913  0.8259
  143OSM    H7F15740   0.660   2.626   7.352 -3.0217  0.8371  1.0117
  143OSM    H7G15741   0.574   2.728   7.442  0.1305  1.7668  0.2659
  143OSM    C8F15742   0.776   2.691   7.522  0.1997 -0.6716 -0.6206
  143OSM    H8F15743   0.870   2.659   7.472 -0.2666 -1.0294 -1.2850
  143OSM    H8G15744   0.738   2.599   7.572 -2.7101  1.2920  1.0868
  143OSM    C9F15745   0.798   2.812   7.614 -0.0115  0.3647  0.0613
  143OSM    H9F15746   0.863   2.888   7.567  1.9494 -1.1289  0.2169
  143OSM   C10F15747   0.746   2.829   7.732  0.3561 -0.4717 -0.5153
  143OSM   H10F15748   0.784   2.919   7.784 -1.4323 -0.8981  1.6994
  143OSM   C11F15749   0.645   2.733   7.802  0.0764 -0.4618  0.5763
  143OSM   H11F15750   0.621   2.654   7.728  0.2151 -0.0355  0.0723
  143OSM   H11G15751   0.555   2.792   7.830  0.3664  0.1892  0.1414
  143OSM   C12F15752   0.713   2.662   7.923 -0.4181  0.0661 -0.4209
  143OSM   H12F15753   0.727   2.738   8.003  2.1926  0.8680 -1.5540
  143OSM   H12G15754   0.812   2.620   7.896  0.7608  1.6585  1.1912
  143OSM   C13F15755   0.628   2.550   7.993  0.2440  0.6242 -0.1828
  143OSM   H13F15756   0.616   2.475   7.911  2.7417  1.4682 -1.4106
  143OSM   H13G15757   0.526   2.587   8.017  0.6614  0.9102  1.2220
  143OSM   C14F15758   0.680   2.494   8.126 -0.2349  0.1182  0.3498
  143OSM   H14F15759   0.788   2.494   8.098 -0.4194 -1.4363 -0.4356
  143OSM   H14G15760   0.654   2.389   8.148  1.3444  0.0766  2.4341
  143OSM   C15F15761   0.649   2.588   8.245 -0.4743 -0.0973 -0.1289
  143OSM   H15F15762   0.543   2.587   8.278 -0.2256 -0.9082  0.6557
  143OSM   H15G15763   0.683   2.690   8.214 -1.2318  0.0507 -0.4813
  143OSM   C16F15764   0.741   2.571   8.370  0.0479  0.1867 -0.0141
  143OSM   H16F15765   0.713   2.644   8.449 -0.2942  2.3984 -2.0668
  143OSM   H16G15766   0.847   2.593   8.344  0.2804  1.2324  1.6771
  143OSM   C17F15767   0.724   2.440   8.441 -0.3852 -0.2241 -0.4151
  143OSM   H17F15768   0.783   2.366   8.384  2.0202  1.7296 -0.6300
  143OSM   H17G15769   0.616   2.413   8.442 -0.6862  0.8831  1.1400
  143OSM   C18F15770   0.783   2.434   8.587  0.0937 -0.6668  0.7595
  143OSM   H18F15771   0.781   2.329   8.625  1.0056 -0.8473  0.3414
  143OSM   H18G15772   0.725   2.495   8.659  1.0706 -0.6957  1.5911
  143OSM   H18H15773   0.889   2.465   8.577  0.0379 -0.8473 -0.5617
  144OSM      N15774   6.205   2.210   6.700 -0.3631  0.3855 -0.4430
  144OSM    C1515775   6.226   2.167   6.843  0.1296  0.7594 -0.4650
  144OSM   H15A15776   6.256   2.255   6.898 -2.7878  1.5948 -0.0279
  144OSM   H15B15777   6.310   2.099   6.850  0.7310  1.4682 -0.6173
  144OSM   H15C15778   6.141   2.125   6.894  0.9599 -1.0941 -0.5248
  144OSM    C1415779   6.109   2.319   6.702 -0.0864 -1.0748 -0.4418
  144OSM   H14A15780   6.011   2.296   6.741  0.1624 -1.4284 -0.0105
  144OSM   H14B15781   6.094   2.349   6.599 -2.2623 -1.0323 -0.1511
  144OSM   H14C15782   6.145   2.412   6.744 -4.2751  0.7307 -0.4299
  144OSM    C1315783   6.328   2.249   6.640 -0.8690  0.3292  0.2524
  144OSM   H13A15784   6.402   2.170   6.637  1.2294  2.1300  1.3959
  144OSM   H13B15785   6.376   2.329   6.694  1.5765 -1.3442  0.7455
  144OSM   H13C15786   6.316   2.280   6.537  2.1715 -2.6014 -1.1809
  144OSM    C1215787   6.157   2.091   6.620 -0.7177  0.0230  0.5303
  144OSM   H12A15788   6.157   2.123   6.517 -1.6190 -1.6828 -0.0512
  144OSM   H12B15789   6.054   2.069   6.645 -1.7461  0.6655 -2.6401
  144OSM    C1115790   6.224   1.952   6.633  0.1123  0.0983  0.4736
  144OSM   H11A15791   6.164   1.871   6.587  1.4993 -0.6451 -0.0664
  144OSM   H11B15792   6.228   1.929   6.741  0.6149  0.1142  0.4602
  144OSM      P15793   6.397   1.937   6.439 -0.1438  0.1156  0.1131
  144OSM    O1315794   6.297   1.992   6.344  0.7843  0.8598  0.3234
  144OSM    O1415795   6.538   1.991   6.423  0.3698 -0.2836  0.0057
  144OSM    O1115796   6.418   1.781   6.414  1.2406  0.0835  0.0531
  144OSM    O1215797   6.358   1.946   6.581  0.0572 -0.4836  0.1439
  144OSM    C1S15798   6.519   1.698   6.473 -0.1281 -0.3309  0.2031
  144OSM    H1S15799   6.617   1.747   6.490 -0.1632 -0.7652  1.8474
  144OSM    H1T15800   6.542   1.612   6.406  0.6923  1.3017 -1.7101
  144OSM     NF15801   6.581   1.597   6.677  0.2362 -0.9048 -0.1939
  144OSM    HNF15802   6.589   1.497   6.678 -2.9940 -1.2765  1.2648
  144OSM    C2S15803   6.470   1.655   6.612  0.4845  0.0134  0.8365
  144OSM    H2S15804   6.435   1.745   6.668  0.7896  0.0206  1.0193
  144OSM    C3S15805   6.338   1.557   6.609 -0.1200 -0.9186 -0.4699
  144OSM    H3S15806   6.377   1.458   6.579  3.2525  0.5675 -1.4603
  144OSM     O315807   6.240   1.591   6.510  0.1717 -0.7940  0.0878
  144OSM    HO315808   6.263   1.673   6.466 -2.1142  0.4232  1.0390
  144OSM    C4S15809   6.281   1.538   6.750 -0.3776 -0.1506  0.6584
  144OSM    H4S15810   6.331   1.455   6.804  1.4599  0.5746  0.1511
  144OSM    C5S15811   6.196   1.626   6.811 -0.0227 -0.2871 -0.1608
  144OSM    H5S15812   6.166   1.716   6.755 -1.1668 -0.4491  0.1626
  144OSM    C6S15813   6.150   1.623   6.955  0.4841  0.3728  0.0632
  144OSM    H6S15814   6.054   1.567   6.959  0.3803  0.5547  0.1138
  144OSM    H6T15815   6.117   1.720   6.997  0.8708 -0.1620  1.6614
  144OSM    C7S15816   6.247   1.557   7.061  0.5172 -0.0659  0.0496
  144OSM    H7S15817   6.337   1.621   7.068  0.2539  0.0938  3.4082
  144OSM    H7T15818   6.272   1.452   7.037 -1.1343 -0.2970 -0.8069
  144OSM    C8S15819   6.181   1.557   7.200  0.2651 -0.0945  0.4182
  144OSM    H8S15820   6.079   1.514   7.204 -0.5787  1.1894 -3.6219
  144OSM    H8T15821   6.188   1.662   7.235  1.3862  0.0842 -0.2875
  144OSM    C9S15822   6.261   1.485   7.314 -0.5953 -0.0275 -0.2045
  144OSM    H9S15823   6.369   1.509   7.317  0.1576 -2.8098 -1.7448
  144OSM    H9T15824   6.259   1.375   7.294 -1.5777 -0.0374 -0.1050
  144OSM   C10S15825   6.189   1.509   7.447  0.3826 -0.5814 -0.0028
  144OSM   H10S15826   6.083   1.477   7.442  0.0133  0.7447 -1.2805
  144OSM   H10T15827   6.187   1.620   7.455 -1.4469 -0.5197 -0.7058
  144OSM   C11S15828   6.270   1.436   7.557  0.4657  0.2787 -0.1846
  144OSM   H11S15829   6.367   1.485   7.578  0.3942  0.8214 -1.0622
  144OSM   H11T15830   6.298   1.333   7.528  0.2631 -1.1661  3.9929
  144OSM   C12S15831   6.199   1.431   7.688 -0.1103 -0.2963  0.0855
  144OSM   H12S15832   6.099   1.383   7.687  0.5876 -1.8504  0.9062
  144OSM   H12T15833   6.196   1.535   7.726  0.1738 -0.3919  0.3805
  144OSM   C13S15834   6.270   1.338   7.785 -0.0844  0.1674 -0.7231
  144OSM   H13S15835   6.381   1.347   7.796 -0.3328  0.4295  2.4406
  144OSM   H13T15836   6.243   1.234   7.759 -0.4938 -0.7332  2.7977
  144OSM   C14S15837   6.219   1.363   7.933 -0.3993  0.4908 -0.0405
  144OSM   H14S15838   6.116   1.400   7.916 -0.2205  0.1637 -1.9950
  144OSM   H14T15839   6.276   1.441   7.988 -0.5905 -0.0616  0.9786
  144OSM   C15S15840   6.214   1.235   8.011 -0.4461  0.3062 -0.1901
  144OSM   H15S15841   6.309   1.177   8.020 -1.3030 -0.8810  1.7164
  144OSM   H15T15842   6.144   1.156   7.975 -0.5608 -0.4958  1.6877
  144OSM   C16S15843   6.159   1.263   8.145  0.0982  0.6831  0.0404
  144OSM   H16S15844   6.060   1.305   8.115  0.2478  0.2294 -1.1356
  144OSM   H16T15845   6.224   1.342   8.188  1.3037  0.1586 -0.7816
  144OSM   C17S15846   6.138   1.158   8.253  0.5280  1.1747 -0.1091
  144OSM   H17S15847   6.233   1.102   8.266 -0.1274  0.0768  0.1612
  144OSM   H17T15848   6.063   1.083   8.219  1.7696  0.6628 -1.8198
  144OSM   C18S15849   6.107   1.209   8.390 -0.6498  0.0651 -0.2808
  144OSM   H18S15850   6.118   1.128   8.466 -0.1068  1.0095  0.6812
  144OSM   H18T15851   6.007   1.250   8.413 -0.5358  0.3106 -0.2216
  144OSM   H18U15852   6.176   1.290   8.420 -1.1256  0.2742  0.2716
  144OSM    C1F15853   6.675   1.682   6.730  1.1244  0.2223  1.1958
  144OSM     OF15854   6.644   1.796   6.735 -0.5371  0.3998  0.1852
  144OSM    C2F15855   6.809   1.630   6.762  0.1273  0.0615  0.1136
  144OSM    H2F15856   6.858   1.631   6.662 -2.0353  0.5129 -1.0020
  144OSM    H2G15857   6.814   1.523   6.791  2.1721 -0.1169 -0.7708
  144OSM    C3F15858   6.891   1.718   6.856  0.4860  0.2572 -0.2324
  144OSM    H3F15859   6.871   1.825   6.833 -1.3569 -0.3145 -1.4394
  144OSM    H3G15860   6.998   1.698   6.836  0.8535  0.8839  0.9745
  144OSM    C4F15861   6.843   1.698   7.005  0.5487 -0.0729  0.0173
  144OSM    H4F15862   6.789   1.603   7.021  2.4888 -1.5219 -1.6611
  144OSM    H4G15863   6.763   1.775   7.013  1.6579  1.1559 -0.3298
  144OSM    C5F15864   6.959   1.701   7.099  0.0000 -0.2800  0.6353
  144OSM    H5F15865   7.019   1.795   7.097  0.2701 -0.4086  1.8676
  144OSM    H5G15866   7.044   1.633   7.079 -1.3151 -1.3934 -1.4613
  144OSM    C6F15867   6.921   1.684   7.246  0.7737 -0.2405 -0.2208
  144OSM    H6F15868   6.885   1.580   7.258 -0.7651  0.0116 -2.1401
  144OSM    H6G15869   6.832   1.750   7.255  0.5743 -0.1530 -2.2484
  144OSM    C7F15870   7.047   1.723   7.322 -0.0482 -0.3253  0.5258
  144OSM    H7F15871   7.084   1.823   7.291  0.1445 -0.7776 -0.7545
  144OSM    H7G15872   7.125   1.645   7.309 -1.3740 -1.6379  0.1668
  144OSM    C8F15873   7.016   1.729   7.478  0.2233  0.1146 -0.2628
  144OSM    H8F15874   7.119   1.733   7.521  0.7505  2.3604 -1.5537
  144OSM    H8G15875   6.979   1.638   7.529 -1.6743  1.3193  0.6509
  144OSM    C9F15876   6.950   1.854   7.533  0.5478  0.6523  0.0726
  144OSM    H9F15877   6.921   1.925   7.454 -1.7984 -1.4827 -1.1428
  144OSM   C10F15878   6.896   1.876   7.653 -0.3931  0.2068 -0.1908
  144OSM   H10F15879   6.838   1.969   7.661 -1.2821 -0.2845 -0.6835
  144OSM   C11F15880   6.908   1.776   7.769  0.3160 -0.1706 -0.3566
  144OSM   H11F15881   6.984   1.697   7.756  1.8930  1.4601 -1.4653
  144OSM   H11G15882   6.815   1.715   7.769  0.3401 -0.3144  2.1612
  144OSM   C12F15883   6.934   1.843   7.903 -0.6254 -0.4471 -0.3936
  144OSM   H12F15884   6.865   1.924   7.934 -2.0050 -1.7750  0.1852
  144OSM   H12G15885   7.032   1.896   7.898 -0.7161  0.2027  2.5816
  144OSM   C13F15886   6.948   1.740   8.013  0.0559  0.5152 -0.1850
  144OSM   H13F15887   7.045   1.694   7.987 -0.0443 -0.2584  0.7652
  144OSM   H13G15888   6.875   1.657   8.000  1.9645 -1.0508 -1.2751
  144OSM   C14F15889   6.943   1.802   8.146  0.7466  0.0419  0.5281
  144OSM   H14F15890   6.853   1.867   8.158 -0.0306 -1.0579  0.7870
  144OSM   H14G15891   7.034   1.865   8.153  0.0928  0.8367  2.8738
  144OSM   C15F15892   6.951   1.692   8.262  0.2004 -1.1366 -0.1848
  144OSM   H15F15893   7.039   1.627   8.245  0.9920  0.0822 -0.8388
  144OSM   H15G15894   6.857   1.632   8.259  0.3347 -1.3931  0.5365
  144OSM   C16F15895   6.965   1.753   8.403 -0.2045 -0.6115 -0.2491
  144OSM   H16F15896   6.873   1.811   8.423  1.0294  0.8166  1.6054
  144OSM   H16G15897   7.034   1.840   8.405 -0.8713 -0.0897  0.4660
  144OSM   C17F15898   7.004   1.656   8.521 -0.0582 -0.1961  0.3699
  144OSM   H17F15899   7.106   1.616   8.507  0.5215  0.9862  1.0565
  144OSM   H17G15900   6.933   1.571   8.519  0.9338 -1.1789  2.9876
  144OSM   C18F15901   6.999   1.706   8.664  0.3441 -0.5034 -0.3485
  144OSM   H18F15902   7.076   1.786   8.677 -0.9604  0.7146  0.2400
  144OSM   H18G15903   7.020   1.621   8.732 -0.0985 -1.6151 -1.5725
  144OSM   H18H15904   6.900   1.739   8.702  0.2459 -1.0035 -0.1578
  145SAPE     N15905   3.906   4.344  11.017  0.2884 -0.1333 -0.2255
  145SAPE   HN115906   4.010   4.343  11.025  0.1211 -0.2194  3.1359
  145SAPE   HN215907   3.878   4.436  11.058 -0.7180 -1.0883  1.3350
  145SAPE   HN315908   3.871   4.264  11.073 -0.9298  0.2358 -0.4376
  145SAPE   C1215909   3.862   4.328  10.874  0.6557  0.0356  0.2714
  145SAPE  H12A15910   3.815   4.228  10.861  0.2671  0.0153  1.6381
  145SAPE  H12B15911   3.960   4.332  10.823 -0.1619  2.3323 -1.2884
  145SAPE   C1115912   3.763   4.437  10.845 -0.9363 -0.2080 -0.5691
  145SAPE  H11A15913   3.670   4.423  10.903 -1.8897 -0.6780 -2.1414
  145SAPE  H11B15914   3.749   4.411  10.738  2.0277  0.7398 -1.3043
  145SAPE     P15915   3.733   4.687  10.826  0.3125  0.1052  0.5159
  145SAPE   O1315916   3.597   4.641  10.872  0.1690 -0.0475 -0.6444
  145SAPE   O1415917   3.796   4.806  10.887 -0.1834  0.1869 -0.2089
  145SAPE   O1215918   3.825   4.564  10.849  0.3550 -0.3171  0.0370
  145SAPE   O1115919   3.743   4.697  10.667  0.4202  0.1144 -0.0971
  145SAPE    C115920   3.790   4.817  10.602  0.2802  0.0865 -0.0152
  145SAPE    HA15921   3.897   4.836  10.626  0.8843  0.1154 -2.4520
  145SAPE    HB15922   3.792   4.805  10.492  1.5671  3.4651 -0.5040
  145SAPE    C215923   3.703   4.946  10.618 -0.1921  0.4517 -0.0988
  145SAPE    HS15924   3.723   4.975  10.723 -0.4612  0.6026 -0.0860
  145SAPE   O2115925   3.561   4.928  10.586 -0.8916  0.1136  0.1651
  145SAPE   C2115926   3.478   4.952  10.681  0.2531 -0.6677 -0.3282
  145SAPE   O2215927   3.499   4.996  10.794  0.6215 -0.1607  0.0463
  145SAPE   C2215928   3.349   4.924  10.624  0.2297 -0.7441  0.7539
  145SAPE   H2R15929   3.268   4.936  10.699  1.1893  0.9725  1.5776
  145SAPE   H2S15930   3.326   5.001  10.547  0.6115 -0.6481  0.7329
  145SAPE    C315931   3.749   5.065  10.531 -1.0114  0.0747 -0.7259
  145SAPE    HX15932   3.706   5.161  10.569  0.7425 -0.4611  3.1636
  145SAPE    HY15933   3.706   5.053  10.430  1.1291 -0.2355 -1.6500
  145SAPE   O3115934   3.888   5.071  10.496 -0.3236  0.2694 -0.3622
  145SAPE   C3115935   3.966   5.143  10.577 -0.0276  1.0443 -0.6165
  145SAPE   O3215936   3.929   5.211  10.674 -0.4244  0.3758  0.2986
  145SAPE   C3215937   4.115   5.114  10.544  0.6713 -0.4415 -0.6901
  145SAPE   H2X15938   4.107   5.121  10.434 -0.4737 -1.2159 -0.6768
  145SAPE   H2Y15939   4.152   5.011  10.565 -0.0301 -1.0600 -2.3372
  145SAPE   C2315940   3.330   4.784  10.563  0.1078  0.1820  0.0956
  145SAPE   H3R15941   3.342   4.700  10.634 -1.1078 -1.8728 -1.9948
  145SAPE   H3S15942   3.413   4.765  10.491 -1.2640 -1.6181 -1.0819
  145SAPE   C2415943   3.198   4.781  10.475  0.0734  0.6689  0.1898
  145SAPE   H4R15944   3.226   4.824  10.376 -0.2430  0.4637  0.0088
  145SAPE   H4S15945   3.116   4.840  10.521 -0.5411  0.9548 -1.2084
  145SAPE   C2515946   3.157   4.637  10.457 -0.2138  0.3086 -0.5796
  145SAPE   H5R15947   3.160   4.569  10.543 -1.3363 -0.0948 -0.8394
  145SAPE   C2615948   3.126   4.578  10.338  0.3952  0.5599 -1.1880
  145SAPE   H6R15949   3.082   4.477  10.334  1.8169 -0.1378  0.0976
  145SAPE   C2715950   3.118   4.658  10.209  0.3598  0.2101  0.3293
  145SAPE   H7R15951   3.063   4.593  10.138 -0.4734  1.0094  0.2269
  145SAPE   H7S15952   3.217   4.676  10.162  0.2996 -0.4134 -0.0512
  145SAPE   C2815953   3.024   4.778  10.215 -0.1106  0.1271 -0.1862
  145SAPE   H8R15954   2.979   4.809  10.311  0.3825  0.9588 -0.2141
  145SAPE   C2915955   3.021   4.875  10.124 -0.1849 -0.9275 -0.7660
  145SAPE   H9R15956   2.946   4.955  10.137 -0.3465 -0.7987 -2.3653
  145SAPE  C21015957   3.094   4.880   9.995  0.2085  1.1798  0.4918
  145SAPE  H10R15958   3.020   4.879   9.912  0.8959  1.1671 -0.1228
  145SAPE  H10S15959   3.151   4.786   9.985 -0.9088  0.5299  0.1253
  145SAPE  C21115960   3.180   4.997   9.962 -0.9177 -0.1286 -0.1107
  145SAPE  H11R15961   3.208   5.056  10.051 -0.9089 -0.8048  0.3394
  145SAPE  C21215962   3.226   5.028   9.839  0.2373  0.3294 -0.0358
  145SAPE  H12R15963   3.299   5.109   9.829 -2.2933  2.7331 -0.1447
  145SAPE  C21315964   3.208   4.954   9.709  0.5703  0.5720  0.8641
  145SAPE  H13R15965   3.131   5.010   9.651 -1.4578 -1.4000  1.4804
  145SAPE  H13S15966   3.156   4.855   9.712  0.2284  0.5292 -2.5550
  145SAPE  C21415967   3.332   4.935   9.633  0.0970  0.5875  0.4554
  145SAPE  H14R15968   3.417   4.881   9.678  0.4517 -0.6819 -1.6181
  145SAPE  C21515969   3.356   4.955   9.502 -0.6172 -0.5563  0.3244
  145SAPE  H15R15970   3.457   4.925   9.470 -0.9128 -1.5159  0.2764
  145SAPE  C21615971   3.265   5.015   9.398  0.5075  0.4756  1.3778
  145SAPE  H16R15972   3.309   5.106   9.351  2.3688 -1.7279 -1.4986
  145SAPE  H16S15973   3.165   5.040   9.440  0.2513  1.5931  0.2046
  145SAPE  C21715974   3.216   4.916   9.285  0.2721 -0.6079  0.0919
  145SAPE  H17R15975   3.180   4.828   9.343  2.0583 -1.7266 -0.3820
  145SAPE  H17S15976   3.305   4.865   9.241 -0.6034 -1.1075 -1.1636
  145SAPE  C21815977   3.120   4.982   9.179  0.4850 -0.2441 -0.1271
  145SAPE  H18R15978   3.170   5.054   9.112  0.6051  0.2043  0.4341
  145SAPE  H18S15979   3.043   5.044   9.228  0.3877 -1.8023  1.8390
  145SAPE  C21915980   3.032   4.883   9.093 -0.6883 -0.8723 -1.1339
  145SAPE  H19R15981   3.087   4.791   9.066 -0.5011 -1.1110  0.0088
  145SAPE  H19S15982   2.999   4.932   8.999  0.0618 -0.0294 -0.9811
  145SAPE  C22015983   2.910   4.842   9.183  0.7252 -0.5140  0.4247
  145SAPE  H20R15984   2.928   4.772   9.267  1.1823  0.9582  1.5875
  145SAPE  H20S15985   2.820   4.814   9.124  0.6370 -0.2026  0.4100
  145SAPE  H20T15986   2.881   4.938   9.229  1.9133  0.5305 -0.9176
  145SAPE   C3315987   4.215   5.217  10.602  0.7307 -0.1153  0.0860
  145SAPE   H3X15988   4.226   5.201  10.711  0.2223  1.8827  0.4668
  145SAPE   H3Y15989   4.178   5.322  10.608 -1.5351 -0.8476 -0.0364
  145SAPE   C3415990   4.351   5.220  10.538  0.1733 -0.3064  0.2146
  145SAPE   H4X15991   4.401   5.121  10.550  0.4985 -0.3379 -1.1728
  145SAPE   H4Y15992   4.404   5.309  10.578 -0.7443  0.1118  0.5217
  145SAPE   C3515993   4.357   5.241  10.381  0.7940 -0.0445  0.0856
  145SAPE   H5X15994   4.307   5.339  10.366 -0.0917 -0.7792 -2.0404
  145SAPE   H5Y15995   4.304   5.155  10.336  0.3500  0.1425  0.2478
  145SAPE   C3615996   4.496   5.248  10.324  0.0795 -0.3121  0.1523
  145SAPE   H6X15997   4.546   5.152  10.348 -1.7136 -1.0108  1.2475
  145SAPE   H6Y15998   4.555   5.324  10.380 -0.7442  1.1412 -0.8815
  145SAPE   C3715999   4.508   5.275  10.176 -0.7260  0.0662 -0.7536
  145SAPE   H7X16000   4.617   5.292  10.165 -0.6144  0.1665  0.3963
  145SAPE   H7Y16001   4.453   5.365  10.142  0.5668 -0.0015 -3.2612
  145SAPE   C3816002   4.481   5.155  10.090  0.5887 -0.6452  0.4904
  145SAPE   H8X16003   4.375   5.132  10.118  0.1538  2.5758  1.8751
  145SAPE   H8Y16004   4.559   5.079  10.113 -0.3476 -1.9510 -0.4606
  145SAPE   C3916005   4.484   5.188   9.941  0.1363  0.2497 -0.7129
  145SAPE   H9X16006   4.588   5.212   9.909  0.6150 -1.7543 -0.8166
  145SAPE   H9Y16007   4.420   5.277   9.922 -3.5389 -1.6950  1.3855
  145SAPE  C31016008   4.428   5.078   9.857 -0.2659  0.7636 -0.0687
  145SAPE  H10X16009   4.322   5.061   9.886  0.1428 -0.5106  0.7366
  145SAPE  H10Y16010   4.489   4.990   9.885 -0.2388  0.9493  0.4727
  145SAPE  C31116011   4.442   5.091   9.708  0.6477  0.0607 -0.1929
  145SAPE  H11X16012   4.550   5.081   9.683  0.2635  0.2954 -2.1330
  145SAPE  H11Y16013   4.409   5.192   9.677 -3.5909 -0.8516  0.8356
  145SAPE  C31216014   4.366   4.977   9.639 -0.2385 -0.0021  0.6033
  145SAPE  H12X16015   4.266   4.990   9.685 -1.0564 -0.5295 -0.9851
  145SAPE  H12Y16016   4.406   4.880   9.674 -0.5071 -0.3382 -0.0172
  145SAPE  C31316017   4.366   4.982   9.481 -0.2990  0.3356 -0.7863
  145SAPE  H13X16018   4.469   4.979   9.440 -0.6566 -0.2991 -1.6839
  145SAPE  H13Y16019   4.330   5.082   9.448  0.9021  1.2877  0.6507
  145SAPE  C31416020   4.284   4.862   9.426  0.0693 -0.3531  0.1341
  145SAPE  H14X16021   4.184   4.852   9.472 -0.0048 -2.9943 -0.4511
  145SAPE  H14Y16022   4.329   4.773   9.474 -0.4436 -0.9522 -0.4799
  145SAPE  C31516023   4.273   4.851   9.270  0.4296 -0.0217  0.1134
  145SAPE  H15X16024   4.367   4.809   9.231  0.7622  0.3200  0.5344
  145SAPE  H15Y16025   4.266   4.959   9.241  0.0054  0.4540  1.8642
  145SAPE  C31616026   4.150   4.775   9.220 -0.4401 -0.4463  0.0768
  145SAPE  H16X16027   4.068   4.802   9.290  2.4631  4.6878  2.0440
  145SAPE  H16Y16028   4.179   4.672   9.249  1.2718 -0.5178 -1.6611
  145SAPE  C31716029   4.119   4.778   9.071 -0.4067  0.0703 -0.0928
  145SAPE  H17X16030   4.219   4.759   9.027 -0.9999 -1.7490 -0.7278
  145SAPE  H17Y16031   4.092   4.883   9.047 -1.6295  0.2548  1.8846
  145SAPE  C31816032   4.009   4.686   9.028 -0.5107  0.3642  0.3676
  145SAPE  H18X16033   3.975   4.714   8.925  1.1003  1.1328  0.0155
  145SAPE  H18Y16034   3.921   4.687   9.096 -0.8970 -0.2666 -0.1112
  145SAPE  H18Z16035   4.053   4.584   9.035 -0.8090  0.1816 -0.3287
  146SAPE     N16036   0.859   4.772  10.937  0.0081  0.6863 -0.6412
  146SAPE   HN116037   0.913   4.683  10.937 -2.5146 -0.9394 -2.2454
  146SAPE   HN216038   0.797   4.769  10.854 -0.8312  0.0803 -0.0169
  146SAPE   HN316039   0.920   4.855  10.925  0.1019  0.4424 -1.8948
  146SAPE   C1216040   0.781   4.805  11.060 -0.6393  0.3450  0.3571
  146SAPE  H12A16041   0.853   4.826  11.142 -0.9314  1.4263  0.3431
  146SAPE  H12B16042   0.724   4.713  11.086  0.9843 -0.1931  2.2785
  146SAPE   C1116043   0.678   4.917  11.023 -0.0517  0.4830  0.4758
  146SAPE  H11A16044   0.735   5.013  11.023 -1.1984  1.1776  0.2722
  146SAPE  H11B16045   0.613   4.931  11.112 -0.4024 -0.9254  0.4739
  146SAPE     P16046   0.554   5.033  10.810  0.1576 -0.0500 -0.3058
  146SAPE   O1316047   0.427   5.077  10.874 -0.4550  0.0779 -0.7595
  146SAPE   O1416048   0.670   5.128  10.800  0.7970 -0.1626  0.2412
  146SAPE   O1216049   0.612   4.908  10.893 -0.1697 -0.8444 -0.2327
  146SAPE   O1116050   0.528   4.957  10.670  0.2803 -0.2981  0.3175
  146SAPE    C116051   0.417   4.866  10.676 -0.2220  0.8320 -0.5642
  146SAPE    HA16052   0.447   4.770  10.724  0.1500  1.4082  0.3807
  146SAPE    HB16053   0.328   4.915  10.719  0.3011  1.2713  0.0418
  146SAPE    C216054   0.372   4.813  10.529 -0.1213 -0.0750  0.2134
  146SAPE    HS16055   0.290   4.741  10.553 -1.7137  0.3932 -3.2093
  146SAPE   O2116056   0.488   4.760  10.466 -0.1343  0.3039 -0.6380
  146SAPE   C2116057   0.468   4.657  10.391 -0.5578  0.4101 -0.3612
  146SAPE   O2216058   0.375   4.577  10.390 -0.3687 -0.3104 -0.2118
  146SAPE   C2216059   0.585   4.632  10.294  0.4786  0.0925 -0.5267
  146SAPE   H2R16060   0.665   4.693  10.340 -0.3709 -0.4478  1.8269
  146SAPE   H2S16061   0.600   4.522  10.301 -2.9490 -0.3993  3.0664
  146SAPE    C316062   0.308   4.927  10.449  0.2178 -0.3940  0.4794
  146SAPE    HX16063   0.396   4.992  10.435  1.6084 -2.5290 -1.3440
  146SAPE    HY16064   0.232   4.981  10.510 -0.3496  0.3413 -0.8459
  146SAPE   O3116065   0.263   4.882  10.320 -0.3634  0.1737  0.5353
  146SAPE   C3116066   0.145   4.825  10.326  0.4123 -0.9820  0.6512
  146SAPE   O3216067   0.081   4.799  10.423  0.0722 -0.3937  0.5831
  146SAPE   C3216068   0.114   4.772  10.181 -0.2262 -0.4751 -0.1686
  146SAPE   H2X16069   0.199   4.705  10.155 -0.1541 -0.5969  0.3744
  146SAPE   H2Y16070   0.124   4.863  10.117 -4.9457 -0.2889 -0.9783
  146SAPE   C2316071   0.567   4.676  10.142  0.7400 -0.1256 -0.1140
  146SAPE   H3R16072   0.670   4.684  10.101  0.6885 -1.9501 -0.6703
  146SAPE   H3S16073   0.515   4.775  10.142  2.0751  0.5991 -1.0319
  146SAPE   C2416074   0.489   4.577  10.056  0.0656  0.1331  0.6095
  146SAPE   H4R16075   0.399   4.527  10.098 -0.2341 -2.7062 -2.8835
  146SAPE   H4S16076   0.552   4.486  10.059  0.7825  0.6492  1.9016
  146SAPE   C2516077   0.470   4.614   9.914 -0.0590  0.0703  0.2297
  146SAPE   H5R16078   0.403   4.701   9.902 -1.9802 -1.3294  0.2749
  146SAPE   C2616079   0.516   4.557   9.798 -0.0264 -0.0452  0.8643
  146SAPE   H6R16080   0.478   4.598   9.703 -1.2539 -0.6921  1.0536
  146SAPE   C2716081   0.609   4.443   9.775  0.0677 -0.6235  0.1613
  146SAPE   H7R16082   0.593   4.397   9.675  0.7802  1.4594 -0.9615
  146SAPE   H7S16083   0.578   4.357   9.838  1.6778 -1.7214 -0.4519
  146SAPE   C2816084   0.748   4.488   9.796 -0.4944  0.3041 -0.2473
  146SAPE   H8R16085   0.782   4.492   9.900 -1.6182 -0.7813  0.1884
  146SAPE   C2916086   0.842   4.526   9.705  0.3520 -0.0091 -0.4127
  146SAPE   H9R16087   0.942   4.553   9.743  0.3537  2.5880 -1.9800
  146SAPE  C21016088   0.818   4.539   9.555  0.1943  0.5626 -0.8537
  146SAPE  H10R16089   0.732   4.609   9.544  0.2708  0.9480  0.7510
  146SAPE  H10S16090   0.782   4.437   9.529  1.0551  0.1701 -0.5201
  146SAPE  C21116091   0.927   4.594   9.465  0.5625 -0.4296 -0.0514
  146SAPE  H11R16092   0.977   4.683   9.506  1.1038 -0.3035 -0.9497
  146SAPE  C21216093   0.968   4.547   9.338 -0.5922 -0.1463 -0.0202
  146SAPE  H12R16094   1.048   4.602   9.285 -0.2575 -0.6170 -0.0035
  146SAPE  C21316095   0.902   4.433   9.267  0.5138  0.0129 -0.4010
  146SAPE  H13R16096   0.844   4.385   9.349  1.0809  1.9611  1.1857
  146SAPE  H13S16097   0.974   4.353   9.240 -0.0033 -0.7122  0.2986
  146SAPE  C21416098   0.813   4.478   9.154  0.5359 -0.3611 -0.2982
  146SAPE  H14R16099   0.719   4.530   9.174 -0.0501 -2.6383  3.9690
  146SAPE  C21516100   0.847   4.446   9.025  0.2071  0.7951 -0.7762
  146SAPE  H15R16101   0.793   4.501   8.946  0.3584  1.1643 -0.6246
  146SAPE  C21616102   0.963   4.367   8.973 -0.4243  0.4446 -0.0334
  146SAPE  H16R16103   0.939   4.330   8.871 -1.7156 -0.2186  0.4762
  146SAPE  H16S16104   0.984   4.275   9.032 -1.3044  1.0187  1.2382
  146SAPE  C21716105   1.097   4.447   8.962  0.1341 -0.2964  0.4404
  146SAPE  H17R16106   1.145   4.442   9.062  0.2989  1.6361  0.4857
  146SAPE  H17S16107   1.084   4.551   8.927 -0.6908 -0.3547  0.5514
  146SAPE  C21816108   1.201   4.401   8.863  0.2525  0.7368 -0.1445
  146SAPE  H18R16109   1.147   4.404   8.766 -0.7165 -0.8095  0.3146
  146SAPE  H18S16110   1.213   4.294   8.890 -1.7622  0.0867 -1.5469
  146SAPE  C21916111   1.328   4.481   8.874 -0.1032 -0.3081 -1.2963
  146SAPE  H19R16112   1.312   4.591   8.877  2.2750  0.0608  0.6956
  146SAPE  H19S16113   1.388   4.467   8.782  1.6743 -0.6152 -0.1341
  146SAPE  C22016114   1.422   4.449   8.992 -0.1928  0.0935 -0.3823
  146SAPE  H20R16115   1.466   4.349   8.977  1.2372  0.6223  0.1003
  146SAPE  H20S16116   1.360   4.453   9.085  1.4148  0.7407  0.7053
  146SAPE  H20T16117   1.504   4.524   8.991 -0.3272  0.2604  0.5270
  146SAPE   C3316118  -0.025   4.714  10.160 -0.3028  0.4683  0.2000
  146SAPE   H3X16119  -0.097   4.799  10.159 -0.2096  0.5520  0.4680
  146SAPE   H3Y16120  -0.054   4.672  10.259  1.8291  2.6180  1.8876
  146SAPE   C3416121  -0.037   4.633  10.028 -0.0648  0.2953  0.8205
  146SAPE   H4X16122  -0.139   4.589  10.026 -0.3116  0.6100  3.2647
  146SAPE   H4Y16123   0.036   4.549  10.023  0.7717  1.0909 -1.3661
  146SAPE   C3516124  -0.020   4.719   9.901 -0.9348 -0.7045  0.1707
  146SAPE   H5X16125   0.065   4.789   9.912 -1.5050  0.1281 -0.5535
  146SAPE   H5Y16126  -0.110   4.785   9.899 -0.7141 -0.3365  1.4296
  146SAPE   C3616127  -0.028   4.630   9.775  0.6600 -0.1300  0.6847
  146SAPE   H6X16128  -0.103   4.554   9.808  0.9431 -0.0162  1.6394
  146SAPE   H6Y16129   0.059   4.562   9.762 -0.0633 -1.0386  0.4022
  146SAPE   C3716130  -0.055   4.718   9.649 -0.5311 -0.3920  0.1131
  146SAPE   H7X16131  -0.012   4.820   9.664 -1.9007  0.2017  0.0917
  146SAPE   H7Y16132  -0.163   4.736   9.637 -0.1448  0.8656 -1.8616
  146SAPE   C3816133   0.007   4.639   9.523  0.2616  0.5867  0.0769
  146SAPE   H8X16134  -0.015   4.530   9.531 -0.7035  0.4749 -2.9202
  146SAPE   H8Y16135   0.117   4.646   9.537  0.2393 -0.4741  0.9242
  146SAPE   C3916136  -0.040   4.683   9.383 -0.5180 -0.1395  0.0049
  146SAPE   H9X16137  -0.027   4.794   9.379  1.0805 -0.1345  2.4919
  146SAPE   H9Y16138  -0.146   4.656   9.366 -1.1864  1.3920  1.3639
  146SAPE  C31016139   0.043   4.618   9.274  0.1670  0.6251  1.1647
  146SAPE  H10X16140   0.012   4.511   9.270  1.1038  0.3786  0.3158
  146SAPE  H10Y16141   0.149   4.637   9.300  0.0219 -0.8973  3.1240
  146SAPE  C31116142   0.020   4.693   9.143  0.1498 -0.0752  0.2725
  146SAPE  H11X16143   0.039   4.802   9.155 -0.2685  0.4471 -3.0186
  146SAPE  H11Y16144  -0.089   4.685   9.121 -0.1928  0.2315  1.7221
  146SAPE  C31216145   0.094   4.629   9.030 -0.2685  0.1875  1.2440
  146SAPE  H12X16146   0.068   4.523   9.012 -1.6229  0.9011 -1.5296
  146SAPE  H12Y16147   0.204   4.632   9.043  0.0970 -3.0469 -0.2601
  146SAPE  C31316148   0.054   4.700   8.906 -0.7377  0.4284 -0.4175
  146SAPE  H13X16149   0.079   4.806   8.927  2.0976 -0.2923  0.1988
  146SAPE  H13Y16150  -0.057   4.706   8.896 -1.1513  1.2806  3.1451
  146SAPE  C31416151   0.125   4.660   8.779  0.0510  0.3925 -0.0978
  146SAPE  H14X16152   0.070   4.572   8.740  1.4613 -0.5221 -0.0944
  146SAPE  H14Y16153   0.230   4.632   8.803 -0.6511 -0.0667  2.8153
  146SAPE  C31516154   0.121   4.775   8.675 -0.0891  0.8935 -0.3538
  146SAPE  H15X16155   0.185   4.864   8.696  1.7307 -0.0087 -1.7916
  146SAPE  H15Y16156   0.019   4.812   8.653  0.6897  1.7455 -2.8774
  146SAPE  C31616157   0.176   4.728   8.537  0.1570  0.0576 -0.7060
  146SAPE  H16X16158   0.282   4.697   8.551  0.2441  0.8588  0.5535
  146SAPE  H16Y16159   0.173   4.811   8.464 -1.7978 -0.3322 -1.1165
  146SAPE  C31716160   0.097   4.614   8.477 -0.0991 -0.3305  0.6276
  146SAPE  H17X16161   0.104   4.525   8.544 -2.0896 -0.9765  0.0520
  146SAPE  H17Y16162   0.145   4.589   8.380  1.2823 -2.2685  1.7453
  146SAPE  C31816163  -0.053   4.645   8.446  0.1194 -0.0973 -0.3955
  146SAPE  H18X16164  -0.106   4.559   8.399 -0.4891  1.1632 -2.1183
  146SAPE  H18Y16165  -0.069   4.723   8.368 -4.4684 -2.2615 -2.0053
  146SAPE  H18Z16166  -0.104   4.683   8.537 -0.4255  2.3201 -1.6263
  147SAPE     N16167   6.436   0.794  11.252  0.1038 -0.0748  0.5865
  147SAPE   HN116168   6.370   0.730  11.300 -0.4870 -0.1780 -0.3363
  147SAPE   HN216169   6.519   0.732  11.239 -0.5234 -1.1098  1.3685
  147SAPE   HN316170   6.464   0.872  11.315 -0.8101  0.4800  0.3192
  147SAPE   C1216171   6.367   0.843  11.125 -0.2066 -0.4976 -0.2278
  147SAPE  H12A16172   6.342   0.745  11.080 -2.3255 -0.5476  0.9304
  147SAPE  H12B16173   6.434   0.908  11.065  0.6169 -0.8471  0.2854
  147SAPE   C1116174   6.236   0.928  11.158 -0.7543 -0.5766  0.2394
  147SAPE  H11A16175   6.189   0.967  11.065  1.7394  1.4739 -0.2790
  147SAPE  H11B16176   6.274   1.021  11.204  0.4644 -1.1946  0.5268
  147SAPE     P16177   6.025   0.776  11.172  0.0783 -0.0539  0.1188
  147SAPE   O1316178   6.038   0.635  11.206 -0.1725  1.0468  0.6270
  147SAPE   O1416179   5.900   0.841  11.222 -1.3798  0.9477  0.7509
  147SAPE   O1216180   6.149   0.854  11.236  0.1898 -0.5266  0.3967
  147SAPE   O1116181   6.028   0.803  11.021  0.2899 -0.0303  0.2923
  147SAPE    C116182   5.911   0.832  10.937  0.2289  0.0957  0.2909
  147SAPE    HA16183   5.833   0.753  10.936 -0.9775  1.2506  1.1066
  147SAPE    HB16184   5.862   0.927  10.967  1.3094  0.3573  1.3117
  147SAPE    C216185   5.944   0.850  10.780  0.5415 -0.8782 -0.5342
  147SAPE    HS16186   5.852   0.884  10.729  0.3460 -1.8154 -0.8308
  147SAPE   O2116187   5.994   0.727  10.723  0.4773 -0.3088 -0.5360
  147SAPE   C2116188   5.968   0.710  10.600  0.2417 -0.2582 -0.1249
  147SAPE   O2216189   5.900   0.785  10.528 -0.6776  0.3232  0.4902
  147SAPE   C2216190   6.042   0.587  10.540  0.1786 -0.4797  0.1042
  147SAPE   H2R16191   6.086   0.533  10.627  1.9585 -0.8425 -0.9717
  147SAPE   H2S16192   5.967   0.527  10.485  0.2127 -1.6252  1.2557
  147SAPE    C316193   6.051   0.967  10.766  0.2903 -0.2456 -0.0775
  147SAPE    HX16194   6.135   0.913  10.814 -0.9760 -2.3686 -0.1076
  147SAPE    HY16195   6.031   1.060  10.823 -0.0914 -0.2607 -0.1829
  147SAPE   O3116196   6.089   1.007  10.632  0.2894 -0.1902 -0.0735
  147SAPE   C3116197   6.002   1.085  10.570 -0.6078 -0.7185  0.4909
  147SAPE   O3216198   5.890   1.099  10.609 -0.2300 -0.6148  0.6851
  147SAPE   C3216199   6.060   1.131  10.430 -0.9219 -0.3207  0.7502
  147SAPE   H2X16200   6.111   1.046  10.378 -2.0378 -0.9067  0.5853
  147SAPE   H2Y16201   6.143   1.198  10.459  0.0019 -0.9662 -0.2920
  147SAPE   C2316202   6.155   0.633  10.440  0.5490  0.4518 -0.1027
  147SAPE   H3R16203   6.231   0.553  10.428  0.1419  0.1545 -0.7516
  147SAPE   H3S16204   6.205   0.728  10.468 -1.3512  1.8827 -1.2692
  147SAPE   C2416205   6.112   0.651  10.296 -0.0647  1.0574  0.4982
  147SAPE   H4R16206   6.008   0.690  10.298 -0.3644  0.3963 -0.9687
  147SAPE   H4S16207   6.109   0.552  10.246 -0.1065  0.9670  0.6784
  147SAPE   C2516208   6.203   0.749  10.220  1.0598 -0.2632 -0.2997
  147SAPE   H5R16209   6.197   0.850  10.263  0.4917 -0.0838 -0.7997
  147SAPE   C2616210   6.289   0.725  10.122  0.0027  0.3332  0.0530
  147SAPE   H6R16211   6.336   0.815  10.082 -1.1375  1.4748  1.1906
  147SAPE   C2716212   6.315   0.592  10.057  0.3226 -0.1137 -0.8830
  147SAPE   H7R16213   6.312   0.508  10.130 -0.3316  2.3579  2.1425
  147SAPE   H7S16214   6.419   0.601  10.019  0.6389  0.7008  0.1366
  147SAPE   C2816215   6.211   0.555   9.949  0.0568 -0.6497  0.4785
  147SAPE   H8R16216   6.108   0.530   9.978 -0.5145  0.3632 -0.5614
  147SAPE   C2916217   6.241   0.557   9.818 -0.1729  0.2489  0.4506
  147SAPE   H9R16218   6.152   0.535   9.757 -0.5583  1.3297  0.6183
  147SAPE  C21016219   6.369   0.589   9.743  0.8916  0.0127  0.1778
  147SAPE  H10R16220   6.388   0.502   9.676 -1.3979 -1.1248  0.9050
  147SAPE  H10S16221   6.455   0.599   9.813  2.1245 -0.0085 -1.2620
  147SAPE  C21116222   6.372   0.716   9.662  0.4458  0.5064 -0.0609
  147SAPE  H11R16223   6.404   0.808   9.713 -0.3109 -0.1231  1.6312
  147SAPE  C21216224   6.355   0.724   9.531 -0.6011 -0.9657  0.2273
  147SAPE  H12R16225   6.354   0.823   9.481  2.4081 -1.1372 -0.3504
  147SAPE  C21316226   6.319   0.606   9.437 -0.1227 -0.3291 -0.8831
  147SAPE  H13R16227   6.213   0.582   9.462 -0.4494  1.1719 -0.7528
  147SAPE  H13S16228   6.366   0.509   9.462 -0.3302 -0.2148 -0.0125
  147SAPE  C21416229   6.343   0.636   9.292 -0.7816 -1.2361  0.3778
  147SAPE  H14R16230   6.264   0.685   9.234 -0.8253  1.9283  2.8418
  147SAPE  C21516231   6.468   0.612   9.243 -0.9110 -0.0882 -0.3768
  147SAPE  H15R16232   6.476   0.631   9.134 -0.5304  0.8905 -0.1930
  147SAPE  C21616233   6.600   0.561   9.314 -0.0423  0.0401 -0.5392
  147SAPE  H16R16234   6.565   0.537   9.417 -0.7916 -0.7381 -0.9593
  147SAPE  H16S16235   6.685   0.631   9.326 -0.6363  0.2854  4.8138
  147SAPE  C21716236   6.658   0.434   9.263  0.6205 -0.0345  0.2959
  147SAPE  H17R16237   6.581   0.356   9.243 -1.8175  2.3886 -0.3530
  147SAPE  H17S16238   6.730   0.391   9.336  0.0469 -1.8337 -0.1357
  147SAPE  C21816239   6.739   0.461   9.130 -0.2542 -0.3999 -0.4957
  147SAPE  H18R16240   6.805   0.545   9.162 -1.4144  0.4754 -0.3293
  147SAPE  H18S16241   6.666   0.492   9.053  1.7618  2.3815 -1.4537
  147SAPE  C21916242   6.804   0.334   9.085 -0.0060 -0.0398 -0.2353
  147SAPE  H19R16243   6.730   0.257   9.117 -1.5159  2.1828  1.9933
  147SAPE  H19S16244   6.901   0.321   9.136 -0.7338 -0.8132  0.9994
  147SAPE  C22016245   6.817   0.337   8.936 -0.0999  0.3606 -0.0423
  147SAPE  H20R16246   6.894   0.411   8.904 -1.9493  0.8229 -3.8663
  147SAPE  H20S16247   6.719   0.364   8.892 -0.7201  1.7813  2.0341
  147SAPE  H20T16248   6.848   0.233   8.911 -0.9655  0.0795  0.0374
  147SAPE   C3316249   5.958   1.208  10.351 -0.4773  0.3710  0.5583
  147SAPE   H3X16250   5.900   1.279  10.413  0.4663  0.9247  0.8182
  147SAPE   H3Y16251   5.892   1.131  10.304 -0.6600  0.0940  1.2612
  147SAPE   C3416252   6.031   1.280  10.238  0.2412 -0.3855 -0.4213
  147SAPE   H4X16253   6.117   1.331  10.286  0.2708  0.0899 -0.9661
  147SAPE   H4Y16254   5.968   1.360  10.195  1.6047  0.7597 -0.3473
  147SAPE   C3516255   6.073   1.180  10.122 -0.4006  0.1477 -0.2883
  147SAPE   H5X16256   5.980   1.135  10.081 -0.1162 -1.1587  0.4331
  147SAPE   H5Y16257   6.141   1.100  10.159 -1.0489  0.0736  0.7898
  147SAPE   C3616258   6.146   1.255  10.007  0.2690 -0.1195 -0.0131
  147SAPE   H6X16259   6.235   1.312  10.043  0.0382  0.2415 -0.0098
  147SAPE   H6Y16260   6.069   1.326   9.970  0.2840 -0.0471  0.0951
  147SAPE   C3716261   6.181   1.165   9.892 -0.5207 -0.4231  0.4403
  147SAPE   H7X16262   6.115   1.077   9.872  2.3133 -2.7334  0.5228
  147SAPE   H7Y16263   6.280   1.119   9.915 -0.0854 -0.4991 -1.4357
  147SAPE   C3816264   6.175   1.259   9.767 -0.1564  0.2564  0.2289
  147SAPE   H8X16265   6.239   1.348   9.785 -0.0739 -0.1102  1.9129
  147SAPE   H8Y16266   6.069   1.290   9.756  0.3069  3.0714  2.4851
  147SAPE   C3916267   6.226   1.180   9.650  0.4551 -0.2422 -0.7716
  147SAPE   H9X16268   6.168   1.086   9.637 -0.8713  0.1959  1.3502
  147SAPE   H9Y16269   6.333   1.160   9.673  0.4397  1.2024  0.7318
  147SAPE  C31016270   6.208   1.258   9.516 -0.2856 -0.0410 -0.3003
  147SAPE  H10X16271   6.277   1.346   9.517 -1.3135  0.8647  2.4951
  147SAPE  H10Y16272   6.100   1.283   9.516 -0.5327 -0.8983  1.7365
  147SAPE  C31116273   6.228   1.180   9.386 -0.0481 -0.1220 -0.0792
  147SAPE  H11X16274   6.153   1.099   9.403 -0.0671  0.1098  1.0377
  147SAPE  H11Y16275   6.327   1.130   9.382  0.0020  0.0985 -2.3702
  147SAPE  C31216276   6.206   1.258   9.255  0.7322  0.7074  0.8505
  147SAPE  H12X16277   6.262   1.354   9.257 -0.5060  1.4404  1.3033
  147SAPE  H12Y16278   6.100   1.286   9.238  1.0926 -0.1085 -4.7123
  147SAPE  C31316279   6.261   1.179   9.133 -0.3526  0.0670  0.1287
  147SAPE  H13X16280   6.214   1.078   9.131  0.1953 -0.1888 -1.1689
  147SAPE  H13Y16281   6.370   1.164   9.149 -0.8301 -2.5970  1.5716
  147SAPE  C31416282   6.253   1.253   8.996  0.1100 -0.1673  0.4992
  147SAPE  H14X16283   6.318   1.206   8.919 -0.1240  2.0978 -1.1911
  147SAPE  H14Y16284   6.285   1.359   9.000  0.4121 -0.2324 -0.0347
  147SAPE  C31516285   6.113   1.251   8.935  0.4858  0.0552 -0.5344
  147SAPE  H15X16286   6.037   1.313   8.988 -0.4280 -1.7740  0.4251
  147SAPE  H15Y16287   6.069   1.149   8.946  1.1000 -0.0638  1.0886
  147SAPE  C31616288   6.119   1.300   8.794 -0.3332  0.2737  0.0545
  147SAPE  H16X16289   6.020   1.291   8.746  0.1334 -0.6958 -0.7709
  147SAPE  H16Y16290   6.180   1.230   8.732  0.5699  1.1853 -0.1239
  147SAPE  C31716291   6.159   1.448   8.763 -0.0729 -0.2562 -0.2272
  147SAPE  H17X16292   6.144   1.454   8.653  3.3020  1.6223 -0.7140
  147SAPE  H17Y16293   6.268   1.466   8.767 -0.1139  0.6919 -2.2798
  147SAPE  C31816294   6.097   1.556   8.850  0.5595  0.2937  0.4114
  147SAPE  H18X16295   6.123   1.663   8.833 -0.3185  0.2295 -1.6862
  147SAPE  H18Y16296   6.120   1.529   8.955  1.7743 -0.5291 -0.0609
  147SAPE  H18Z16297   5.987   1.553   8.832  0.3577 -1.2013  1.6902
  148SAPE     N16298   4.971   2.968  10.971  0.1248 -0.1409  0.0607
  148SAPE   HN116299   4.912   3.046  11.006 -1.6290 -0.6556 -1.5812
  148SAPE   HN216300   4.928   2.876  10.994 -2.2872  1.2432  1.4887
  148SAPE   HN316301   5.061   2.978  11.022  1.1830 -0.2468 -1.7157
  148SAPE   C1216302   4.998   2.977  10.833 -0.3069  0.4520 -0.2472
  148SAPE  H12A16303   4.920   2.922  10.776 -0.3815  0.9291 -0.6183
  148SAPE  H12B16304   5.096   2.930  10.814 -0.0736  0.5049  0.8120
  148SAPE   C1116305   5.000   3.131  10.803 -0.7281  0.6004  0.2944
  148SAPE  H11A16306   5.015   3.141  10.693 -3.0527 -0.5028 -0.1857
  148SAPE  H11B16307   5.089   3.180  10.848 -0.2957 -1.2299  1.5469
  148SAPE     P16308   4.745   3.207  10.784 -0.2606  0.2201 -0.1590
  148SAPE   O1316309   4.694   3.071  10.759 -0.1842 -0.0413 -0.5157
  148SAPE   O1416310   4.657   3.297  10.858 -0.0275 -0.1107  0.2092
  148SAPE   O1216311   4.884   3.205  10.855 -0.2338 -0.1449  0.3127
  148SAPE   O1116312   4.778   3.274  10.645  0.7555  0.2662 -0.1126
  148SAPE    C116313   4.850   3.397  10.642  0.8213  0.1651 -0.1445
  148SAPE    HA16314   4.789   3.482  10.680  0.3126  0.1620 -0.9058
  148SAPE    HB16315   4.943   3.391  10.702  1.7033  0.8800 -1.3731
  148SAPE    C216316   4.897   3.431  10.503 -0.2821  0.7280  0.5054
  148SAPE    HS16317   4.975   3.364  10.461 -1.0696  1.6111 -2.6015
  148SAPE   O2116318   4.948   3.564  10.506  0.1323 -0.1682 -0.2977
  148SAPE   C2116319   5.080   3.582  10.507  0.4367  0.1657  0.0885
  148SAPE   O2216320   5.161   3.494  10.481  0.0602  0.5446  0.2669
  148SAPE   C2216321   5.117   3.725  10.545 -0.9021  0.0920 -0.1668
  148SAPE   H2R16322   5.070   3.747  10.643  1.4280 -1.1167  1.2965
  148SAPE   H2S16323   5.228   3.732  10.551 -0.8106 -1.5639  0.6264
  148SAPE    C316324   4.782   3.424  10.402  0.3950  0.6118 -0.2480
  148SAPE    HX16325   4.695   3.486  10.434 -2.3865 -4.1441  2.7663
  148SAPE    HY16326   4.745   3.319  10.393  0.4838  0.4878  0.7188
  148SAPE   O3116327   4.836   3.460  10.269 -0.2455  0.7066  0.2228
  148SAPE   C3116328   4.900   3.360  10.205 -0.1974 -0.9222  0.0264
  148SAPE   O3216329   4.939   3.258  10.259  0.2267 -0.2672  0.4758
  148SAPE   C3216330   4.934   3.401  10.064 -0.4025  0.0944  0.2521
  148SAPE   H2X16331   4.995   3.494  10.058 -0.6993  0.2332 -0.8154
  148SAPE   H2Y16332   4.843   3.426  10.006  1.1976  1.4179 -1.8365
  148SAPE   C2316333   5.055   3.831  10.438 -0.2423 -0.6455  0.0515
  148SAPE   H3R16334   5.043   3.929  10.489 -0.0642 -0.2354 -0.6701
  148SAPE   H3S16335   4.953   3.795  10.416 -0.2182 -0.7553  0.1211
  148SAPE   C2416336   5.128   3.853  10.305 -0.2958 -0.5195 -0.6744
  148SAPE   H4R16337   5.228   3.891  10.336 -0.8670  1.3206 -0.9479
  148SAPE   H4S16338   5.085   3.939  10.249  0.7374  1.5906  1.5610
  148SAPE   C2516339   5.134   3.735  10.214 -0.5659  0.4901 -0.0192
  148SAPE   H5R16340   5.045   3.670  10.209 -0.4353  0.2442  0.7774
  148SAPE   C2616341   5.240   3.698  10.140  0.0769 -0.1036  0.0471
  148SAPE   H6R16342   5.234   3.608  10.078 -1.4024 -0.6629  0.9559
  148SAPE   C2716343   5.376   3.775  10.135  0.4791  0.4916  1.1698
  148SAPE   H7R16344   5.456   3.699  10.132  0.6813  0.7018 -1.5888
  148SAPE   H7S16345   5.395   3.843  10.221  2.1697 -0.2310  1.4011
  148SAPE   C2816346   5.375   3.866  10.010 -0.1024 -0.0138 -0.1510
  148SAPE   H8R16347   5.365   3.974  10.032 -1.2986 -0.4711  1.8086
  148SAPE   C2916348   5.422   3.824   9.894  0.1722 -0.2568  0.3419
  148SAPE   H9R16349   5.419   3.891   9.807 -0.5849 -1.9662 -1.0041
  148SAPE  C21016350   5.473   3.688   9.857  0.6030 -0.6210  0.5096
  148SAPE  H10R16351   5.486   3.614   9.939  0.2159 -0.4414  0.7391
  148SAPE  H10S16352   5.576   3.699   9.817  0.5629 -1.3006  0.2170
  148SAPE  C21116353   5.390   3.631   9.742  0.3621  0.3559 -0.0488
  148SAPE  H11R16354   5.282   3.619   9.759  0.2292  1.9158  0.3868
  148SAPE  C21216355   5.427   3.617   9.618 -0.2385 -0.1768  0.5695
  148SAPE  H12R16356   5.352   3.573   9.551 -1.9718  1.8377  1.1114
  148SAPE  C21316357   5.556   3.648   9.549  0.2210 -0.1429 -0.1514
  148SAPE  H13R16358   5.570   3.562   9.480  0.9476 -1.4865  1.5740
  148SAPE  H13S16359   5.641   3.645   9.621 -0.8182 -0.1035  1.1123
  148SAPE  C21416360   5.565   3.781   9.478 -0.5907 -0.5364 -0.0462
  148SAPE  H14R16361   5.563   3.870   9.543  3.4355  0.1240 -0.5784
  148SAPE  C21516362   5.581   3.799   9.345 -0.3018  0.0283 -0.4131
  148SAPE  H15R16363   5.598   3.904   9.317 -4.3696  0.7517 -0.7242
  148SAPE  C21616364   5.581   3.688   9.241 -0.1722 -0.0205 -0.8120
  148SAPE  H16R16365   5.520   3.715   9.152  0.1456  1.6114 -0.5675
  148SAPE  H16S16366   5.517   3.613   9.291  2.1932  0.0823  2.7217
  148SAPE  C21716367   5.712   3.619   9.196  0.6842 -0.5264 -0.4228
  148SAPE  H17R16368   5.689   3.510   9.190 -1.8324  0.0038 -1.4497
  148SAPE  H17S16369   5.806   3.635   9.254  1.7455  0.5509 -2.3263
  148SAPE  C21816370   5.755   3.658   9.051  0.4659  0.1381 -0.2373
  148SAPE  H18R16371   5.663   3.662   8.988 -0.1600 -2.2789  0.4066
  148SAPE  H18S16372   5.819   3.582   9.001  0.8467  1.1222 -1.3130
  148SAPE  C21916373   5.827   3.796   9.048 -0.6437 -0.0771  0.4191
  148SAPE  H19R16374   5.915   3.783   9.114 -1.4792 -2.0817  1.2107
  148SAPE  H19S16375   5.770   3.878   9.098 -2.4724  0.1790 -1.9174
  148SAPE  C22016376   5.866   3.846   8.906 -0.1434  0.4206 -0.6781
  148SAPE  H20R16377   5.789   3.814   8.833  0.7557  0.3887 -1.6335
  148SAPE  H20S16378   5.963   3.800   8.877 -0.0327  0.3897 -0.2654
  148SAPE  H20T16379   5.875   3.956   8.911 -2.0498  0.5967 -0.5923
  148SAPE   C3316380   5.032   3.300   9.992 -0.6240 -0.4316 -0.5165
  148SAPE   H3X16381   5.008   3.193  10.008 -0.9126 -0.2840  0.0425
  148SAPE   H3Y16382   5.137   3.317  10.025 -0.2646 -0.7610 -1.4526
  148SAPE   C3416383   5.022   3.327   9.841 -0.3484 -0.2525 -0.0277
  148SAPE   H4X16384   5.053   3.429   9.812 -3.3778  0.2874 -1.7737
  148SAPE   H4Y16385   4.918   3.318   9.803 -0.3905 -2.7585  0.4782
  148SAPE   C3516386   5.110   3.223   9.766  0.1577 -0.0015  0.3790
  148SAPE   H5X16387   5.073   3.118   9.765  2.0697 -0.7592 -1.7508
  148SAPE   H5Y16388   5.210   3.220   9.815  0.9939 -2.9422 -1.2703
  148SAPE   C3616389   5.143   3.273   9.621  0.2187  0.2558  0.0904
  148SAPE   H6X16390   5.178   3.378   9.636 -0.1550  0.4926 -0.6890
  148SAPE   H6Y16391   5.046   3.282   9.569  0.1777 -2.4817 -0.4581
  148SAPE   C3716392   5.231   3.191   9.530 -0.2595 -0.0738  0.0869
  148SAPE   H7X16393   5.172   3.099   9.510 -2.8550  1.3424  0.7666
  148SAPE   H7Y16394   5.327   3.158   9.576  1.8416  2.4501 -2.1641
  148SAPE   C3816395   5.275   3.277   9.412  0.0927  1.2808  0.6754
  148SAPE   H8X16396   5.331   3.371   9.434 -1.3852  2.1292  0.9145
  148SAPE   H8Y16397   5.182   3.310   9.361  0.5684  0.3847 -0.8552
  148SAPE   C3916398   5.360   3.184   9.320  0.2040 -0.2315  0.0220
  148SAPE   H9X16399   5.294   3.100   9.289  0.3067 -0.7683  1.2294
  148SAPE   H9Y16400   5.444   3.137   9.375 -0.2433  1.1938  2.0270
  148SAPE  C31016401   5.398   3.270   9.199  0.0979  0.4581  0.3422
  148SAPE  H10X16402   5.461   3.356   9.230 -1.6533  1.8148  0.2684
  148SAPE  H10Y16403   5.318   3.306   9.132  1.2723  0.3451 -1.1895
  148SAPE  C31116404   5.496   3.184   9.115 -0.1745  0.3810 -0.3935
  148SAPE  H11X16405   5.450   3.085   9.098 -0.1685  0.3850 -0.4318
  148SAPE  H11Y16406   5.587   3.166   9.176  0.0259  1.4579 -0.3593
  148SAPE  C31216407   5.530   3.242   8.978  0.6079  0.2732  0.2172
  148SAPE  H12X16408   5.559   3.347   9.000 -1.2810  0.8878  0.0036
  148SAPE  H12Y16409   5.432   3.247   8.927  1.5815  0.3880 -1.7307
  148SAPE  C31316410   5.629   3.167   8.894 -0.5607  0.7886  0.6039
  148SAPE  H13X16411   5.597   3.060   8.887  0.7739  0.3092  1.5035
  148SAPE  H13Y16412   5.724   3.171   8.951 -0.6213  1.6478  0.6549
  148SAPE  C31416413   5.657   3.220   8.753 -0.3513 -0.3250  0.1312
  148SAPE  H14X16414   5.564   3.240   8.696 -0.4841 -2.6773 -0.5771
  148SAPE  H14Y16415   5.688   3.143   8.680 -0.5728  0.1975 -0.5174
  148SAPE  C31516416   5.749   3.347   8.744  0.4096 -0.6736  0.4842
  148SAPE  H15X16417   5.854   3.322   8.771  1.0079 -0.2167 -1.2798
  148SAPE  H15Y16418   5.708   3.425   8.811 -2.7543 -2.1383  0.4351
  148SAPE  C31616419   5.746   3.405   8.603  0.9528 -0.8207  0.0635
  148SAPE  H16X16420   5.647   3.441   8.568  1.4481  0.7083  0.1545
  148SAPE  H16Y16421   5.772   3.322   8.535  0.5616 -0.0235 -1.0902
  148SAPE  C31716422   5.846   3.520   8.588 -0.6534 -0.3287 -0.3248
  148SAPE  H17X16423   5.939   3.498   8.644  0.1301  1.7576 -0.7145
  148SAPE  H17Y16424   5.809   3.618   8.626  1.2452  0.2387  0.1685
  148SAPE  C31816425   5.892   3.548   8.443 -0.2566  0.4375 -0.1775
  148SAPE  H18X16426   5.811   3.578   8.373  0.4423 -0.4463 -1.4147
  148SAPE  H18Y16427   5.924   3.447   8.411 -0.1066 -1.0283  4.0380
  148SAPE  H18Z16428   5.976   3.620   8.442  0.7148 -0.6562 -1.3586
  149SAPE     N16429   6.499   3.196  11.062 -0.2303 -0.1544 -0.0840
  149SAPE   HN116430   6.528   3.105  11.021 -1.5051 -1.4405  1.7255
  149SAPE   HN216431   6.528   3.203  11.161  0.6608 -1.9283 -0.1804
  149SAPE   HN316432   6.395   3.195  11.058 -0.2096  0.0739 -1.5151
  149SAPE   C1216433   6.554   3.318  10.990 -0.2319 -0.1908 -0.6169
  149SAPE  H12A16434   6.497   3.329  10.895 -1.0292 -1.4829 -0.3072
  149SAPE  H12B16435   6.659   3.290  10.966 -0.2133  0.2770 -1.0964
  149SAPE   C1116436   6.536   3.440  11.077  0.3996 -1.1455 -0.1803
  149SAPE  H11A16437   6.563   3.536  11.028 -1.3037 -0.9181 -0.7361
  149SAPE  H11B16438   6.600   3.424  11.167 -0.2295  0.2861  0.5658
  149SAPE     P16439   6.292   3.549  11.068  0.3326  0.2927  0.0643
  149SAPE   O1316440   6.161   3.477  11.057  0.2432 -0.3655  0.6255
  149SAPE   O1416441   6.294   3.675  11.148 -0.4851  0.0167  0.7697
  149SAPE   O1216442   6.400   3.454  11.131  0.7282  0.1835  0.2469
  149SAPE   O1116443   6.342   3.570  10.926  0.0032  0.3952  0.4625
  149SAPE    C116444   6.241   3.587  10.824 -0.1546 -0.1509  0.1349
  149SAPE    HA16445   6.232   3.502  10.753  0.0233  0.4148 -0.5697
  149SAPE    HB16446   6.136   3.599  10.857  0.6322 -0.4687  3.0686
  149SAPE    C216447   6.280   3.706  10.728 -0.3075 -0.4328  0.0831
  149SAPE    HS16448   6.222   3.794  10.762  0.7621  0.4007 -0.1949
  149SAPE   O2116449   6.248   3.681  10.590 -0.7240  0.3553  0.1182
  149SAPE   C2116450   6.118   3.698  10.555 -0.0348 -0.0346  0.2083
  149SAPE   O2216451   6.027   3.729  10.636 -0.3350  0.1807  0.0436
  149SAPE   C2216452   6.101   3.664  10.406 -0.2426 -0.4234  0.0199
  149SAPE   H2R16453   6.169   3.730  10.348  0.5172 -1.5431 -0.4018
  149SAPE   H2S16454   6.130   3.557  10.395 -1.7228 -1.1091  2.1080
  149SAPE    C316455   6.439   3.739  10.738  0.2074 -0.2757 -0.5442
  149SAPE    HX16456   6.477   3.637  10.717  1.6946  0.2190 -0.3434
  149SAPE    HY16457   6.448   3.770  10.845 -0.7265  0.3075 -0.6166
  149SAPE   O3116458   6.486   3.835  10.644 -0.0421  0.0190  0.1157
  149SAPE   C3116459   6.620   3.841  10.615  0.1773  0.8286  0.3001
  149SAPE   O3216460   6.711   3.776  10.665  0.6605  0.0804  0.0843
  149SAPE   C3216461   6.648   3.955  10.520  0.3110 -0.2486 -0.2463
  149SAPE   H2X16462   6.588   4.045  10.541 -0.6238 -0.9173  0.0076
  149SAPE   H2Y16463   6.634   3.930  10.412  0.9438 -0.0110 -0.3878
  149SAPE   C2316464   5.954   3.674  10.363  0.1252 -0.4845 -0.3434
  149SAPE   H3R16465   5.926   3.781  10.364  1.3573 -0.1449  0.8442
  149SAPE   H3S16466   5.891   3.620  10.436 -1.5678 -0.0297 -1.4070
  149SAPE   C2416467   5.936   3.617  10.223 -0.7691 -0.0167 -0.0592
  149SAPE   H4R16468   5.987   3.519  10.236 -0.4022  0.2293  0.3799
  149SAPE   H4S16469   5.992   3.685  10.155 -0.9444 -0.7969 -1.0078
  149SAPE   C2516470   5.792   3.596  10.170  0.1247  0.3610 -0.3160
  149SAPE   H5R16471   5.713   3.566  10.239  0.9053 -2.9798 -0.7403
  149SAPE   C2616472   5.758   3.601  10.039 -0.6846 -0.1450  0.3224
  149SAPE   H6R16473   5.655   3.568  10.023 -0.6928  0.3289 -0.6650
  149SAPE   C2716474   5.843   3.626   9.918  0.2985 -0.0424  0.1830
  149SAPE   H7R16475   5.847   3.734   9.896  1.9890  0.1453  1.2643
  149SAPE   H7S16476   5.783   3.578   9.837  0.8297 -0.0840 -0.1906
  149SAPE   C2816477   5.982   3.572   9.909 -0.3572 -0.2329 -0.5198
  149SAPE   H8R16478   6.009   3.493   9.981 -1.0025 -0.3377 -0.3807
  149SAPE   C2916479   6.075   3.610   9.822 -0.4924  0.8453  0.3473
  149SAPE   H9R16480   6.170   3.554   9.826 -1.9655 -1.7493  1.5823
  149SAPE  C21016481   6.056   3.715   9.714  0.5449 -0.2654  0.0743
  149SAPE  H10R16482   6.155   3.746   9.675 -0.2277  0.8271 -1.1046
  149SAPE  H10S16483   6.001   3.801   9.758 -0.5814 -1.3411  0.8574
  149SAPE  C21116484   5.978   3.638   9.610 -0.0331  0.0647  0.4059
  149SAPE  H11R16485   5.882   3.593   9.642  0.4170  0.2626  2.0908
  149SAPE  C21216486   6.024   3.629   9.483  1.1068  0.3539 -0.1498
  149SAPE  H12R16487   5.956   3.572   9.417  1.3934 -0.2896  0.1017
  149SAPE  C21316488   6.153   3.672   9.421 -0.1465 -0.1684 -0.2577
  149SAPE  H13R16489   6.211   3.743   9.485 -0.5036 -0.9342  0.9442
  149SAPE  H13S16490   6.127   3.722   9.325  0.9127 -2.2509 -1.7139
  149SAPE  C21416491   6.243   3.554   9.385 -0.3881  0.6125 -0.6526
  149SAPE  H14R16492   6.236   3.480   9.467 -1.5517  1.0925 -0.2992
  149SAPE  C21516493   6.297   3.522   9.268  0.4539 -0.1145 -0.3376
  149SAPE  H15R16494   6.362   3.433   9.261 -0.4191 -0.8930  0.8821
  149SAPE  C21616495   6.291   3.603   9.142  0.6166 -0.3737  0.3842
  149SAPE  H16R16496   6.256   3.708   9.152  0.3122 -0.5348  1.0347
  149SAPE  H16S16497   6.210   3.555   9.084  1.8040 -1.9138 -0.0763
  149SAPE  C21716498   6.405   3.593   9.044 -0.5007 -0.5317  0.8343
  149SAPE  H17R16499   6.421   3.486   9.020  1.3418 -0.1755  0.3450
  149SAPE  H17S16500   6.498   3.604   9.104 -0.5673 -0.9776  1.0236
  149SAPE  C21816501   6.389   3.668   8.911  0.4225 -0.2388 -0.1168
  149SAPE  H18R16502   6.487   3.654   8.861  0.0071  2.2847 -1.8477
  149SAPE  H18S16503   6.372   3.778   8.918 -1.2822 -0.3489 -1.8461
  149SAPE  C21916504   6.280   3.622   8.817  0.5112 -0.0163  0.5004
  149SAPE  H19R16505   6.185   3.627   8.874  0.3316 -0.0688  0.2036
  149SAPE  H19S16506   6.279   3.513   8.796 -0.2818  0.5327 -2.8436
  149SAPE  C22016507   6.288   3.697   8.685 -0.5732 -0.1167  0.0202
  149SAPE  H20R16508   6.310   3.806   8.687  2.7781 -0.6877  0.6274
  149SAPE  H20S16509   6.201   3.670   8.621 -1.0381  0.5707  0.3478
  149SAPE  H20T16510   6.383   3.664   8.639 -0.0134 -0.5863  1.4602
  149SAPE   C3316511   6.796   3.991  10.544  1.2535  0.9113  0.1966
  149SAPE   H3X16512   6.862   3.906  10.513 -1.6231 -1.5578  0.3786
  149SAPE   H3Y16513   6.820   4.006  10.651  1.9087 -1.4242  0.4476
  149SAPE   C3416514   6.841   4.104  10.464  0.3582  0.3172  0.3715
  149SAPE   H4X16515   6.942   4.135  10.497  0.3685  3.0475 -1.8615
  149SAPE   H4Y16516   6.778   4.194  10.484 -0.6813 -0.2094 -0.4112
  149SAPE   C3516517   6.853   4.077  10.313 -0.4223 -0.3442 -0.2883
  149SAPE   H5X16518   6.750   4.070  10.273 -0.7633 -0.4520  0.5766
  149SAPE   H5Y16519   6.910   3.982  10.301 -1.4532 -0.7895 -1.8906
  149SAPE   C3616520   6.930   4.186  10.233 -0.1460 -0.0159 -0.6998
  149SAPE   H6X16521   7.033   4.172  10.272 -0.7391 -1.3241  0.4981
  149SAPE   H6Y16522   6.889   4.283  10.267 -1.5268 -1.3904  1.9236
  149SAPE   C3716523   6.918   4.170  10.087  0.0491 -0.9537  0.0000
  149SAPE   H7X16524   6.812   4.202  10.072  0.3247 -0.1041 -0.2384
  149SAPE   H7Y16525   6.937   4.066  10.055  1.8469 -0.7748  0.4372
  149SAPE   C3816526   7.001   4.254   9.985 -0.6051 -0.6243  0.0269
  149SAPE   H8X16527   7.109   4.250  10.008 -0.0729 -2.0648 -2.4209
  149SAPE   H8Y16528   6.971   4.361   9.987  1.1827 -0.1101  0.2008
  149SAPE   C3916529   6.974   4.207   9.839  0.2434 -0.6028 -0.3393
  149SAPE   H9X16530   6.864   4.201   9.824  0.0409  0.3166  0.6066
  149SAPE   H9Y16531   7.025   4.109   9.828  1.3664  0.0136 -0.7727
  149SAPE  C31016532   7.034   4.305   9.744 -0.1922 -0.6869  0.0306
  149SAPE  H10X16533   7.143   4.305   9.760  0.2186 -3.5917 -1.9121
  149SAPE  H10Y16534   6.988   4.404   9.765 -1.8642 -0.5479 -3.4759
  149SAPE  C31116535   7.009   4.273   9.600  0.4934  0.1408  0.1033
  149SAPE  H11X16536   6.899   4.283   9.595  0.5475  0.0294 -1.9453
  149SAPE  H11Y16537   7.044   4.169   9.583  0.6839  0.0694  0.8658
  149SAPE  C31216538   7.072   4.358   9.490 -1.1273  0.0663 -0.1003
  149SAPE  H12X16539   7.180   4.357   9.517 -1.2508  1.3659  0.5135
  149SAPE  H12Y16540   7.036   4.463   9.492 -0.4436  0.3026  1.3773
  149SAPE  C31316541   7.035   4.303   9.354 -0.0768 -0.1208  0.8977
  149SAPE  H13X16542   6.932   4.337   9.331  0.7670  1.0025 -1.4871
  149SAPE  H13Y16543   7.033   4.192   9.357 -0.3361 -0.1668 -0.4566
  149SAPE  C31416544   7.128   4.352   9.238 -0.4704 -0.1157  0.5523
  149SAPE  H14X16545   7.233   4.324   9.260 -0.0235  1.2866  0.3191
  149SAPE  H14Y16546   7.114   4.462   9.236 -0.9216 -0.1545  1.1304
  149SAPE  C31516547   7.079   4.288   9.110  1.0983  0.2762  0.5501
  149SAPE  H15X16548   6.975   4.325   9.101  0.2587 -2.2132 -1.0312
  149SAPE  H15Y16549   7.064   4.178   9.107  1.4629  0.1333  2.6624
  149SAPE  C31616550   7.173   4.324   8.991  0.0569 -0.1082  0.9548
  149SAPE  H16X16551   7.273   4.303   9.036 -0.4474  1.4866  2.9777
  149SAPE  H16Y16552   7.174   4.433   8.972 -0.1033 -0.5300 -1.8122
  149SAPE  C31716553   7.154   4.252   8.861 -0.1441  0.7304  0.0038
  149SAPE  H17X16554   7.147   4.144   8.887  0.2286  0.7381  0.1454
  149SAPE  H17Y16555   7.246   4.261   8.799  1.7137  1.0850  2.6763
  149SAPE  C31816556   7.029   4.294   8.789  0.0421 -0.5354 -0.5866
  149SAPE  H18X16557   7.040   4.400   8.759  1.6447 -0.4964  0.0289
  149SAPE  H18Y16558   6.932   4.285   8.842 -0.7385  3.2280 -1.0937
  149SAPE  H18Z16559   7.037   4.238   8.694  3.6863 -1.1867 -0.0457
  150SAPE     N16560   2.776   3.116  10.934 -0.2165  0.0752  0.7573
  150SAPE   HN116561   2.794   3.131  10.833  0.0740  2.9423  1.1548
  150SAPE   HN216562   2.791   3.020  10.972 -0.4064  0.2841  1.3617
  150SAPE   HN316563   2.680   3.154  10.944 -0.0312  0.4456  1.1872
  150SAPE   C1216564   2.859   3.209  11.012 -0.2618  0.6303  0.7471
  150SAPE  H12A16565   2.961   3.166  11.020 -1.0986 -1.1327  2.7870
  150SAPE  H12B16566   2.817   3.216  11.114 -0.3162 -0.5457  0.8189
  150SAPE   C1116567   2.878   3.354  10.953 -0.6927 -0.0585 -0.3159
  150SAPE  H11A16568   2.881   3.349  10.842  2.0545  0.0115 -0.3208
  150SAPE  H11B16569   2.977   3.393  10.985  0.4663 -1.8623 -1.5067
  150SAPE     P16570   2.791   3.602  10.957 -0.0888  0.0127  0.1987
  150SAPE   O1316571   2.680   3.678  11.012 -0.3286 -0.0997 -0.5690
  150SAPE   O1416572   2.924   3.645  10.997  0.0243  0.3067 -0.6885
  150SAPE   O1216573   2.774   3.446  10.996 -0.4196  0.0155 -0.6978
  150SAPE   O1116574   2.787   3.611  10.804  0.2075  0.2171  0.4076
  150SAPE    C116575   2.671   3.603  10.724  0.4055 -0.0828 -1.1813
  150SAPE    HA16576   2.578   3.628  10.780  1.2390 -0.2982  0.3707
  150SAPE    HB16577   2.662   3.677  10.641  0.7514 -0.3600 -1.4693
  150SAPE    C216578   2.643   3.462  10.668  0.3183 -0.0531  0.1011
  150SAPE    HS16579   2.627   3.384  10.745  0.1548 -0.4872 -0.3633
  150SAPE   O2116580   2.745   3.420  10.581  0.2215  0.3125 -0.0743
  150SAPE   C2116581   2.780   3.283  10.567 -0.0422  0.3468 -0.0460
  150SAPE   O2216582   2.735   3.198  10.644 -0.4457 -0.5342 -0.0375
  150SAPE   C2216583   2.864   3.256  10.439  0.6473 -0.0544 -0.0350
  150SAPE   H2R16584   2.872   3.349  10.379  0.0878  0.5365  0.7777
  150SAPE   H2S16585   2.964   3.231  10.480  0.5396 -0.2715  0.1003
  150SAPE    C316586   2.503   3.460  10.584  0.3654  0.0404  0.1444
  150SAPE    HX16587   2.500   3.531  10.499  1.8808  0.8962  0.7611
  150SAPE    HY16588   2.428   3.503  10.654  2.8875  1.1305  2.3886
  150SAPE   O3116589   2.472   3.328  10.533 -0.5432 -0.2462  0.4033
  150SAPE   C3116590   2.412   3.240  10.618 -0.3996  0.0013  0.1804
  150SAPE   O3216591   2.370   3.265  10.728  0.0715  0.7028  0.1488
  150SAPE   C3216592   2.412   3.099  10.548 -0.0330 -0.4324 -0.4119
  150SAPE   H2X16593   2.341   3.031  10.599 -1.5085  0.6615 -0.9439
  150SAPE   H2Y16594   2.515   3.059  10.561 -0.4735 -0.9291  2.0917
  150SAPE   C2316595   2.807   3.142  10.353  0.1626 -0.1582  0.4600
  150SAPE   H3R16596   2.696   3.147  10.359  0.2645  1.2117  2.4483
  150SAPE   H3S16597   2.837   3.045  10.398  0.9154  0.9064  2.4305
  150SAPE   C2416598   2.845   3.143  10.200 -0.5122 -0.5900 -0.4672
  150SAPE   H4R16599   2.779   3.217  10.150 -0.1271 -0.9847 -1.5703
  150SAPE   H4S16600   2.804   3.048  10.160  0.7107 -0.8277 -1.1971
  150SAPE   C2516601   2.988   3.160  10.180 -0.0066 -0.8087 -0.1565
  150SAPE   H5R16602   3.039   3.132  10.274 -1.1377  1.5464  1.2221
  150SAPE   C2616603   3.052   3.224  10.079  0.3023  0.2112 -0.3403
  150SAPE   H6R16604   3.161   3.239  10.084  0.2436  0.7614 -0.6659
  150SAPE   C2716605   2.987   3.280   9.956 -0.3632 -0.3704  0.4379
  150SAPE   H7R16606   3.018   3.385   9.939 -0.0353 -0.4178  0.7338
  150SAPE   H7S16607   2.877   3.286   9.970 -0.2386  2.8158  0.7348
  150SAPE   C2816608   3.009   3.187   9.837  0.1505  0.2510 -0.7004
  150SAPE   H8R16609   2.963   3.088   9.855 -0.2341  0.6086  0.3462
  150SAPE   C2916610   3.080   3.214   9.724  0.3581  0.1475  0.9236
  150SAPE   H9R16611   3.074   3.137   9.646 -1.9159  0.9538  0.2283
  150SAPE  C21016612   3.142   3.346   9.693 -0.3739  0.7119  0.0061
  150SAPE  H10R16613   3.251   3.333   9.680 -0.5663 -0.3535 -0.7024
  150SAPE  H10S16614   3.134   3.419   9.775  0.9216  0.3532  0.4718
  150SAPE  C21116615   3.064   3.400   9.569 -0.3225  0.5063  0.8780
  150SAPE  H11R16616   2.987   3.474   9.597 -1.8031 -0.6385 -0.0585
  150SAPE  C21216617   3.071   3.366   9.439  0.4732 -0.1128  0.5238
  150SAPE  H12R16618   3.012   3.421   9.364  2.2091 -0.8916 -1.5381
  150SAPE  C21316619   3.171   3.263   9.387 -0.5955 -0.7068  0.5447
  150SAPE  H13R16620   3.160   3.259   9.277 -1.8490  2.7271  0.4143
  150SAPE  H13S16621   3.137   3.162   9.420  2.1771 -1.0318  2.8018
  150SAPE  C21416622   3.315   3.289   9.411 -0.3423  0.2440 -0.3498
  150SAPE  H14R16623   3.357   3.391   9.408 -0.0516  0.1209 -0.5735
  150SAPE  C21516624   3.399   3.187   9.434  0.1118  0.4738  0.4190
  150SAPE  H15R16625   3.504   3.216   9.452  0.3102  0.9126 -1.3085
  150SAPE  C21616626   3.371   3.039   9.425  0.2787 -0.2664 -0.3036
  150SAPE  H16R16627   3.274   3.017   9.374  1.0680 -0.6742 -1.6726
  150SAPE  H16S16628   3.358   3.002   9.528  1.6906 -0.8258 -0.3154
  150SAPE  C21716629   3.471   2.959   9.341  0.3764  0.5826 -0.1682
  150SAPE  H17R16630   3.476   2.855   9.378  0.1535 -0.3694 -2.6119
  150SAPE  H17S16631   3.573   2.997   9.364  0.2412  0.2468  1.0791
  150SAPE  C21816632   3.447   2.960   9.191  0.4007 -0.3768  0.1137
  150SAPE  H18R16633   3.451   3.070   9.175  1.0820 -0.5816 -1.2730
  150SAPE  H18S16634   3.346   2.919   9.175 -0.2308  1.3379 -0.5484
  150SAPE  C21916635   3.558   2.890   9.103  0.1108 -0.2320 -0.7471
  150SAPE  H19R16636   3.657   2.935   9.126 -0.6975  2.2031 -1.6723
  150SAPE  H19S16637   3.533   2.914   8.997  2.9683 -0.7535 -1.6057
  150SAPE  C22016638   3.562   2.736   9.114  0.2076  1.3261 -0.5628
  150SAPE  H20R16639   3.599   2.700   9.212  0.6872 -1.6719 -1.7203
  150SAPE  H20S16640   3.626   2.689   9.036  0.0204  0.6970 -0.3420
  150SAPE  H20T16641   3.456   2.703   9.108  0.8456 -1.6518  1.9906
  150SAPE   C3316642   2.370   3.098  10.398 -0.8479 -0.2136  0.4350
  150SAPE   H3X16643   2.427   3.178  10.346  0.1133 -2.2368 -1.8128
  150SAPE   H3Y16644   2.264   3.126  10.382 -1.4702 -1.6251  1.8528
  150SAPE   C3416645   2.407   2.968  10.324 -0.1201 -0.7623 -0.5057
  150SAPE   H4X16646   2.322   2.898  10.319 -0.4201 -0.3364 -1.4632
  150SAPE   H4Y16647   2.483   2.915  10.386  0.7515  1.9774  0.9707
  150SAPE   C3516648   2.464   3.003  10.180  0.0853  0.0397 -0.6859
  150SAPE   H5X16649   2.547   3.077  10.186 -0.8473  1.0443  0.3248
  150SAPE   H5Y16650   2.390   3.046  10.108  0.9380 -1.5456 -2.5920
  150SAPE   C3616651   2.524   2.888  10.100 -0.2213 -0.2391  0.5556
  150SAPE   H6X16652   2.439   2.818  10.083 -1.1238  0.9077  0.2162
  150SAPE   H6Y16653   2.605   2.834  10.153 -0.3138 -1.9441 -0.9193
  150SAPE   C3716654   2.573   2.934   9.957 -1.0760  0.2500 -0.5075
  150SAPE   H7X16655   2.670   2.984   9.976 -0.1349 -1.8238  0.5258
  150SAPE   H7Y16656   2.499   3.001   9.908 -1.2363 -1.1440 -2.2853
  150SAPE   C3816657   2.607   2.818   9.863  0.1470  0.0861  0.0196
  150SAPE   H8X16658   2.519   2.752   9.857 -1.6893  2.1791  1.8686
  150SAPE   H8Y16659   2.692   2.761   9.905 -0.3130  0.3696  1.3684
  150SAPE   C3916660   2.644   2.865   9.712 -0.2255 -0.7058  0.3927
  150SAPE   H9X16661   2.728   2.938   9.712 -0.7176 -0.0831 -1.6270
  150SAPE   H9Y16662   2.556   2.925   9.681  0.5569  0.2670 -0.0054
  150SAPE  C31016663   2.674   2.748   9.614  0.4237 -0.1041  0.2460
  150SAPE  H10X16664   2.591   2.676   9.602 -0.3406  1.1802 -3.1880
  150SAPE  H10Y16665   2.761   2.698   9.662  0.6601  0.8623  0.8779
  150SAPE  C31116666   2.713   2.785   9.471  0.0662  0.2991  0.0838
  150SAPE  H11X16667   2.810   2.839   9.480  0.3511 -0.3077  0.8704
  150SAPE  H11Y16668   2.630   2.849   9.436  0.4278  1.0776  0.6189
  150SAPE  C31216669   2.734   2.668   9.371  0.4496 -0.2499  0.5695
  150SAPE  H12X16670   2.641   2.607   9.364 -0.4349  1.1041  0.2100
  150SAPE  H12Y16671   2.817   2.609   9.414 -0.2934 -0.4535  1.7914
  150SAPE  C31316672   2.773   2.726   9.238 -0.2014  0.3401  0.0116
  150SAPE  H13X16673   2.794   2.640   9.169  0.7709 -0.6911  1.5304
  150SAPE  H13Y16674   2.870   2.778   9.254  1.1306 -2.1214  0.5139
  150SAPE  C31416675   2.665   2.813   9.180  0.0101  0.2988 -0.3815
  150SAPE  H14X16676   2.657   2.911   9.233  1.2590 -0.4262  1.2543
  150SAPE  H14Y16677   2.567   2.762   9.191  0.0606  0.4898  1.1225
  150SAPE  C31516678   2.698   2.832   9.031  0.8174  0.4288  0.1697
  150SAPE  H15X16679   2.613   2.889   8.988  1.3027  1.1159  0.1047
  150SAPE  H15Y16680   2.686   2.731   8.986 -2.5927  0.2046  1.3123
  150SAPE  C31616681   2.835   2.906   9.009 -0.2433  0.3946  0.2284
  150SAPE  H16X16682   2.860   2.882   8.903 -0.9154 -2.2924  0.6142
  150SAPE  H16Y16683   2.924   2.860   9.058 -0.1618  0.4930  0.1746
  150SAPE  C31716684   2.835   3.053   9.030 -0.1013  0.0133 -0.5075
  150SAPE  H17X16685   2.735   3.096   9.053 -0.3994 -0.3348 -1.1229
  150SAPE  H17Y16686   2.876   3.092   8.934  1.2247  0.0598  0.0520
  150SAPE  C31816687   2.921   3.087   9.149 -0.1252 -0.3865 -0.4827
  150SAPE  H18X16688   2.910   3.017   9.234  1.0807 -0.1395 -0.1089
  150SAPE  H18Y16689   2.894   3.187   9.190 -1.1964 -0.2439 -1.4867
  150SAPE  H18Z16690   3.029   3.082   9.122  1.6712 -1.8984  5.5138
  151SAPE     N16691   1.158   0.916  10.526 -0.1286  0.5346  0.9350
  151SAPE   HN116692   1.108   0.826  10.513  4.5218 -2.0358 -1.7489
  151SAPE   HN216693   1.254   0.904  10.489  0.4132  3.9582  0.8365
  151SAPE   HN316694   1.158   0.922  10.630 -2.8157  3.4566  0.9352
  151SAPE   C1216695   1.093   1.032  10.457  0.3685  0.2001  0.3423
  151SAPE  H12A16696   0.985   1.009  10.442 -0.0450  0.5350  2.4501
  151SAPE  H12B16697   1.137   1.043  10.356  0.6075 -0.8565  0.3161
  151SAPE   C1116698   1.098   1.164  10.531 -0.1946  0.4059  0.2913
  151SAPE  H11A16699   1.063   1.149  10.635  0.2176 -0.5246  0.3102
  151SAPE  H11B16700   1.038   1.235  10.471 -0.4655  1.7810  2.0866
  151SAPE     P16701   1.289   1.312  10.622  0.0498  0.2160  0.4883
  151SAPE   O1316702   1.264   1.274  10.766  0.4315  0.0749  0.3410
  151SAPE   O1416703   1.426   1.347  10.578 -0.1148 -0.2794 -0.0410
  151SAPE   O1216704   1.236   1.196  10.524 -0.2058 -0.2094  0.1015
  151SAPE   O1116705   1.200   1.433  10.591  0.5915 -0.2569 -0.4521
  151SAPE    C116706   1.240   1.563  10.634 -0.0615  0.6238 -0.1476
  151SAPE    HA16707   1.261   1.564  10.743  1.6671 -1.4637 -0.3966
  151SAPE    HB16708   1.339   1.587  10.590 -0.2633 -0.6764 -1.3793
  151SAPE    C216709   1.131   1.659  10.598 -0.4627 -0.1879  0.0717
  151SAPE    HS16710   1.040   1.629  10.654  2.0076 -3.5329  2.7007
  151SAPE   O2116711   1.119   1.660  10.457  0.0727 -0.0236  0.1443
  151SAPE   C2116712   1.003   1.696  10.393 -0.5017 -0.5398  0.2189
  151SAPE   O2216713   0.899   1.728  10.449  0.1243  0.4919  0.1221
  151SAPE   C2216714   1.028   1.698  10.243 -0.6041 -0.1867  0.1852
  151SAPE   H2R16715   0.930   1.674  10.196 -0.6322  0.4457 -0.0959
  151SAPE   H2S16716   1.065   1.798  10.212  1.4165 -1.3778 -1.4932
  151SAPE    C316717   1.186   1.799  10.630  0.8748  0.1986  0.3456
  151SAPE    HX16718   1.277   1.816  10.569  0.0958  1.9869 -0.3925
  151SAPE    HY16719   1.224   1.796  10.735 -0.7457 -0.9612  0.9287
  151SAPE   O3116720   1.095   1.908  10.610  0.3199 -0.2513  0.3556
  151SAPE   C3116721   0.987   1.932  10.692  0.0050  0.0980  0.0751
  151SAPE   O3216722   0.961   1.862  10.789  0.2409 -0.2689  0.4510
  151SAPE   C3216723   0.934   2.068  10.677  0.4352 -0.1736 -0.2107
  151SAPE   H2X16724   1.012   2.147  10.684  0.0778  0.1108  0.8645
  151SAPE   H2Y16725   0.858   2.082  10.757  0.2400 -1.4404 -0.1602
  151SAPE   C2316726   1.131   1.584  10.203  0.3820  0.1504  0.1440
  151SAPE   H3R16727   1.215   1.599  10.273  0.1916  2.5600 -0.0687
  151SAPE   H3S16728   1.174   1.591  10.101 -0.5921  1.7596 -0.1924
  151SAPE   C2416729   1.076   1.439  10.222  0.1469  0.3511 -0.1788
  151SAPE   H4R16730   0.999   1.422  10.144 -0.9436 -0.8854  1.1063
  151SAPE   H4S16731   1.030   1.429  10.323  0.4394  1.8714  0.1173
  151SAPE   C2516732   1.178   1.326  10.219  0.1506  0.0156 -0.3583
  151SAPE   H5R16733   1.248   1.342  10.302 -0.8574  2.5011  0.1143
  151SAPE   C2616734   1.189   1.217  10.141 -0.4624  0.0885 -0.3727
  151SAPE   H6R16735   1.271   1.147  10.161 -1.1936 -0.2500  1.7687
  151SAPE   C2716736   1.079   1.180  10.039 -0.2659 -0.1467  0.0981
  151SAPE   H7R16737   1.117   1.101   9.971  0.2621 -0.0683  0.3007
  151SAPE   H7S16738   1.069   1.266   9.970  0.7222  0.4880  0.7157
  151SAPE   C2816739   0.940   1.139  10.086  1.4466 -0.5305 -0.1621
  151SAPE   H8R16740   0.917   1.143  10.193  2.1757  0.8525 -0.0426
  151SAPE   C2916741   0.838   1.109  10.005  0.7301 -0.1808 -0.5384
  151SAPE   H9R16742   0.742   1.092  10.057  2.0215  0.6162  2.3121
  151SAPE  C21016743   0.844   1.108   9.854  0.4256  0.2178  0.2779
  151SAPE  H10R16744   0.942   1.129   9.806 -0.3516 -0.1873 -1.5986
  151SAPE  H10S16745   0.793   1.203   9.829 -2.5692 -1.0873  1.0094
  151SAPE  C21116746   0.797   0.990   9.787  0.9407 -0.0491 -0.2544
  151SAPE  H11R16747   0.823   0.887   9.816 -1.8381 -0.5423  0.8164
  151SAPE  C21216748   0.703   0.999   9.689  0.5369  0.4301 -0.3550
  151SAPE  H12R16749   0.668   0.903   9.648  0.7838  0.9239 -1.8061
  151SAPE  C21316750   0.634   1.122   9.640 -0.1654  0.6855 -0.0233
  151SAPE  H13R16751   0.605   1.099   9.536 -3.8503  2.5482  0.4094
  151SAPE  H13S16752   0.712   1.200   9.633  1.5133 -1.0879 -2.3055
  151SAPE  C21416753   0.519   1.181   9.716 -0.4551 -0.4223 -0.5969
  151SAPE  H14R16754   0.533   1.166   9.824 -0.8368  1.2488 -0.2991
  151SAPE  C21516755   0.407   1.241   9.662 -1.1235  0.8667  0.0656
  151SAPE  H15R16756   0.329   1.264   9.735  1.2773  2.8203  2.1782
  151SAPE  C21616757   0.394   1.268   9.512  0.2432 -0.1000 -0.1412
  151SAPE  H16R16758   0.360   1.178   9.458 -0.2908 -1.3550  2.1307
  151SAPE  H16S16759   0.487   1.304   9.464 -0.4249  0.0498 -1.3527
  151SAPE  C21716760   0.291   1.384   9.488 -0.0420 -0.0872  0.1058
  151SAPE  H17R16761   0.320   1.472   9.550  0.6770 -1.6564  2.1170
  151SAPE  H17S16762   0.191   1.341   9.511 -0.1295 -0.1758 -0.4344
  151SAPE  C21816763   0.297   1.457   9.352  0.0635 -0.4196 -0.4791
  151SAPE  H18R16764   0.398   1.503   9.353  0.4230 -1.1810  1.2240
  151SAPE  H18S16765   0.218   1.535   9.361  0.6676  0.4440 -2.0940
  151SAPE  C21916766   0.274   1.359   9.237 -0.2592 -0.2526 -0.6561
  151SAPE  H19R16767   0.180   1.301   9.253  0.5395 -1.4191 -0.0505
  151SAPE  H19S16768   0.344   1.273   9.232 -0.9665 -1.0124  1.2461
  151SAPE  C22016769   0.274   1.431   9.099  0.2733 -0.6266  0.5485
  151SAPE  H20R16770   0.371   1.485   9.098  0.1471 -0.3776 -1.4705
  151SAPE  H20S16771   0.192   1.506   9.093  0.8983 -0.0667 -2.8038
  151SAPE  H20T16772   0.244   1.357   9.022 -0.5167  0.4970 -0.2443
  151SAPE   C3316773   0.857   2.098  10.552  0.4106 -0.3696  0.4838
  151SAPE   H3X16774   0.791   2.186  10.562 -1.7077 -2.0488  2.6703
  151SAPE   H3Y16775   0.781   2.019  10.535 -2.0306  1.6646  1.3506
  151SAPE   C3416776   0.944   2.102  10.427  0.1769  0.1029 -0.1848
  151SAPE   H4X16777   1.032   2.034  10.428  0.0240 -0.1346 -1.3408
  151SAPE   H4Y16778   0.985   2.204  10.411  1.4012 -0.1020  1.4319
  151SAPE   C3516779   0.864   2.076  10.303  0.5064 -0.1646  0.7261
  151SAPE   H5X16780   0.760   2.111  10.316  0.6101  0.3081  0.3207
  151SAPE   H5Y16781   0.862   1.967  10.285 -0.3458 -0.0585  0.1225
  151SAPE   C3616782   0.940   2.131  10.184  0.8179 -0.2725 -0.6156
  151SAPE   H6X16783   1.041   2.084  10.183  1.1734  0.3835 -3.4453
  151SAPE   H6Y16784   0.958   2.240  10.199  0.6183 -0.5328  1.9295
  151SAPE   C3716785   0.877   2.097  10.044  0.1319 -0.2479  0.4184
  151SAPE   H7X16786   0.770   2.126  10.037  0.8588  2.7668 -0.0953
  151SAPE   H7Y16787   0.893   1.988  10.030 -3.2718 -0.8789  0.8216
  151SAPE   C3816788   0.944   2.182   9.925 -0.3853  0.0530 -0.0447
  151SAPE   H8X16789   1.050   2.200   9.953 -0.4994 -0.1631  0.5340
  151SAPE   H8Y16790   0.891   2.276   9.898 -0.1839  0.7330  1.7784
  151SAPE   C3916791   0.954   2.097   9.792 -0.0250  0.1752  0.0066
  151SAPE   H9X16792   0.847   2.073   9.778 -0.0960  1.0189 -1.0453
  151SAPE   H9Y16793   1.012   2.004   9.809  2.3413  1.3624 -1.1421
  151SAPE  C31016794   1.007   2.167   9.665  0.0986 -0.2560  0.2839
  151SAPE  H10X16795   1.098   2.229   9.678  0.5380 -1.1717  1.8478
  151SAPE  H10Y16796   0.928   2.238   9.633 -1.4254 -1.7802  0.5103
  151SAPE  C31116797   1.032   2.061   9.556 -0.1352 -0.2919  0.3157
  151SAPE  H11X16798   0.941   1.998   9.547  0.0847 -0.5169 -0.3998
  151SAPE  H11Y16799   1.124   2.000   9.569  0.3358  0.2424 -0.4533
  151SAPE  C31216800   1.047   2.126   9.416  0.1517 -0.5628 -0.2561
  151SAPE  H12X16801   1.151   2.113   9.380  1.0013  0.5345  1.6923
  151SAPE  H12Y16802   1.026   2.235   9.424  1.2824 -0.4628  1.9870
  151SAPE  C31316803   0.950   2.063   9.314  0.2770  0.0250 -0.3114
  151SAPE  H13X16804   0.847   2.088   9.345  0.2911  0.7829 -0.8487
  151SAPE  H13Y16805   0.951   1.952   9.324  1.4442  0.0672  0.2004
  151SAPE  C31416806   0.977   2.114   9.170  0.3999  0.1926  0.1159
  151SAPE  H14X16807   1.087   2.131   9.161  0.2589  0.9786 -0.1621
  151SAPE  H14Y16808   0.927   2.210   9.148 -0.7228 -0.7674 -1.6877
  151SAPE  C31516809   0.933   2.013   9.057 -0.1562  0.1195  0.0380
  151SAPE  H15X16810   0.828   1.979   9.049  0.2031 -1.1191  0.2958
  151SAPE  H15Y16811   0.996   1.924   9.080  1.2754  1.3250  0.9629
  151SAPE  C31616812   0.980   2.053   8.914  0.2288 -0.1910 -0.0429
  151SAPE  H16X16813   1.089   2.029   8.907  0.1624 -0.2542 -0.9807
  151SAPE  H16Y16814   0.968   2.159   8.881  2.6289  0.0239 -0.4302
  151SAPE  C31716815   0.908   1.966   8.816  0.0633 -0.0324 -0.3483
  151SAPE  H17X16816   0.800   1.956   8.841  0.3344 -0.1796  0.8116
  151SAPE  H17Y16817   0.937   1.859   8.814 -1.1422 -0.4000  0.3768
  151SAPE  C31816818   0.934   2.011   8.677  0.0330 -0.2127  0.0847
  151SAPE  H18X16819   0.921   2.121   8.680 -0.3471 -0.2394 -0.4626
  151SAPE  H18Y16820   0.866   1.975   8.596 -0.7384 -1.2815  1.1612
  151SAPE  H18Z16821   1.041   2.000   8.653  0.9059 -0.3555  3.5604
  152SAPE     N16822   2.713   6.531  10.698  0.2446 -0.7159 -0.7932
  152SAPE   HN116823   2.736   6.612  10.759 -1.6665 -0.4622 -0.3249
  152SAPE   HN216824   2.609   6.531  10.694 -0.2792 -0.1115  4.7119
  152SAPE   HN316825   2.752   6.447  10.746 -1.0859 -0.9363 -0.0485
  152SAPE   C1216826   2.782   6.549  10.565  0.2484 -1.2873  0.4295
  152SAPE  H12A16827   2.719   6.512  10.481  0.3334  1.5417 -1.0002
  152SAPE  H12B16828   2.881   6.499  10.564  1.0379 -0.1655 -4.1363
  152SAPE   C1116829   2.801   6.697  10.528  0.2038 -0.0938  0.5318
  152SAPE  H11A16830   2.709   6.753  10.503  0.0304 -0.3371  0.6200
  152SAPE  H11B16831   2.872   6.706  10.443 -2.2979  0.6546 -1.6035
  152SAPE     P16832   3.009   6.773  10.679  0.0648  0.2585  0.2617
  152SAPE   O1316833   3.067   6.880  10.596  0.1521 -0.0030 -0.1247
  152SAPE   O1416834   3.027   6.783  10.827 -0.6673  0.2839 -0.0193
  152SAPE   O1216835   2.856   6.767  10.640  0.4647 -0.6533  0.4405
  152SAPE   O1116836   3.062   6.634  10.617  0.5836  0.7864 -0.5099
  152SAPE    C116837   3.103   6.526  10.703  1.2703  0.5316 -0.1229
  152SAPE    HA16838   3.151   6.562  10.796 -0.5595 -0.3288  1.2299
  152SAPE    HB16839   3.008   6.482  10.743  2.6047  1.6270  5.0348
  152SAPE    C216840   3.196   6.418  10.635  0.0693 -0.3586  0.4147
  152SAPE    HS16841   3.236   6.376  10.731  0.7068 -2.7245 -0.7968
  152SAPE   O2116842   3.291   6.489  10.554  0.5207 -0.1102  0.1624
  152SAPE   C2116843   3.410   6.423  10.527  0.2047  0.7155  0.6085
  152SAPE   O2216844   3.426   6.304  10.551 -0.5219  0.3420  0.7728
  152SAPE   C2216845   3.507   6.504  10.455  0.0197 -0.2830  0.9683
  152SAPE   H2R16846   3.485   6.613  10.464  0.3694  0.0016 -1.0896
  152SAPE   H2S16847   3.607   6.493  10.503  0.0107  1.2959  1.4130
  152SAPE    C316848   3.123   6.306  10.551  0.5097 -0.2929 -0.2378
  152SAPE    HX16849   3.056   6.247  10.617  0.6815  0.4812  0.6414
  152SAPE    HY16850   3.199   6.237  10.506 -2.4591 -2.4693 -2.3527
  152SAPE   O3116851   3.039   6.358  10.452  0.0583  0.2218  0.2352
  152SAPE   C3116852   3.065   6.342  10.322 -0.1166  0.5534 -0.8107
  152SAPE   O3216853   3.150   6.272  10.278  0.0205 -0.3515  0.5134
  152SAPE   C3216854   2.945   6.392  10.244  0.0795 -0.1019 -0.8781
  152SAPE   H2X16855   2.868   6.406  10.323  2.3513  2.7142  1.0783
  152SAPE   H2Y16856   2.914   6.307  10.180  0.0373  0.7481 -2.0033
  152SAPE   C2316857   3.519   6.480  10.302  0.1272  0.3310  0.3287
  152SAPE   H3R16858   3.530   6.372  10.279 -2.1013 -0.2499  1.6819
  152SAPE   H3S16859   3.614   6.524  10.264 -0.6653  1.0558 -0.9033
  152SAPE   C2416860   3.398   6.540  10.211  0.0202  0.2385 -0.4367
  152SAPE   H4R16861   3.297   6.513  10.249 -0.8363  0.6818 -2.3105
  152SAPE   H4S16862   3.405   6.493  10.111  1.6715 -0.2509 -0.1267
  152SAPE   C2516863   3.395   6.690  10.206 -0.2329  0.2475 -0.0190
  152SAPE   H5R16864   3.380   6.747  10.299  1.0874  1.3238 -0.4274
  152SAPE   C2616865   3.421   6.770  10.104 -0.3872 -0.0406 -0.1186
  152SAPE   H6R16866   3.415   6.879  10.111 -1.1713 -0.0369 -0.7029
  152SAPE   C2716867   3.461   6.721   9.964  0.6022  0.5474 -0.2510
  152SAPE   H7R16868   3.384   6.644   9.937 -0.8857  1.7354  0.4669
  152SAPE   H7S16869   3.560   6.672   9.974  1.0801  1.8554  2.2194
  152SAPE   C2816870   3.476   6.818   9.851  0.5588 -0.4516  0.6125
  152SAPE   H8R16871   3.523   6.911   9.884  1.6527 -1.2793  1.4668
  152SAPE   C2916872   3.451   6.805   9.720  0.4559 -0.0787 -0.1419
  152SAPE   H9R16873   3.484   6.890   9.658  1.5690 -0.3331  0.0691
  152SAPE  C21016874   3.400   6.676   9.654  0.1320 -0.1329 -0.0637
  152SAPE  H10R16875   3.377   6.601   9.732  1.6379  0.5169  1.0403
  152SAPE  H10S16876   3.475   6.633   9.584 -1.1962 -1.9892 -0.4182
  152SAPE  C21116877   3.263   6.693   9.586 -0.8561 -0.4428  0.1403
  152SAPE  H11R16878   3.194   6.760   9.639  0.0853 -0.0014  0.8285
  152SAPE  C21216879   3.227   6.643   9.472  0.1573 -0.7276  0.6164
  152SAPE  H12R16880   3.127   6.671   9.438  0.9388 -0.9761 -2.0665
  152SAPE  C21316881   3.309   6.549   9.386 -0.0645 -0.7728  0.2135
  152SAPE  H13R16882   3.240   6.470   9.351  1.9453 -1.6734 -2.0175
  152SAPE  H13S16883   3.394   6.497   9.435 -0.0760 -1.5000 -0.5292
  152SAPE  C21416884   3.371   6.623   9.271 -0.2953 -0.9843 -0.9100
  152SAPE  H14R16885   3.418   6.718   9.301 -3.0747 -0.2333  1.4770
  152SAPE  C21516886   3.349   6.589   9.143  0.5756  0.4156  0.8297
  152SAPE  H15R16887   3.388   6.661   9.070  1.5304 -1.1447 -0.2586
  152SAPE  C21616888   3.271   6.476   9.075 -0.4247 -0.5499 -0.2796
  152SAPE  H16R16889   3.165   6.506   9.057  0.2419  2.4798  0.3372
  152SAPE  H16S16890   3.263   6.387   9.140  0.4613  0.8540  1.8581
  152SAPE  C21716891   3.338   6.431   8.941  0.4634  0.3238  0.2322
  152SAPE  H17R16892   3.290   6.339   8.903 -0.8710  1.4026 -0.8318
  152SAPE  H17S16893   3.436   6.397   8.981  0.0891 -0.2973  0.6426
  152SAPE  C21816894   3.347   6.525   8.826  0.4484 -0.1029 -0.5312
  152SAPE  H18R16895   3.398   6.619   8.856  0.2429 -0.0416 -0.3721
  152SAPE  H18S16896   3.250   6.563   8.789 -0.2150 -0.5333  0.7018
  152SAPE  C21916897   3.434   6.466   8.713 -0.5532  0.9156  0.0630
  152SAPE  H19R16898   3.375   6.383   8.668 -1.3148  0.9901  0.8994
  152SAPE  H19S16899   3.528   6.431   8.761 -1.7037 -2.1426  0.3215
  152SAPE  C22016900   3.463   6.568   8.609 -0.4502 -0.4808 -0.3057
  152SAPE  H20R16901   3.521   6.654   8.649 -1.7440  0.6927 -0.8683
  152SAPE  H20S16902   3.375   6.624   8.571 -0.7714  0.2388  1.3920
  152SAPE  H20T16903   3.510   6.518   8.522  0.9972 -2.5799  1.5663
  152SAPE   C3316904   2.970   6.521  10.166  1.0295  0.5252  0.1831
  152SAPE   H3X16905   3.019   6.584  10.243 -0.5838 -1.5935  3.1250
  152SAPE   H3Y16906   2.874   6.566  10.133  0.2336 -0.8270  0.5900
  152SAPE   C3416907   3.048   6.514  10.031  0.3437 -0.0147 -0.6280
  152SAPE   H4X16908   3.148   6.466  10.044  0.1805 -0.1619  0.1074
  152SAPE   H4Y16909   3.069   6.613   9.984  2.1445 -0.2157 -0.3196
  152SAPE   C3516910   2.971   6.427   9.929  0.3916  0.0215  0.0776
  152SAPE   H5X16911   2.864   6.459   9.928  0.4675  0.2604 -1.1389
  152SAPE   H5Y16912   2.972   6.318   9.951 -5.1445 -0.4953 -0.5709
  152SAPE   C3616913   3.017   6.441   9.781 -0.5880 -0.6544  0.0202
  152SAPE   H6X16914   3.127   6.444   9.768 -0.6834  2.2981 -0.8065
  152SAPE   H6Y16915   2.985   6.541   9.746  0.6151 -1.1088 -2.5694
  152SAPE   C3716916   2.926   6.347   9.693  0.2068 -0.7248 -0.0253
  152SAPE   H7X16917   2.822   6.373   9.722  0.4663  0.4480 -0.1105
  152SAPE   H7Y16918   2.948   6.239   9.707 -1.2272 -0.9112  1.0009
  152SAPE   C3816919   2.921   6.387   9.540 -0.7405  0.0672 -1.0239
  152SAPE   H8X16920   3.016   6.346   9.500  0.1812  0.3801  0.7388
  152SAPE   H8Y16921   2.902   6.496   9.524 -1.3177 -0.0182 -0.9122
  152SAPE   C3916922   2.815   6.324   9.461 -0.1214  0.3711 -0.4027
  152SAPE   H9X16923   2.713   6.354   9.495 -0.6527 -1.4220 -0.3520
  152SAPE   H9Y16924   2.819   6.215   9.482  1.7293  0.7975  1.7307
  152SAPE  C31016925   2.828   6.339   9.317  0.0153 -0.8292  1.3904
  152SAPE  H10X16926   2.849   6.445   9.291 -0.9243 -0.9167  0.2331
  152SAPE  H10Y16927   2.730   6.312   9.272  0.8630 -0.2253 -0.9726
  152SAPE  C31116928   2.941   6.260   9.257  0.1403  0.3937 -0.0028
  152SAPE  H11X16929   2.967   6.176   9.324 -1.3148  1.9607  2.7002
  152SAPE  H11Y16930   3.033   6.322   9.260  0.3944  0.0334 -0.2875
  152SAPE  C31216931   2.905   6.195   9.123 -0.6036  0.4168  0.5183
  152SAPE  H12X16932   2.795   6.183   9.110 -0.7357 -0.4527  2.1064
  152SAPE  H12Y16933   2.945   6.092   9.116  0.1740  0.8243 -1.8320
  152SAPE  C31316934   2.968   6.264   9.002  0.6070 -0.5524 -0.1135
  152SAPE  H13X16935   3.075   6.265   9.032 -0.0731 -3.4271  2.9565
  152SAPE  H13Y16936   2.934   6.370   8.994  0.7932 -0.5040 -0.2681
  152SAPE  C31416937   2.951   6.189   8.872  0.3916  0.4510  0.1124
  152SAPE  H14X16938   2.845   6.170   8.845  0.6860 -1.8963  0.3851
  152SAPE  H14Y16939   2.991   6.088   8.893 -1.6822 -0.0346  2.3104
  152SAPE  C31516940   3.010   6.259   8.751 -0.4939 -0.1721  0.3986
  152SAPE  H15X16941   3.113   6.218   8.739 -0.0944  0.9928 -0.3132
  152SAPE  H15Y16942   3.013   6.369   8.758 -1.6149 -0.0253 -0.8839
  152SAPE  C31616943   2.939   6.220   8.623 -0.1155  0.3287  0.1515
  152SAPE  H16X16944   2.829   6.230   8.633 -0.2164 -0.9456  0.5497
  152SAPE  H16Y16945   2.966   6.113   8.613  0.0321  0.2614  1.1991
  152SAPE  C31716946   3.001   6.290   8.495  0.4824 -0.4242 -0.3949
  152SAPE  H17X16947   3.108   6.318   8.508  0.3817  0.4950 -1.3759
  152SAPE  H17Y16948   2.942   6.383   8.490 -0.5224 -1.0032  0.3299
  152SAPE  C31816949   2.981   6.203   8.369 -0.2108 -0.4689  0.2547
  152SAPE  H18X16950   3.000   6.096   8.395  1.7350 -0.4448 -0.8541
  152SAPE  H18Y16951   3.041   6.242   8.285  0.1275  1.1737  1.2112
  152SAPE  H18Z16952   2.874   6.197   8.342 -0.3213 -1.9096  0.9232
  153SAPE     N16953   1.769   6.176  10.816  0.1694 -0.0521  0.4922
  153SAPE   HN116954   1.789   6.118  10.732 -0.2692 -0.8062  0.9035
  153SAPE   HN216955   1.692   6.142  10.877  0.1050 -1.0876 -0.1407
  153SAPE   HN316956   1.747   6.275  10.793 -0.4614 -0.5223 -0.9973
  153SAPE   C1216957   1.891   6.189  10.904  0.1759 -0.0683 -0.3994
  153SAPE  H12A16958   1.902   6.090  10.954  1.1517  0.6567  0.8826
  153SAPE  H12B16959   1.865   6.271  10.974  1.0542 -0.9562  1.0129
  153SAPE   C1116960   2.015   6.217  10.824 -0.1885  0.1811 -0.4879
  153SAPE  H11A16961   2.098   6.261  10.883  0.1493  1.3882 -1.8077
  153SAPE  H11B16962   1.996   6.301  10.753 -1.6526 -0.1420 -0.5154
  153SAPE     P16963   2.172   6.002  10.775 -0.0500  0.1062 -0.1181
  153SAPE   O1316964   2.196   6.006  10.922  0.1439  0.1110  0.1941
  153SAPE   O1416965   2.124   5.878  10.711 -0.5158 -0.4309 -0.2650
  153SAPE   O1216966   2.056   6.102  10.741 -0.1665 -0.1991 -0.0289
  153SAPE   O1116967   2.299   6.062  10.710 -0.2078 -0.0093  0.2474
  153SAPE    C116968   2.305   6.188  10.641  0.5504 -0.0123 -1.2542
  153SAPE    HA16969   2.222   6.255  10.672  1.1377  0.1750 -0.0259
  153SAPE    HB16970   2.394   6.245  10.675 -0.0846  0.8022 -0.9151
  153SAPE    C216971   2.309   6.159  10.487 -0.1609  0.1489  0.4900
  153SAPE    HS16972   2.209   6.119  10.457 -0.8793  0.5953  2.1647
  153SAPE   O2116973   2.416   6.066  10.466  0.6021 -0.3636 -0.1158
  153SAPE   C2116974   2.398   5.972  10.375 -0.6908 -0.3129 -0.0458
  153SAPE   O2216975   2.304   5.960  10.298  0.2556 -0.7727 -0.3475
  153SAPE   C2216976   2.527   5.881  10.355 -0.5862 -0.4398  0.5949
  153SAPE   H2R16977   2.610   5.907  10.423 -1.5572 -0.7884  1.9436
  153SAPE   H2S16978   2.491   5.778  10.374 -1.8353 -0.2470 -0.5290
  153SAPE    C316979   2.338   6.294  10.410  0.1020 -0.4961  1.0605
  153SAPE    HX16980   2.440   6.318  10.447 -0.2819 -0.5601  2.1934
  153SAPE    HY16981   2.278   6.381  10.443  0.2342 -0.2201  0.5779
  153SAPE   O3116982   2.339   6.284  10.261  0.3538 -0.5396 -0.5972
  153SAPE   C3116983   2.216   6.279  10.205  0.2738  0.5545 -0.4769
  153SAPE   O3216984   2.111   6.289  10.268  0.2110  0.1352 -0.2599
  153SAPE   C3216985   2.235   6.250  10.054 -0.1792  0.2888  0.2573
  153SAPE   H2X16986   2.261   6.142  10.050  0.0327  0.3649 -0.8326
  153SAPE   H2Y16987   2.323   6.310  10.022 -1.3135  1.2280 -1.2133
  153SAPE   C2316988   2.585   5.892  10.214  0.0833  0.3476 -0.0818
  153SAPE   H3R16989   2.510   5.888  10.132  1.9789  2.3454 -2.0220
  153SAPE   H3S16990   2.647   5.801  10.202  0.4283  0.3862  1.2183
  153SAPE   C2416991   2.685   6.005  10.178  0.4858  0.1005 -0.5542
  153SAPE   H4R16992   2.734   5.975  10.082  1.3970  0.8601 -0.3392
  153SAPE   H4S16993   2.762   6.017  10.257 -0.4735  0.7153  0.2949
  153SAPE   C2516994   2.619   6.141  10.180 -0.5544 -0.4135 -0.4278
  153SAPE   H5R16995   2.594   6.176  10.281  2.4656 -3.7045  1.7183
  153SAPE   C2616996   2.584   6.205  10.067  0.2936 -0.1559  0.5899
  153SAPE   H6R16997   2.540   6.306  10.067 -1.3578 -0.8245 -0.8225
  153SAPE   C2716998   2.618   6.165   9.922 -0.3655 -0.1107 -0.1872
  153SAPE   H7R16999   2.711   6.104   9.919 -0.5692 -0.3912 -1.8457
  153SAPE   H7S17000   2.639   6.256   9.862  0.3161  0.3718  0.7460
  153SAPE   C2817001   2.500   6.081   9.866  0.0320 -0.1404 -0.3304
  153SAPE   H8R17002   2.432   6.045   9.945 -1.2455  2.4637 -0.1221
  153SAPE   C2917003   2.477   6.058   9.737  0.7738 -0.0131  0.6474
  153SAPE   H9R17004   2.390   6.000   9.700 -0.5758  2.6660 -0.7179
  153SAPE  C21017005   2.560   6.086   9.619 -0.3199  0.4849  0.1846
  153SAPE  H10R17006   2.663   6.117   9.648 -0.2414  0.3746  0.0262
  153SAPE  H10S17007   2.516   6.172   9.564  2.7858  0.9867 -1.7735
  153SAPE  C21117008   2.566   5.954   9.544  0.0919  0.9557 -0.2118
  153SAPE  H11R17009   2.621   5.873   9.593 -0.1838 -0.5219 -2.2012
  153SAPE  C21217010   2.499   5.922   9.433 -0.7390  0.0547 -0.5804
  153SAPE  H12R17011   2.515   5.818   9.402 -1.8715 -0.7996  1.4994
  153SAPE  C21317012   2.396   6.006   9.352  0.1503  0.2838 -0.0583
  153SAPE  H13R17013   2.323   6.052   9.422 -0.1655 -1.9590  1.1870
  153SAPE  H13S17014   2.341   5.934   9.288  1.8270 -0.8999 -0.2367
  153SAPE  C21417015   2.455   6.112   9.261  0.1150 -0.6072  1.0373
  153SAPE  H14R17016   2.535   6.172   9.306  0.3685 -1.3555  1.5959
  153SAPE  C21517017   2.419   6.150   9.133 -0.4432 -0.2098  0.2589
  153SAPE  H15R17018   2.478   6.232   9.087 -1.3557  0.2867 -0.0552
  153SAPE  C21617019   2.313   6.085   9.041  0.1229 -0.7425  0.1147
  153SAPE  H16R17020   2.244   6.163   9.002  0.7372  1.0158  2.3075
  153SAPE  H16S17021   2.255   6.009   9.097  1.6238 -0.0429  2.7855
  153SAPE  C21717022   2.384   6.017   8.919 -0.3553  0.4191 -0.0330
  153SAPE  H17R17023   2.314   5.960   8.854 -0.3627 -0.0608  0.3899
  153SAPE  H17S17024   2.456   5.937   8.946  0.0844  0.6715 -0.4485
  153SAPE  C21817025   2.456   6.119   8.838 -0.2538 -0.2102  0.5848
  153SAPE  H18R17026   2.554   6.145   8.881  1.7994 -3.4884 -1.6340
  153SAPE  H18S17027   2.401   6.216   8.831  0.6646  0.2125 -1.5708
  153SAPE  C21917028   2.494   6.054   8.703  0.1481  0.1623 -0.0066
  153SAPE  H19R17029   2.498   5.943   8.700 -1.3981  0.0877 -0.4859
  153SAPE  H19S17030   2.584   6.099   8.656  1.0691 -0.4881  1.0768
  153SAPE  C22017031   2.384   6.078   8.601  0.0237 -0.2712 -0.3871
  153SAPE  H20R17032   2.405   6.022   8.507  1.2252 -0.8409  0.1923
  153SAPE  H20S17033   2.389   6.187   8.577  2.2915  0.2687  1.9979
  153SAPE  H20T17034   2.287   6.044   8.640  1.0414 -0.5141  2.0977
  153SAPE   C3317035   2.116   6.289   9.968 -0.0717  0.0513  0.3002
  153SAPE   H3X17036   2.094   6.395   9.993 -0.3316 -0.2105  1.2181
  153SAPE   H3Y17037   2.024   6.230   9.987  0.0392  0.5631  2.6798
  153SAPE   C3417038   2.156   6.283   9.819 -0.4465 -0.0699 -0.0761
  153SAPE   H4X17039   2.202   6.185   9.797 -2.3908 -1.0000 -0.1704
  153SAPE   H4Y17040   2.235   6.360   9.803  0.0547 -0.6756 -0.5355
  153SAPE   C3517041   2.041   6.311   9.731  0.5598 -0.1312  0.5072
  153SAPE   H5X17042   2.002   6.410   9.763 -0.0114  0.2182 -1.1437
  153SAPE   H5Y17043   1.969   6.227   9.743  1.2624 -0.5598  1.8956
  153SAPE   C3617044   2.087   6.329   9.583 -0.4312  0.3146  0.7953
  153SAPE   H6X17045   2.164   6.252   9.562  0.4005  1.8479 -2.3766
  153SAPE   H6Y17046   2.135   6.429   9.576  0.2060 -0.0530 -0.3388
  153SAPE   C3717047   1.977   6.320   9.479  0.3041 -0.0214  0.0955
  153SAPE   H7X17048   1.896   6.390   9.511 -2.4878 -3.0736  0.2480
  153SAPE   H7Y17049   1.929   6.220   9.471  0.9237 -0.5030  2.0153
  153SAPE   C3817050   2.031   6.361   9.340 -1.1816 -0.1899  0.0434
  153SAPE   H8X17051   2.095   6.276   9.307  0.9531  1.3307  0.0341
  153SAPE   H8Y17052   2.100   6.444   9.367 -1.5136  0.2857 -0.5548
  153SAPE   C3917053   1.932   6.421   9.234  0.4530 -0.1218 -0.8585
  153SAPE   H9X17054   1.905   6.520   9.276  1.8304  0.1609 -0.5828
  153SAPE   H9Y17055   1.842   6.357   9.240  1.0207 -1.0811 -2.0980
  153SAPE  C31017056   1.982   6.426   9.090 -0.0941 -0.6774  0.0183
  153SAPE  H10X17057   2.028   6.327   9.072  0.3907 -0.0901 -2.2398
  153SAPE  H10Y17058   2.065   6.496   9.066  0.2269 -0.8368  0.6269
  153SAPE  C31117059   1.875   6.453   8.987 -0.9955  0.7790  0.4823
  153SAPE  H11X17060   1.808   6.537   9.015 -2.3081 -0.0612 -0.0535
  153SAPE  H11Y17061   1.808   6.364   8.979 -1.9364  1.4440  0.8656
  153SAPE  C31217062   1.933   6.479   8.845 -0.0393 -0.6980  0.6588
  153SAPE  H12X17063   2.004   6.397   8.825 -0.8211 -1.3770  0.6080
  153SAPE  H12Y17064   1.985   6.577   8.848 -1.6674  0.1845  2.6561
  153SAPE  C31317065   1.820   6.494   8.736 -0.0137  0.0270 -0.8268
  153SAPE  H13X17066   1.742   6.562   8.775  0.2432 -0.3702  0.4058
  153SAPE  H13Y17067   1.764   6.400   8.718 -0.5469 -0.0370  1.0082
  153SAPE  C31417068   1.874   6.537   8.592 -0.1267 -0.5372 -0.2176
  153SAPE  H14X17069   1.935   6.449   8.561  0.2218 -0.5534  0.4809
  153SAPE  H14Y17070   1.944   6.623   8.594  0.7522 -1.2109 -0.8838
  153SAPE  C31517071   1.762   6.575   8.490  0.6249  0.0034  0.2002
  153SAPE  H15X17072   1.696   6.645   8.546 -0.2010 -0.0793 -0.6457
  153SAPE  H15Y17073   1.696   6.490   8.464 -0.5750  0.9706 -0.0142
  153SAPE  C31617074   1.799   6.640   8.353 -0.5115 -0.2640 -0.2835
  153SAPE  H16X17075   1.853   6.732   8.382  0.3678 -0.7018 -0.4956
  153SAPE  H16Y17076   1.706   6.662   8.296 -1.8340 -0.2157  1.8005
  153SAPE  C31717077   1.891   6.545   8.274  0.2658  0.1869 -0.1432
  153SAPE  H17X17078   1.975   6.511   8.339  0.6009 -0.4635 -0.8981
  153SAPE  H17Y17079   1.933   6.613   8.196 -1.2337  0.1957 -0.9813
  153SAPE  C31817080   1.819   6.432   8.204  0.0920  0.0328  0.7740
  153SAPE  H18X17081   1.752   6.366   8.264 -1.1002  0.4526 -0.0528
  153SAPE  H18Y17082   1.888   6.372   8.141 -1.2996  1.2906 -2.1500
  153SAPE  H18Z17083   1.737   6.478   8.144  0.6118  0.0276  0.0441
  154SAPE     N17084   3.510   2.182  11.113  0.3668 -0.4943 -0.4170
  154SAPE   HN117085   3.472   2.219  11.024 -3.3371  1.1465  1.6386
  154SAPE   HN217086   3.513   2.267  11.173 -2.3986  0.0777 -0.9712
  154SAPE   HN317087   3.606   2.142  11.101  0.6717 -0.4384  1.5730
  154SAPE   C1217088   3.407   2.095  11.170  0.0765 -0.4699  0.3071
  154SAPE  H12A17089   3.309   2.141  11.146 -0.1822 -1.2420 -0.1728
  154SAPE  H12B17090   3.425   2.084  11.279  0.0561 -1.4297  0.2245
  154SAPE   C1117091   3.432   1.958  11.112  0.2411  0.6553  0.5288
  154SAPE  H11A17092   3.382   1.879  11.173  0.4033  0.6335  0.6342
  154SAPE  H11B17093   3.540   1.934  11.116  0.1142 -0.2853 -0.9796
  154SAPE     P17094   3.254   1.941  10.914 -0.0770 -0.1074  0.0258
  154SAPE   O1317095   3.216   1.799  10.927  0.3183  0.4207 -0.1847
  154SAPE   O1417096   3.158   2.040  10.968  0.0137 -0.1798  0.3707
  154SAPE   O1217097   3.409   1.961  10.975  0.4700  0.0074 -0.0197
  154SAPE   O1117098   3.274   1.981  10.765  0.2074 -0.1272  0.2644
  154SAPE    C117099   3.388   1.928  10.698 -0.7312 -0.2073  0.1935
  154SAPE    HA17100   3.462   2.009  10.716  0.1687 -0.7514 -0.9113
  154SAPE    HB17101   3.420   1.828  10.733  1.2247 -0.1128 -1.1601
  154SAPE    C217102   3.365   1.918  10.544 -0.6587 -0.0490 -0.1176
  154SAPE    HS17103   3.465   1.892  10.503 -0.8829 -1.9244  0.4504
  154SAPE   O2117104   3.301   2.037  10.490 -0.3020 -0.9416  0.4465
  154SAPE   C2117105   3.384   2.149  10.487 -0.0441  0.7359 -0.5470
  154SAPE   O2217106   3.502   2.146  10.518  0.3344  0.1610  0.0085
  154SAPE   C2217107   3.325   2.270  10.430 -0.4250 -0.0724 -0.6908
  154SAPE   H2R17108   3.216   2.258  10.417 -0.8715 -0.9391  2.9047
  154SAPE   H2S17109   3.336   2.352  10.505 -1.4312 -0.6245  0.0730
  154SAPE    C317110   3.274   1.793  10.512 -0.0491 -0.1819  0.2223
  154SAPE    HX17111   3.184   1.796  10.577 -0.2034  2.8436 -0.0041
  154SAPE    HY17112   3.333   1.704  10.542 -0.3205 -1.0881 -1.7626
  154SAPE   O3117113   3.250   1.782  10.372  0.2781  0.7916 -0.2536
  154SAPE   C3117114   3.140   1.845  10.331  0.3249 -0.7262  0.4278
  154SAPE   O3217115   3.056   1.899  10.407  0.3982  0.7787 -0.0267
  154SAPE   C3217116   3.132   1.831  10.182 -0.4003 -0.0650  0.1361
  154SAPE   H2X17117   3.155   1.724  10.168 -2.4206 -0.5897  0.5390
  154SAPE   H2Y17118   3.218   1.894  10.150 -0.3430  0.9619  2.1338
  154SAPE   C2317119   3.382   2.323  10.294  0.2527  0.2944  0.1420
  154SAPE   H3R17120   3.426   2.246  10.227 -1.5097 -0.0364 -0.7118
  154SAPE   H3S17121   3.476   2.380  10.308  0.7358 -0.0037 -1.7095
  154SAPE   C2417122   3.283   2.418  10.227  0.6217 -0.1122 -0.0347
  154SAPE   H4R17123   3.256   2.501  10.295 -1.0752 -1.5880  1.1606
  154SAPE   H4S17124   3.191   2.360  10.208 -0.5065  1.9667 -1.3464
  154SAPE   C2517125   3.324   2.462  10.091  0.3497 -0.2738  0.0516
  154SAPE   H5R17126   3.343   2.568  10.066 -1.2049 -0.0118 -0.1810
  154SAPE   C2617127   3.346   2.385   9.984  0.2857  0.3911 -0.3390
  154SAPE   H6R17128   3.371   2.442   9.893  1.9909 -0.0123 -0.1703
  154SAPE   C2717129   3.329   2.234   9.953  0.3259 -0.3792 -0.2535
  154SAPE   H7R17130   3.327   2.177  10.048 -0.3971 -0.7752 -0.5034
  154SAPE   H7S17131   3.416   2.193   9.897  0.8705 -1.0474  1.0315
  154SAPE   C2817132   3.203   2.201   9.873  0.4556 -0.3361  0.0517
  154SAPE   H8R17133   3.116   2.268   9.885  1.3266  0.9388 -0.5934
  154SAPE   C2917134   3.196   2.131   9.760  0.0516 -0.2103 -0.1321
  154SAPE   H9R17135   3.096   2.101   9.724 -0.2545  0.4879  0.1125
  154SAPE  C21017136   3.311   2.075   9.684 -0.5449 -0.0203 -0.1471
  154SAPE  H10R17137   3.323   1.971   9.721  1.8310  1.6694  4.5263
  154SAPE  H10S17138   3.409   2.122   9.706  0.4968 -2.1567  0.0513
  154SAPE  C21117139   3.284   2.094   9.534  0.1050 -0.7348  0.2972
  154SAPE  H11R17140   3.327   2.187   9.495  0.0803 -0.1230  1.6687
  154SAPE  C21217141   3.201   2.025   9.455 -0.6281 -0.0119  0.2427
  154SAPE  H12R17142   3.198   2.048   9.347 -1.8222  0.8030  0.4315
  154SAPE  C21317143   3.119   1.902   9.483 -0.1745  0.0722  0.0197
  154SAPE  H13R17144   3.131   1.860   9.585 -0.5928 -1.2095 -0.4363
  154SAPE  H13S17145   3.163   1.812   9.433 -1.1630 -0.4436  0.0543
  154SAPE  C21417146   2.975   1.916   9.444 -0.0279 -0.0322  0.2666
  154SAPE  H14R17147   2.923   1.983   9.513  0.5931  0.8920 -0.1364
  154SAPE  C21517148   2.909   1.880   9.331  1.2149 -0.8577 -0.6817
  154SAPE  H15R17149   2.802   1.906   9.326  1.1976 -0.5799  0.7755
  154SAPE  C21617150   2.960   1.822   9.210 -0.8668  0.8627 -0.2161
  154SAPE  H16R17151   2.909   1.723   9.203 -1.4520  1.1825 -0.5138
  154SAPE  H16S17152   3.068   1.801   9.221 -0.8184  0.9220 -0.5864
  154SAPE  C21717153   2.942   1.917   9.091 -0.1182  0.3363  0.1282
  154SAPE  H17R17154   2.983   2.014   9.126  1.1375 -0.0684 -0.1904
  154SAPE  H17S17155   2.834   1.932   9.071  0.5805  3.5123 -1.9702
  154SAPE  C21817156   3.005   1.870   8.959 -0.1109 -0.4075 -0.4370
  154SAPE  H18R17157   2.948   1.779   8.928  0.3412 -0.9151  0.1834
  154SAPE  H18S17158   3.108   1.847   8.993 -0.1482  1.6275  1.2779
  154SAPE  C21917159   3.009   1.975   8.846 -0.5663  0.5224 -0.0172
  154SAPE  H19R17160   3.055   2.064   8.894  2.1443  0.1990 -1.7850
  154SAPE  H19S17161   2.904   1.994   8.814 -0.1594 -0.1228 -1.8640
  154SAPE  C22017162   3.093   1.924   8.735  0.5046  0.4341  0.1488
  154SAPE  H20R17163   3.059   1.825   8.697 -1.1034  0.5110  1.2959
  154SAPE  H20S17164   3.197   1.923   8.773  0.1353  2.4855  1.3391
  154SAPE  H20T17165   3.089   1.992   8.647  3.5316 -0.8189 -1.1001
  154SAPE   C3317166   2.989   1.866  10.128  0.6802  0.0991 -0.1403
  154SAPE   H3X17167   2.966   1.971  10.157  1.1499 -0.2999  1.8631
  154SAPE   H3Y17168   2.926   1.779  10.154 -0.5761  0.1819 -2.6089
  154SAPE   C3417169   2.987   1.873   9.973  0.1884 -0.1446 -0.3838
  154SAPE   H4X17170   3.052   1.791   9.935 -1.3550 -0.6947 -1.9648
  154SAPE   H4Y17171   3.040   1.963   9.935  1.0562  0.3976  1.9265
  154SAPE   C3517172   2.849   1.871   9.909 -0.2855 -0.6829 -0.5385
  154SAPE   H5X17173   2.794   1.945   9.972  1.6870  1.3733 -1.1008
  154SAPE   H5Y17174   2.819   1.764   9.921  2.9840 -1.5294  1.4267
  154SAPE   C3617175   2.842   1.921   9.764 -0.6311  0.0012  0.8598
  154SAPE   H6X17176   2.897   1.846   9.703 -0.5729 -0.5319  1.5575
  154SAPE   H6Y17177   2.890   2.021   9.772  1.4586 -1.0462  2.5251
  154SAPE   C3717178   2.700   1.916   9.707  0.2494 -0.0100  0.4326
  154SAPE   H7X17179   2.680   1.975   9.615 -0.4475 -0.9635 -0.0490
  154SAPE   H7Y17180   2.644   1.967   9.789  0.8779  0.4352  0.5938
  154SAPE   C3817181   2.646   1.769   9.689  0.2525 -0.0549 -0.7860
  154SAPE   H8X17182   2.663   1.718   9.786 -0.9198  1.0129  0.0046
  154SAPE   H8Y17183   2.708   1.712   9.616 -2.4495 -3.3697 -0.7240
  154SAPE   C3917184   2.499   1.759   9.666  0.0476  0.3617  0.3886
  154SAPE   H9X17185   2.452   1.795   9.760 -1.1822 -0.4081  0.0958
  154SAPE   H9Y17186   2.453   1.658   9.662 -1.3997  0.7400  4.0628
  154SAPE  C31017187   2.445   1.854   9.554 -0.1272  0.5822 -0.0402
  154SAPE  H10X17188   2.445   1.957   9.594  1.9858  0.0932  1.4203
  154SAPE  H10Y17189   2.339   1.826   9.537  0.0259 -1.9060  2.2972
  154SAPE  C31117190   2.515   1.838   9.419 -0.1762 -0.5063 -0.1735
  154SAPE  H11X17191   2.505   1.730   9.394 -0.1839 -0.5183 -0.1171
  154SAPE  H11Y17192   2.626   1.844   9.416 -0.1008 -0.5330  1.5223
  154SAPE  C31217193   2.448   1.909   9.293  0.9056 -0.0591 -0.6256
  154SAPE  H12X17194   2.449   2.019   9.306 -2.3187  0.2197 -1.8026
  154SAPE  H12Y17195   2.345   1.869   9.306  0.8436  0.7315  1.7756
  154SAPE  C31317196   2.498   1.868   9.157  0.8148  0.5152 -0.4409
  154SAPE  H13X17197   2.599   1.910   9.139  0.3016  1.8304 -0.3530
  154SAPE  H13Y17198   2.429   1.909   9.080  1.7238  0.5416 -1.2538
  154SAPE  C31417199   2.501   1.718   9.120 -0.6487  0.2221  0.5693
  154SAPE  H14X17200   2.396   1.682   9.125 -0.5102 -0.5030 -1.1375
  154SAPE  H14Y17201   2.557   1.662   9.198 -0.4505  2.0860  1.8515
  154SAPE  C31517202   2.557   1.691   8.982  0.5144  0.1313 -0.4272
  154SAPE  H15X17203   2.548   1.581   8.967 -0.3283  0.0561  0.4956
  154SAPE  H15Y17204   2.665   1.714   8.978  0.9203 -0.7481  2.6380
  154SAPE  C31617205   2.483   1.776   8.870 -0.5514 -0.4546 -0.4427
  154SAPE  H16X17206   2.515   1.881   8.888 -5.0255  1.0222  0.1056
  154SAPE  H16Y17207   2.375   1.768   8.894 -0.3718  0.1458  0.6486
  154SAPE  C31717208   2.529   1.758   8.726 -0.7393  0.5171 -0.8643
  154SAPE  H17X17209   2.471   1.833   8.668 -0.1411  1.4356 -0.3025
  154SAPE  H17Y17210   2.508   1.653   8.698 -2.0606  0.1308  1.3422
  154SAPE  C31817211   2.676   1.784   8.698  0.2674 -0.5833 -0.0071
  154SAPE  H18X17212   2.704   1.767   8.592  1.4770 -0.7535  0.3234
  154SAPE  H18Y17213   2.741   1.706   8.744  0.0371 -0.7146  0.0993
  154SAPE  H18Z17214   2.711   1.885   8.728 -1.1780 -0.1895  0.4181
  155SAPE     N17215   3.855   3.813  10.888 -0.6755  0.0874 -0.0570
  155SAPE   HN117216   3.774   3.804  10.823 -1.2892 -0.3046  0.7430
  155SAPE   HN217217   3.922   3.889  10.863 -0.5069  1.0598  2.9869
  155SAPE   HN317218   3.913   3.727  10.883  1.8754  1.3929  3.2463
  155SAPE   C1217219   3.812   3.836  11.035 -0.5965 -0.2804  0.5705
  155SAPE  H12A17220   3.896   3.800  11.099 -0.3069 -0.2729  0.1990
  155SAPE  H12B17221   3.731   3.763  11.053 -1.9940  1.2534  0.6734
  155SAPE   C1117222   3.773   3.983  11.054  1.0146  0.2323  0.3252
  155SAPE  H11A17223   3.863   4.046  11.039  2.3485 -1.4384  0.9375
  155SAPE  H11B17224   3.757   4.007  11.161 -0.9581  0.7808 -0.0605
  155SAPE     P17225   3.558   4.139  11.015 -0.2837 -0.3969 -0.2635
  155SAPE   O1317226   3.436   4.091  11.083  0.0660  0.0796  0.9452
  155SAPE   O1417227   3.645   4.237  11.089 -0.2272 -0.5794 -0.3554
  155SAPE   O1217228   3.657   4.016  10.975 -0.3792  0.2852 -0.0899
  155SAPE   O1117229   3.536   4.195  10.873  0.2692 -0.4297 -0.3375
  155SAPE    C117230   3.465   4.115  10.776 -0.1723 -0.4057  0.3061
  155SAPE    HA17231   3.467   4.007  10.801  1.1255  0.0759  2.5569
  155SAPE    HB17232   3.363   4.157  10.778  0.5072  1.4035 -0.3398
  155SAPE    C217233   3.519   4.144  10.633 -0.6815 -0.2350  0.8808
  155SAPE    HS17234   3.624   4.107  10.637 -1.2961 -2.3740 -0.9207
  155SAPE   O2117235   3.504   4.275  10.597  0.1838  0.3836 -0.3732
  155SAPE   C2117236   3.590   4.331  10.511  0.5397 -0.4139 -0.2469
  155SAPE   O2217237   3.695   4.278  10.484 -0.3387 -0.0445  0.8306
  155SAPE   C2217238   3.530   4.462  10.464 -0.0861  0.5059 -0.3711
  155SAPE   H2R17239   3.449   4.440  10.390  0.4919  1.7534 -1.4186
  155SAPE   H2S17240   3.493   4.512  10.555  1.6127  1.0003  0.0792
  155SAPE    C317241   3.450   4.052  10.524  0.3316 -0.3363 -0.7075
  155SAPE    HX17242   3.343   4.078  10.537  0.4528 -0.1394 -0.1001
  155SAPE    HY17243   3.464   3.951  10.570 -1.3491  0.7519  2.4967
  155SAPE   O3117244   3.497   4.065  10.387 -0.0831 -0.1680  0.0083
  155SAPE   C3117245   3.565   3.959  10.334 -0.4253 -0.2163  0.2156
  155SAPE   O3217246   3.590   3.854  10.389  0.3197  0.3177  0.1591
  155SAPE   C3217247   3.590   3.990  10.183  0.4681 -1.0895 -0.0481
  155SAPE   H2X17248   3.488   3.984  10.139  0.5847  0.9733 -0.7076
  155SAPE   H2Y17249   3.660   3.918  10.135  0.0789 -0.7399 -1.1694
  155SAPE   C2317250   3.625   4.544  10.388  0.9324  0.1451 -0.2476
  155SAPE   H3R17251   3.716   4.541  10.452  1.0321 -0.0172 -0.3949
  155SAPE   H3S17252   3.593   4.651  10.388 -0.3897 -0.1734 -2.8550
  155SAPE   C2417253   3.664   4.494  10.249 -0.4375  0.3177  0.0215
  155SAPE   H4R17254   3.701   4.390  10.252  3.9790  1.6244 -1.3569
  155SAPE   H4S17255   3.763   4.538  10.223  0.6697 -1.4174  1.0904
  155SAPE   C2517256   3.561   4.522  10.147  0.7482 -0.5761 -0.1206
  155SAPE   H5R17257   3.463   4.511  10.196  0.9273 -0.1683  0.3335
  155SAPE   C2617258   3.579   4.557  10.023  0.3819 -0.0602  0.1292
  155SAPE   H6R17259   3.496   4.605   9.969  0.3142 -0.4030 -0.0712
  155SAPE   C2717260   3.712   4.575   9.956 -0.5193 -0.4181 -0.6639
  155SAPE   H7R17261   3.794   4.534  10.019 -2.3357 -0.9347  1.5103
  155SAPE   H7S17262   3.732   4.684   9.955  0.9830 -0.6636 -2.0065
  155SAPE   C2817263   3.718   4.516   9.819  0.8987  0.7599 -0.6296
  155SAPE   H8R17264   3.710   4.407   9.822 -0.3661  0.8569  0.7439
  155SAPE   C2917265   3.719   4.565   9.695  0.1016  0.1454 -0.0216
  155SAPE   H9R17266   3.725   4.500   9.607  0.6732 -2.9906  2.1824
  155SAPE  C21017267   3.730   4.712   9.658  0.8586  0.0674  0.0367
  155SAPE  H10R17268   3.753   4.781   9.742 -0.3713  2.7993 -1.7309
  155SAPE  H10S17269   3.628   4.750   9.634  0.9785  0.6929  0.5030
  155SAPE  C21117270   3.823   4.736   9.547 -0.3157 -0.4159 -0.5306
  155SAPE  H11R17271   3.835   4.648   9.482  0.1951  0.7684 -2.0914
  155SAPE  C21217272   3.884   4.848   9.508 -0.0533  0.3670  0.2717
  155SAPE  H12R17273   3.930   4.852   9.409 -3.4837  2.9193 -1.4388
  155SAPE  C21317274   3.870   4.980   9.565 -0.8547 -0.2835 -0.5299
  155SAPE  H13R17275   3.762   4.999   9.588  0.2602  3.5518  2.7206
  155SAPE  H13S17276   3.903   5.051   9.487 -0.6626  1.4166  1.0223
  155SAPE  C21417277   3.941   4.995   9.692 -0.2352  0.4225 -0.3509
  155SAPE  H14R17278   4.039   4.947   9.686 -0.3870  0.1860 -1.0837
  155SAPE  C21517279   3.899   5.047   9.807 -0.4635 -0.0899 -0.5907
  155SAPE  H15R17280   3.975   5.054   9.886 -2.0301  1.2797  0.8685
  155SAPE  C21617281   3.764   5.107   9.853 -0.1075  0.2504 -0.0235
  155SAPE  H16R17282   3.703   5.135   9.764  0.0671  1.5366  0.2517
  155SAPE  H16S17283   3.778   5.201   9.909  0.3665  0.3790 -0.3537
  155SAPE  C21717284   3.677   5.017   9.948 -0.2998 -0.0612  0.3540
  155SAPE  H17R17285   3.661   4.925   9.887  1.5600  0.1501 -0.4984
  155SAPE  H17S17286   3.582   5.072   9.968  0.7946  1.7463  0.7218
  155SAPE  C21817287   3.749   5.002  10.081 -0.0104 -0.2698 -0.0393
  155SAPE  H18R17288   3.777   5.090  10.143  1.0796 -2.3764  2.7161
  155SAPE  H18S17289   3.849   4.959  10.057  1.5609  1.7027  2.4548
  155SAPE  C21917290   3.682   4.911  10.182  0.3141 -0.4762 -0.2385
  155SAPE  H19R17291   3.752   4.891  10.265 -0.4915  0.1436  0.6176
  155SAPE  H19S17292   3.661   4.813  10.135 -1.4482 -0.1376 -0.2237
  155SAPE  C22017293   3.549   4.948  10.249 -0.3230 -1.1062  0.8417
  155SAPE  H20R17294   3.464   4.920  10.182  1.8632 -2.1316 -1.6679
  155SAPE  H20S17295   3.545   5.058  10.261 -1.1789 -0.1798 -4.8405
  155SAPE  H20T17296   3.531   4.899  10.347  1.0780 -2.5736  0.4101
  155SAPE   C3317297   3.639   4.135  10.161 -0.4913  0.3274 -0.1185
  155SAPE   H3X17298   3.713   4.167  10.237  0.1361 -0.2217 -0.4966
  155SAPE   H3Y17299   3.555   4.207  10.177 -0.9630 -0.8458  3.4968
  155SAPE   C3417300   3.700   4.150  10.017  0.6820  0.4580 -0.2105
  155SAPE   H4X17301   3.785   4.084   9.992 -0.5623 -1.2046 -0.2134
  155SAPE   H4Y17302   3.746   4.251  10.015 -0.0803  0.8421  0.5029
  155SAPE   C3517303   3.601   4.158   9.897 -0.1279 -0.0953  0.1465
  155SAPE   H5X17304   3.532   4.245   9.901  0.9645  0.8077 -0.1696
  155SAPE   H5Y17305   3.536   4.069   9.910  0.3520 -0.3071  1.2217
  155SAPE   C3617306   3.681   4.150   9.765  0.0172 -0.3609  0.0941
  155SAPE   H6X17307   3.729   4.049   9.771  2.8667  0.8843  0.1104
  155SAPE   H6Y17308   3.765   4.222   9.755  0.2483 -0.8195 -1.5714
  155SAPE   C3717309   3.596   4.160   9.643 -0.1377 -0.5060 -0.1050
  155SAPE   H7X17310   3.560   4.262   9.617  1.4562 -0.1861 -1.2173
  155SAPE   H7Y17311   3.507   4.095   9.656 -0.6667 -0.1675 -1.8265
  155SAPE   C3817312   3.675   4.113   9.522 -0.1317  0.0660  0.3086
  155SAPE   H8X17313   3.782   4.139   9.540 -0.6388  1.9382  0.8818
  155SAPE   H8Y17314   3.640   4.163   9.429  0.2171 -0.8158 -0.3128
  155SAPE   C3917315   3.665   3.958   9.499 -0.2680  0.8664  0.4937
  155SAPE   H9X17316   3.557   3.930   9.506 -0.2081  0.8978  1.7826
  155SAPE   H9Y17317   3.702   3.895   9.582 -1.5919 -0.4129  0.1621
  155SAPE  C31017318   3.715   3.904   9.360 -0.1515  0.9854  0.2001
  155SAPE  H10X17319   3.817   3.945   9.347  0.0870 -0.2932 -2.9134
  155SAPE  H10Y17320   3.656   3.943   9.274 -0.1458 -1.9732 -1.2676
  155SAPE  C31117321   3.705   3.750   9.353 -0.7209 -0.4385  0.7500
  155SAPE  H11X17322   3.602   3.724   9.384 -1.3193 -0.9286 -1.4575
  155SAPE  H11Y17323   3.782   3.711   9.423  1.7493 -2.0649 -2.5710
  155SAPE  C31217324   3.731   3.682   9.221  0.2432 -0.1248 -0.1174
  155SAPE  H12X17325   3.838   3.687   9.193 -0.5093  1.0295 -3.1549
  155SAPE  H12Y17326   3.697   3.731   9.128  2.7620  0.4913 -0.7978
  155SAPE  C31317327   3.698   3.540   9.227  0.3125  0.1067 -0.0155
  155SAPE  H13X17328   3.593   3.526   9.194  0.5252  1.2644 -1.2999
  155SAPE  H13Y17329   3.691   3.501   9.330 -0.7560 -0.6730 -0.3655
  155SAPE  C31417330   3.784   3.442   9.140 -0.0073 -0.2671 -0.1990
  155SAPE  H14X17331   3.892   3.458   9.162 -0.1814 -0.8354  1.1213
  155SAPE  H14Y17332   3.763   3.463   9.033 -1.6018 -2.2211 -0.3205
  155SAPE  C31517333   3.742   3.299   9.172 -0.8833  0.1571  0.2479
  155SAPE  H15X17334   3.641   3.284   9.130 -0.8229  0.6653 -0.0909
  155SAPE  H15Y17335   3.746   3.291   9.282  0.6613  0.1685  0.2216
  155SAPE  C31617336   3.842   3.196   9.120 -0.0809 -0.5612 -0.4335
  155SAPE  H16X17337   3.818   3.098   9.167 -0.3773  0.3800  1.4636
  155SAPE  H16Y17338   3.946   3.226   9.145 -0.4893  0.9333 -0.4322
  155SAPE  C31717339   3.850   3.192   8.973  0.0655 -0.5175  0.2320
  155SAPE  H17X17340   3.861   3.294   8.929 -0.9929  0.0866  1.2902
  155SAPE  H17Y17341   3.755   3.161   8.924 -0.4777 -1.8748  2.0578
  155SAPE  C31817342   3.965   3.106   8.928 -0.1683  0.3795 -0.4763
  155SAPE  H18X17343   3.960   3.085   8.819  0.0115  2.2759 -0.8781
  155SAPE  H18Y17344   3.954   3.009   8.981  1.2731  0.5951  0.2563
  155SAPE  H18Z17345   4.065   3.148   8.951 -0.0382 -0.5920  0.8251
  156SAPE     N17346   1.471   6.412  10.900 -0.4554  0.3486 -0.0481
  156SAPE   HN117347   1.562   6.414  10.951 -0.9444  1.7647  0.8475
  156SAPE   HN217348   1.405   6.357  10.958  0.9435 -0.8333  0.4914
  156SAPE   HN317349   1.487   6.377  10.804  2.0375 -1.4596  0.9369
  156SAPE   C1217350   1.414   6.550  10.910  0.0403  0.5826 -0.4472
  156SAPE  H12A17351   1.402   6.573  11.018  0.7902  0.3754 -0.3131
  156SAPE  H12B17352   1.310   6.556  10.872 -0.5607 -0.7539  0.8801
  156SAPE   C1117353   1.517   6.651  10.854  0.0791 -0.2383  0.7188
  156SAPE  H11A17354   1.614   6.640  10.907  1.7532 -0.0694 -2.1047
  156SAPE  H11B17355   1.479   6.752  10.882 -0.8948  0.2132 -1.9649
  156SAPE     P17356   1.474   6.741  10.611  0.1178  0.0440  0.4237
  156SAPE   O1317357   1.333   6.762  10.623  0.4043  0.6593 -0.3108
  156SAPE   O1417358   1.559   6.858  10.642  0.3408  0.1735  0.5774
  156SAPE   O1217359   1.532   6.633  10.708 -0.0649 -0.7379  0.1014
  156SAPE   O1117360   1.517   6.680  10.476  0.0436  0.6697 -0.2068
  156SAPE    C117361   1.636   6.618  10.438 -0.2910  0.3616  0.2390
  156SAPE    HA17362   1.717   6.630  10.514  1.3825 -1.2585 -1.1751
  156SAPE    HB17363   1.633   6.507  10.437 -0.5019  0.3438  1.2872
  156SAPE    C217364   1.689   6.669  10.300  0.7818  0.3996 -0.0270
  156SAPE    HS17365   1.707   6.779  10.301 -0.0078  0.5906 -1.7578
  156SAPE   O2117366   1.588   6.664  10.199  0.2002  0.3658 -0.0664
  156SAPE   C2117367   1.609   6.731  10.086  0.1069 -0.3362 -0.2039
  156SAPE   O2217368   1.699   6.814  10.075  0.3321  0.7573 -0.8669
  156SAPE   C2217369   1.509   6.694   9.979 -0.1827  0.2914 -0.0310
  156SAPE   H2R17370   1.518   6.584   9.966 -2.2612 -0.3537  2.9609
  156SAPE   H2S17371   1.407   6.705  10.022 -0.8193  1.3366 -1.6951
  156SAPE    C317372   1.816   6.599  10.255 -0.0735 -0.2082  0.8942
  156SAPE    HX17373   1.901   6.621  10.323  0.5998 -2.5230  0.8940
  156SAPE    HY17374   1.845   6.649  10.160 -0.2866  1.3871  1.6358
  156SAPE   O3117375   1.793   6.462  10.241  0.2222  0.5563 -0.1927
  156SAPE   C3117376   1.777   6.415  10.122 -0.6150 -0.6992 -0.0754
  156SAPE   O3217377   1.790   6.485  10.018  1.1234  0.8915 -0.4532
  156SAPE   C3217378   1.734   6.272  10.130  0.3573  0.4017 -0.5299
  156SAPE   H2X17379   1.629   6.259  10.164  0.3905 -1.3043 -0.9906
  156SAPE   H2Y17380   1.800   6.233  10.210 -0.9504  0.6478  0.7105
  156SAPE   C2317381   1.523   6.767   9.846  0.3523  0.2932 -0.0793
  156SAPE   H3R17382   1.604   6.717   9.790  2.6542  0.9766  2.3900
  156SAPE   H3S17383   1.542   6.875   9.865  1.9020 -0.2082  1.4974
  156SAPE   C2417384   1.397   6.775   9.759 -0.0600  1.1344  0.0403
  156SAPE   H4R17385   1.418   6.833   9.666  0.5019  0.9660  0.0618
  156SAPE   H4S17386   1.321   6.830   9.819  0.0748  1.2076  0.1459
  156SAPE   C2517387   1.351   6.641   9.715  0.5693  0.7796 -0.1349
  156SAPE   H5R17388   1.416   6.559   9.748 -1.2242 -0.0945  1.3850
  156SAPE   C2617389   1.235   6.615   9.653  0.0050  0.3668 -0.2132
  156SAPE   H6R17390   1.226   6.507   9.634 -0.3304  0.5506 -1.1337
  156SAPE   C2717391   1.122   6.703   9.602 -0.0184  0.4199  0.3543
  156SAPE   H7R17392   1.128   6.798   9.659 -0.1597  2.0656 -2.2190
  156SAPE   H7S17393   1.024   6.656   9.622 -0.1845  0.6435  0.0705
  156SAPE   C2817394   1.132   6.736   9.455  0.5080  0.1876  0.0271
  156SAPE   H8R17395   1.235   6.734   9.418  0.2579  0.1089 -0.6767
  156SAPE   C2917396   1.028   6.756   9.366  0.0838 -0.2191  0.4026
  156SAPE   H9R17397   1.056   6.785   9.264  0.5735 -1.5744  0.1375
  156SAPE  C21017398   0.888   6.780   9.418  0.3691  0.0607  0.3230
  156SAPE  H10R17399   0.872   6.762   9.527  1.7712 -0.4814  0.4587
  156SAPE  H10S17400   0.824   6.704   9.370  0.2103  0.5036 -0.1723
  156SAPE  C21117401   0.834   6.921   9.398  0.0817  0.2870 -0.5265
  156SAPE  H11R17402   0.813   6.983   9.486 -0.5766  0.2890 -0.6758
  156SAPE  C21217403   0.802   6.971   9.279 -0.1178 -0.8919  0.1652
  156SAPE  H12R17404   0.758   7.072   9.271 -1.0451 -1.4034 -2.2582
  156SAPE  C21317405   0.806   6.903   9.145  0.2328 -0.1259  0.5820
  156SAPE  H13R17406   0.882   6.822   9.145 -0.2600 -0.5935  0.4995
  156SAPE  H13S17407   0.841   6.976   9.069  0.1177  1.8522  2.3278
  156SAPE  C21417408   0.680   6.837   9.096 -0.2746 -0.4283  0.9000
  156SAPE  H14R17409   0.655   6.742   9.145  0.1151 -1.1633 -0.2895
  156SAPE  C21517410   0.598   6.867   8.998  0.3855 -0.5085  1.0387
  156SAPE  H15R17411   0.501   6.819   8.986  1.1755 -1.6872 -1.4249
  156SAPE  C21617412   0.612   6.996   8.905  0.4259 -0.0770 -0.1698
  156SAPE  H16R17413   0.612   6.972   8.797  2.2422 -0.1648 -0.1941
  156SAPE  H16S17414   0.703   7.055   8.928 -2.2573  3.1413  3.4336
  156SAPE  C21717415   0.503   7.105   8.918  1.1450 -0.0065 -0.4857
  156SAPE  H17R17416   0.517   7.166   9.010 -2.2885  0.0003  0.1587
  156SAPE  H17S17417   0.407   7.052   8.932  1.2651  0.2636  1.6856
  156SAPE  C21817418   0.498   7.192   8.796  0.3346  0.3197  0.6973
  156SAPE  H18R17419   0.459   7.126   8.715 -3.1623  0.3933  2.1267
  156SAPE  H18S17420   0.595   7.234   8.763 -0.6602  1.1397 -1.3683
  156SAPE  C21917421   0.409   7.309   8.811  0.3254  0.2493  0.5920
  156SAPE  H19R17422   0.472   7.400   8.801  0.1291  0.1796 -1.9049
  156SAPE  H19S17423   0.348   7.318   8.903 -4.0192  0.6727 -2.0679
  156SAPE  C22017424   0.302   7.330   8.707 -0.3108  0.2178  0.0012
  156SAPE  H20R17425   0.251   7.428   8.714  3.0619  2.0677  0.9857
  156SAPE  H20S17426   0.220   7.256   8.699 -2.9025  2.9886 -0.5588
  156SAPE  H20T17427   0.346   7.324   8.605 -1.7810 -1.5981 -0.5752
  156SAPE   C3317428   1.737   6.207   9.992  0.3522  0.8602 -0.4081
  156SAPE   H3X17429   1.728   6.097   9.983 -1.3103  1.0466 -1.5112
  156SAPE   H3Y17430   1.840   6.222   9.952  1.8142 -0.7026  2.4707
  156SAPE   C3417431   1.623   6.251   9.897  0.1373 -0.2492  0.2047
  156SAPE   H4X17432   1.594   6.357   9.911 -0.2201  0.1704 -2.8845
  156SAPE   H4Y17433   1.544   6.180   9.928 -2.0867  0.4360 -3.2699
  156SAPE   C3517434   1.645   6.219   9.750 -0.2441  0.3837  0.2826
  156SAPE   H5X17435   1.649   6.108   9.741  1.5775  0.5226 -1.0825
  156SAPE   H5Y17436   1.745   6.262   9.728  0.5314 -1.0934  0.7797
  156SAPE   C3617437   1.539   6.289   9.669  0.0792  0.4609  0.0787
  156SAPE   H6X17438   1.521   6.394   9.700 -1.8770  0.1844  0.0048
  156SAPE   H6Y17439   1.449   6.230   9.697  1.4689 -2.3000 -0.8973
  156SAPE   C3717440   1.549   6.279   9.516 -0.0022  0.2690  0.1249
  156SAPE   H7X17441   1.597   6.180   9.497 -2.0104 -0.4834 -1.3321
  156SAPE   H7Y17442   1.621   6.361   9.492 -1.0105  1.6166  1.4993
  156SAPE   C3817443   1.415   6.299   9.450  0.3445 -0.4623  0.0677
  156SAPE   H8X17444   1.365   6.398   9.461 -2.3046 -1.7437  0.3866
  156SAPE   H8Y17445   1.337   6.232   9.492  0.5762 -0.6675  0.1728
  156SAPE   C3917446   1.421   6.278   9.295  0.6125 -0.3943  0.4747
  156SAPE   H9X17447   1.317   6.257   9.264  0.3398  1.2388  0.1634
  156SAPE   H9Y17448   1.474   6.182   9.279 -0.6019 -1.7172  3.6819
  156SAPE  C31017449   1.465   6.407   9.227  0.3519 -0.8246 -0.2210
  156SAPE  H10X17450   1.555   6.448   9.276  0.0734  1.1940 -1.2822
  156SAPE  H10Y17451   1.391   6.489   9.237  2.3167  0.7752  2.4611
  156SAPE  C31117452   1.505   6.396   9.076  0.1209 -0.6706 -0.6168
  156SAPE  H11X17453   1.584   6.318   9.065 -0.2076 -1.2225  0.8005
  156SAPE  H11Y17454   1.547   6.495   9.047 -0.1971  0.7880  3.3341
  156SAPE  C31217455   1.391   6.352   8.988  0.2246 -0.3171  0.3793
  156SAPE  H12X17456   1.301   6.413   9.008 -1.3518 -2.2538 -0.3724
  156SAPE  H12Y17457   1.350   6.252   9.014 -3.4352  0.8143 -0.5241
  156SAPE  C31317458   1.435   6.355   8.847 -0.6893 -0.7171  0.2992
  156SAPE  H13X17459   1.450   6.255   8.801 -1.4171 -0.0695 -1.4138
  156SAPE  H13Y17460   1.530   6.411   8.837 -1.9437  1.2279 -1.4607
  156SAPE  C31417461   1.331   6.430   8.759 -0.5653  0.2186 -0.7491
  156SAPE  H14X17462   1.359   6.537   8.748 -2.8805  0.7895 -1.8477
  156SAPE  H14Y17463   1.236   6.423   8.815  0.6614  0.5626  1.4816
  156SAPE  C31517464   1.320   6.387   8.616  0.6107 -0.3102  0.0175
  156SAPE  H15X17465   1.305   6.277   8.607  0.3607 -0.2345 -0.5361
  156SAPE  H15Y17466   1.417   6.409   8.567 -0.3562 -0.6882 -2.1840
  156SAPE  C31617467   1.213   6.478   8.540 -0.0938 -0.2361 -0.5189
  156SAPE  H16X17468   1.114   6.455   8.584  0.3546  1.6035  1.6089
  156SAPE  H16Y17469   1.218   6.449   8.433  0.0056  1.3746 -0.9780
  156SAPE  C31717470   1.243   6.629   8.538 -0.0032  0.1393  0.4924
  156SAPE  H17X17471   1.229   6.681   8.635 -1.4362 -1.9012  1.4517
  156SAPE  H17Y17472   1.161   6.669   8.474  1.7163  4.1916  0.4963
  156SAPE  C31817473   1.382   6.672   8.481 -0.5047  0.2873 -0.5536
  156SAPE  H18X17474   1.406   6.627   8.382 -4.9905 -2.2013 -0.7547
  156SAPE  H18Y17475   1.461   6.646   8.555 -0.3211 -0.1627 -0.9021
  156SAPE  H18Z17476   1.383   6.782   8.468  0.4537  0.2280 -1.0559
  157SAPE     N17477   2.123   0.739  10.554  0.4268  0.5684 -0.5560
  157SAPE   HN117478   2.136   0.641  10.586 -0.0320 -0.3912 -3.0714
  157SAPE   HN217479   2.127   0.730  10.450 -1.2670  0.2537 -0.6225
  157SAPE   HN317480   2.201   0.798  10.587 -0.2557  1.2283 -0.0894
  157SAPE   C1217481   1.993   0.786  10.616 -0.1039 -1.0655  0.3713
  157SAPE  H12A17482   1.927   0.700  10.638 -2.4969  0.7466  0.6323
  157SAPE  H12B17483   1.956   0.870  10.552 -1.2571 -1.2083  0.8373
  157SAPE   C1117484   2.004   0.863  10.745  0.4501  0.7800 -0.0679
  157SAPE  H11A17485   2.031   0.778  10.811  1.4554 -0.3967 -1.9162
  157SAPE  H11B17486   1.907   0.912  10.771  0.6241  1.4966 -0.7416
  157SAPE     P17487   2.206   0.972  10.859  0.0101  0.1853 -0.0030
  157SAPE   O1317488   2.134   1.021  10.981 -0.2382  0.1137 -0.6316
  157SAPE   O1417489   2.280   0.842  10.870  0.4558  0.6693 -0.0854
  157SAPE   O1217490   2.107   0.961  10.739 -0.3729 -0.2659  0.4287
  157SAPE   O1117491   2.311   1.086  10.820  0.1852 -0.7209  0.0904
  157SAPE    C117492   2.276   1.191  10.727  0.5780 -0.3919 -0.2975
  157SAPE    HA17493   2.174   1.227  10.751  0.9352  0.2009  0.3400
  157SAPE    HB17494   2.341   1.279  10.747 -0.9003  0.3466  1.5310
  157SAPE    C217495   2.285   1.167  10.575 -0.1180 -0.2014  0.6250
  157SAPE    HS17496   2.198   1.100  10.555 -1.3604  1.2490  0.9326
  157SAPE   O2117497   2.415   1.111  10.545  1.0357  0.6143 -0.1845
  157SAPE   C2117498   2.423   1.021  10.447 -0.5809  0.3643 -0.8699
  157SAPE   O2217499   2.337   0.982  10.375 -1.0231 -0.0890 -0.2026
  157SAPE   C2217500   2.572   0.965  10.434 -0.3059 -0.3641  0.3108
  157SAPE   H2R17501   2.585   0.914  10.533 -2.8739 -3.5137 -0.7968
  157SAPE   H2S17502   2.567   0.883  10.360  1.8313 -0.4583  0.1950
  157SAPE    C317503   2.254   1.293  10.493  0.2618  0.4111 -0.1795
  157SAPE    HX17504   2.329   1.374  10.503  0.4737  0.1410  0.5208
  157SAPE    HY17505   2.158   1.336  10.527  0.0660 -1.6006  2.0592
  157SAPE   O3117506   2.257   1.263  10.354 -0.0433  0.5153  0.8379
  157SAPE   C3117507   2.144   1.226  10.292 -0.3233  0.4693 -0.1591
  157SAPE   O3217508   2.037   1.207  10.346  0.5584  0.3830  0.5187
  157SAPE   C3217509   2.160   1.212  10.142 -0.3616  0.2253  0.2236
  157SAPE   H2X17510   2.216   1.116  10.138  0.9961  0.9793  0.7146
  157SAPE   H2Y17511   2.222   1.294  10.101 -1.2503  1.6054  1.5308
  157SAPE   C2317512   2.673   1.075  10.421 -0.1734 -0.2936 -0.2556
  157SAPE   H3R17513   2.763   1.027  10.465  0.0808 -2.2844 -2.7061
  157SAPE   H3S17514   2.657   1.162  10.487  1.5345 -0.7361  0.7997
  157SAPE   C2417515   2.714   1.112  10.277 -0.7313 -0.0776  0.1065
  157SAPE   H4R17516   2.721   1.024  10.209 -1.5035 -1.4966  1.7778
  157SAPE   H4S17517   2.821   1.139  10.284 -0.0948 -2.2698 -0.3446
  157SAPE   C2517518   2.628   1.224  10.216 -0.5262  0.3866  0.2203
  157SAPE   H5R17519   2.616   1.305  10.289  1.1602  0.0325  0.9220
  157SAPE   C2617520   2.574   1.229  10.093 -0.8021  0.4920 -0.0593
  157SAPE   H6R17521   2.532   1.322  10.052 -0.8063  0.8801  0.7912
  157SAPE   C2717522   2.589   1.107  10.005 -0.6975  0.1403 -0.7916
  157SAPE   H7R17523   2.552   1.022  10.065  0.1437  1.5021  1.8011
  157SAPE   H7S17524   2.695   1.089   9.979  0.4844  0.5849  3.0858
  157SAPE   C2817525   2.500   1.113   9.882  0.6909  0.3635 -0.2027
  157SAPE   H8R17526   2.400   1.073   9.900 -0.3756  3.1172  0.4910
  157SAPE   C2917527   2.515   1.183   9.764 -0.3877  0.7306  0.6908
  157SAPE   H9R17528   2.441   1.179   9.682  0.7801  0.1722 -0.3819
  157SAPE  C21017529   2.644   1.248   9.726  0.7117 -0.9743  0.2388
  157SAPE  H10R17530   2.723   1.187   9.676  2.7306  1.2939  0.4543
  157SAPE  H10S17531   2.710   1.272   9.812  1.0588 -0.6411 -0.1151
  157SAPE  C21117532   2.621   1.389   9.667 -0.5789  1.0549 -0.4616
  157SAPE  H11R17533   2.622   1.475   9.736  3.8060  1.1160 -0.3389
  157SAPE  C21217534   2.573   1.405   9.542 -0.4535 -0.2160 -0.0881
  157SAPE  H12R17535   2.555   1.508   9.506 -1.2300 -0.5289 -0.6416
  157SAPE  C21317536   2.555   1.294   9.439 -0.2846  0.1644  0.2284
  157SAPE  H13R17537   2.451   1.261   9.464  0.6808 -1.6888  2.0468
  157SAPE  H13S17538   2.634   1.220   9.461 -0.7566 -0.4503 -0.0816
  157SAPE  C21417539   2.564   1.336   9.295 -0.6069 -0.1423  0.3642
  157SAPE  H14R17540   2.667   1.344   9.259 -1.5630 -1.4559 -2.9847
  157SAPE  C21517541   2.468   1.339   9.194 -0.3461 -0.4321  0.1632
  157SAPE  H15R17542   2.490   1.367   9.090 -1.7203  0.1109 -0.0015
  157SAPE  C21617543   2.322   1.307   9.208 -0.1013  0.5154 -0.7418
  157SAPE  H16R17544   2.284   1.269   9.305 -1.6160 -0.0194 -1.5092
  157SAPE  H16S17545   2.296   1.230   9.132 -1.5666 -0.3390  0.5561
  157SAPE  C21717546   2.225   1.423   9.173 -0.1094 -0.9133  0.4694
  157SAPE  H17R17547   2.256   1.516   9.226  1.0600 -1.3780  0.6436
  157SAPE  H17S17548   2.122   1.403   9.209 -0.4816 -0.8395 -0.5462
  157SAPE  C21817549   2.215   1.452   9.022  0.1870  0.5473 -0.3230
  157SAPE  H18R17550   2.155   1.379   8.963  1.9891 -2.9156  1.7872
  157SAPE  H18S17551   2.313   1.468   8.972  0.5607  2.7830  1.0080
  157SAPE  C21917552   2.148   1.584   9.001  0.6712  0.0868  0.1092
  157SAPE  H19R17553   2.223   1.654   8.961  0.1665 -0.8215 -2.6311
  157SAPE  H19S17554   2.108   1.613   9.101 -1.2458  0.0742 -0.6191
  157SAPE  C22017555   2.020   1.592   8.909  0.4282  0.2072  0.0607
  157SAPE  H20R17556   1.992   1.699   8.898  0.3641 -0.0442 -2.9326
  157SAPE  H20S17557   1.943   1.518   8.937 -0.4532  0.6323 -1.1699
  157SAPE  H20T17558   2.043   1.575   8.802  3.1282 -0.3996  0.6583
  157SAPE   C3317559   2.010   1.210  10.080  0.3739  0.3254 -0.3964
  157SAPE   H3X17560   1.961   1.303  10.117  1.7283  1.9719 -2.5136
  157SAPE   H3Y17561   1.956   1.123  10.124  1.6128  0.4836  1.5769
  157SAPE   C3417562   2.013   1.205   9.927  0.2945  0.1647  0.3439
  157SAPE   H4X17563   2.066   1.287   9.873 -0.2913 -1.1038 -2.3112
  157SAPE   H4Y17564   1.909   1.230   9.896  0.2141  2.4906  2.1345
  157SAPE   C3517565   2.061   1.074   9.869  0.2237  0.3041 -0.4354
  157SAPE   H5X17566   2.019   0.986   9.923  0.4474  1.0060  0.9225
  157SAPE   H5Y17567   2.168   1.056   9.895  0.5622  0.6215 -1.5759
  157SAPE   C3617568   2.047   1.065   9.718 -0.1530  0.2723 -0.5026
  157SAPE   H6X17569   2.085   0.973   9.669 -0.2329  0.1706 -0.3736
  157SAPE   H6Y17570   2.086   1.152   9.660  0.5724  1.6581  1.9075
  157SAPE   C3717571   1.901   1.071   9.664  0.3231  0.1616 -0.6279
  157SAPE   H7X17572   1.869   1.177   9.665  1.1321  0.4679 -2.8077
  157SAPE   H7Y17573   1.845   1.019   9.745  2.7363 -0.1917  0.9034
  157SAPE   C3817574   1.865   1.014   9.527  0.0797 -0.2933  0.3878
  157SAPE   H8X17575   1.754   1.013   9.520  0.1498  0.1985 -1.2268
  157SAPE   H8Y17576   1.897   0.908   9.535  2.0527  0.2766  0.5381
  157SAPE   C3917577   1.934   1.082   9.403 -0.5978  0.5824  0.0996
  157SAPE   H9X17578   2.044   1.066   9.403 -0.5599  0.8408 -0.2629
  157SAPE   H9Y17579   1.908   1.189   9.411 -0.2275  0.6119  1.0869
  157SAPE  C31017580   1.886   1.026   9.268 -0.8813 -0.0084  0.0584
  157SAPE  H10X17581   1.777   1.045   9.258 -0.8053  1.8072  1.9150
  157SAPE  H10Y17582   1.903   0.917   9.278 -2.5605 -0.4693 -1.5267
  157SAPE  C31117583   1.977   1.071   9.152  0.3433  0.5174 -0.6064
  157SAPE  H11X17584   2.086   1.051   9.162  0.5197  0.7624 -1.8575
  157SAPE  H11Y17585   1.970   1.181   9.136  1.0053  0.8451  1.0550
  157SAPE  C31217586   1.928   1.011   9.020  0.1958  0.6112  0.3874
  157SAPE  H12X17587   1.818   1.027   9.016 -0.6406 -3.8616  0.8581
  157SAPE  H12Y17588   1.944   0.902   9.028 -0.5672  0.6215  2.9031
  157SAPE  C31317589   2.009   1.063   8.903 -0.5246 -0.2353  0.4581
  157SAPE  H13X17590   2.117   1.054   8.931 -0.1539 -1.2004 -1.1356
  157SAPE  H13Y17591   1.974   1.166   8.881  0.5191  0.0341 -0.0134
  157SAPE  C31417592   1.985   0.973   8.776 -0.8198 -0.0946 -0.3776
  157SAPE  H14X17593   1.876   0.979   8.756 -0.9279  2.2682  0.5919
  157SAPE  H14Y17594   2.029   0.873   8.799 -1.3070  0.1351  1.8335
  157SAPE  C31517595   2.064   1.022   8.657  0.1957 -0.1857  0.1357
  157SAPE  H15X17596   2.168   1.035   8.694  0.2952  4.6128 -1.2237
  157SAPE  H15Y17597   2.032   1.125   8.630  0.9003 -0.0868 -0.3561
  157SAPE  C31617598   2.056   0.923   8.537 -0.4504 -0.6673 -0.8758
  157SAPE  H16X17599   1.951   0.898   8.511 -1.2043  0.9980  0.3324
  157SAPE  H16Y17600   2.110   0.830   8.565  0.4975 -0.2970 -1.4082
  157SAPE  C31717601   2.125   0.982   8.413 -0.3623 -0.4024  0.0955
  157SAPE  H17X17602   2.222   1.009   8.462 -0.4802 -0.5016  0.3851
  157SAPE  H17Y17603   2.077   1.078   8.383 -0.2206 -0.1490  0.6580
  157SAPE  C31817604   2.144   0.878   8.306  0.1476  0.1345  0.9100
  157SAPE  H18X17605   2.049   0.841   8.263  0.3023 -0.4126  1.0306
  157SAPE  H18Y17606   2.200   0.793   8.351  1.2233 -0.3935 -1.2847
  157SAPE  H18Z17607   2.207   0.917   8.223 -0.7519  0.6703  0.4734
  158SAPE     N17608   1.664   1.268  10.616  0.2927  0.7784  0.3018
  158SAPE   HN117609   1.728   1.348  10.600 -0.5526  1.4282  0.0739
  158SAPE   HN217610   1.706   1.190  10.561 -3.0218  0.1286 -1.6229
  158SAPE   HN317611   1.570   1.292  10.577  0.3220  1.2216  0.5028
  158SAPE   C1217612   1.673   1.205  10.750 -0.5742  0.8155 -0.4018
  158SAPE  H12A17613   1.684   1.096  10.733  2.0770  0.9149  0.2385
  158SAPE  H12B17614   1.589   1.237  10.816 -1.6185  0.6824 -1.6322
  158SAPE   C1117615   1.804   1.254  10.818  0.4269 -0.0470 -0.1009
  158SAPE  H11A17616   1.880   1.216  10.747 -0.1180 -0.7414 -0.3291
  158SAPE  H11B17617   1.819   1.198  10.912 -2.9670  1.5149  1.5521
  158SAPE     P17618   1.881   1.492  10.770 -0.1051  0.3644 -0.0800
  158SAPE   O1317619   1.835   1.628  10.801 -0.1902 -0.4042 -0.4820
  158SAPE   O1417620   2.023   1.455  10.794 -0.7578 -0.3486 -0.3349
  158SAPE   O1217621   1.793   1.393  10.846 -0.1262  0.2907  0.4585
  158SAPE   O1117622   1.852   1.453  10.624 -0.5775 -0.3198  0.7614
  158SAPE    C117623   1.943   1.485  10.518 -0.7005  0.0378 -0.4781
  158SAPE    HA17624   2.041   1.526  10.552 -1.0207  0.5153 -0.1316
  158SAPE    HB17625   1.971   1.389  10.469 -2.1227 -0.8246  0.3257
  158SAPE    C217626   1.874   1.561  10.403  0.0119  0.8786 -0.6693
  158SAPE    HS17627   1.843   1.650  10.462 -0.5242  0.5839 -0.5016
  158SAPE   O2117628   1.751   1.487  10.363  0.2930 -0.3542 -0.4560
  158SAPE   C2117629   1.654   1.560  10.318 -0.9217 -0.2046 -0.2924
  158SAPE   O2217630   1.649   1.681  10.309 -0.1668 -0.3556 -0.0636
  158SAPE   C2217631   1.538   1.483  10.261  0.5916  0.9343 -0.6634
  158SAPE   H2R17632   1.529   1.385  10.311  0.4531  0.1993 -2.0616
  158SAPE   H2S17633   1.445   1.541  10.276  0.2345  0.8316 -2.2191
  158SAPE    C317634   1.968   1.591  10.281 -0.0354 -0.1598  0.3981
  158SAPE    HX17635   2.018   1.492  10.272 -1.0081 -0.4983 -1.9868
  158SAPE    HY17636   2.045   1.669  10.299 -2.5343  3.4128 -2.8641
  158SAPE   O3117637   1.891   1.624  10.160 -0.4824  0.1080  0.0267
  158SAPE   C3117638   1.880   1.761  10.134  0.0607 -0.0933 -0.3258
  158SAPE   O3217639   1.945   1.846  10.188 -0.7118 -0.3209 -0.1823
  158SAPE   C3217640   1.771   1.780  10.032  0.1588  0.9951 -0.2619
  158SAPE   H2X17641   1.690   1.792  10.108 -1.4471 -2.5225 -1.2376
  158SAPE   H2Y17642   1.751   1.684   9.981  1.2025  0.7509 -0.2217
  158SAPE   C2317643   1.548   1.442  10.104  0.0580 -0.3250 -0.0679
  158SAPE   H3R17644   1.557   1.541  10.054  0.5503  0.8110  2.1005
  158SAPE   H3S17645   1.449   1.398  10.082  0.0841  0.0732 -1.0258
  158SAPE   C2417646   1.669   1.351  10.069 -0.6365  0.0138 -0.4282
  158SAPE   H4R17647   1.763   1.392  10.112 -1.2914  0.1021  0.9713
  158SAPE   H4S17648   1.680   1.341   9.959  0.6764 -1.6319 -0.1818
  158SAPE   C2517649   1.645   1.217  10.136 -0.0405  0.2740  0.1979
  158SAPE   H5R17650   1.657   1.217  10.245  0.7387  0.4333  0.1127
  158SAPE   C2617651   1.608   1.099  10.074  0.0282 -0.7660  0.4263
  158SAPE   H6R17652   1.599   1.012  10.141  1.9969  0.2592  2.1258
  158SAPE   C2717653   1.577   1.079   9.928  0.2221  0.4588  0.9136
  158SAPE   H7R17654   1.560   0.972   9.906 -2.1798  1.2957 -1.9824
  158SAPE   H7S17655   1.662   1.107   9.863  0.1634  1.0577  1.0795
  158SAPE   C2817656   1.451   1.155   9.880 -0.8255 -0.2377  0.4788
  158SAPE   H8R17657   1.378   1.181   9.958  1.1096 -2.4804  3.2378
  158SAPE   C2917658   1.416   1.187   9.752 -0.1591  0.1138 -0.4022
  158SAPE   H9R17659   1.322   1.244   9.746 -1.0423 -0.9592  2.0269
  158SAPE  C21017660   1.498   1.152   9.628  0.3290 -0.3870 -0.6623
  158SAPE  H10R17661   1.474   1.053   9.583  0.7654 -0.7243 -0.1595
  158SAPE  H10S17662   1.601   1.149   9.670 -0.6285  0.7908  1.9689
  158SAPE  C21117663   1.488   1.271   9.531 -0.4939 -0.1738 -0.0215
  158SAPE  H11R17664   1.423   1.261   9.443  1.2586  1.9403 -1.6702
  158SAPE  C21217665   1.551   1.395   9.534  0.3534 -0.4205  0.3102
  158SAPE  H12R17666   1.524   1.459   9.449 -1.5707 -1.8364 -0.2114
  158SAPE  C21317667   1.639   1.449   9.648  0.6804  0.5197  0.2814
  158SAPE  H13R17668   1.739   1.410   9.617  0.3871 -0.9132  1.0473
  158SAPE  H13S17669   1.617   1.397   9.744  0.4855  0.7165  0.3437
  158SAPE  C21417670   1.631   1.594   9.685  0.4255  0.8771  0.2583
  158SAPE  H14R17671   1.711   1.648   9.632  0.3418 -0.1772 -0.9881
  158SAPE  C21517672   1.533   1.658   9.748 -0.6723  0.3788  0.1960
  158SAPE  H15R17673   1.548   1.766   9.765  1.2552 -0.0088  1.2360
  158SAPE  C21617674   1.408   1.597   9.807 -0.0256  0.0290  0.4780
  158SAPE  H16R17675   1.376   1.641   9.904 -0.5339  0.6844  0.0303
  158SAPE  H16S17676   1.437   1.493   9.833  1.1325 -0.1005 -1.1870
  158SAPE  C21717677   1.292   1.575   9.709 -0.3197 -0.2304 -0.0316
  158SAPE  H17R17678   1.225   1.498   9.753 -0.1995 -0.2727  0.0823
  158SAPE  H17S17679   1.336   1.539   9.614  2.0486  0.1436  0.8445
  158SAPE  C21817680   1.215   1.705   9.690 -0.3745 -0.3296  0.4065
  158SAPE  H18R17681   1.284   1.777   9.643 -1.1993  0.7712  0.8482
  158SAPE  H18S17682   1.182   1.745   9.788  1.2956 -1.7047  1.5851
  158SAPE  C21917683   1.098   1.692   9.588 -0.3152  0.4336  0.0241
  158SAPE  H19R17684   1.019   1.768   9.607 -3.4645 -2.2008 -1.6553
  158SAPE  H19S17685   1.050   1.592   9.593 -0.7249  0.4904 -2.1214
  158SAPE  C22017686   1.153   1.718   9.449 -0.5634  0.2129 -0.3910
  158SAPE  H20R17687   1.217   1.632   9.422 -0.0690  0.7289 -0.8964
  158SAPE  H20S17688   1.209   1.812   9.428 -0.6758  0.2501 -0.5222
  158SAPE  H20T17689   1.068   1.722   9.378 -0.2051  0.8356 -0.7948
  158SAPE   C3317690   1.799   1.891   9.937  0.3377  0.3215  0.3746
  158SAPE   H3X17691   1.812   1.991   9.983  3.3354 -0.3095  1.1424
  158SAPE   H3Y17692   1.709   1.904   9.874 -0.1383  0.1869  1.0195
  158SAPE   C3417693   1.907   1.844   9.840  0.0247  0.4258  0.0129
  158SAPE   H4X17694   1.906   1.737   9.813  2.0654  0.2337  0.5397
  158SAPE   H4Y17695   2.003   1.854   9.896 -0.0515 -0.3002  0.2859
  158SAPE   C3517696   1.901   1.932   9.711  0.2531 -0.0895  0.5000
  158SAPE   H5X17697   1.896   2.041   9.732  0.5387 -0.0048  0.1486
  158SAPE   H5Y17698   1.801   1.907   9.671  0.8286 -0.5161 -0.7182
  158SAPE   C3617699   2.005   1.904   9.606  0.0896 -0.2678 -0.5746
  158SAPE   H6X17700   2.013   1.794   9.595  0.0728 -0.3585  0.3002
  158SAPE   H6Y17701   2.107   1.932   9.638  0.5329  0.9906 -2.8553
  158SAPE   C3717702   1.974   1.980   9.477 -0.3189 -0.1933  0.4480
  158SAPE   H7X17703   1.970   2.090   9.491  1.0581 -0.1761  0.8125
  158SAPE   H7Y17704   1.881   1.935   9.437  0.1116 -2.1588  1.5009
  158SAPE   C3817705   2.084   1.964   9.370  0.1171  0.1240 -0.3418
  158SAPE   H8X17706   2.120   1.860   9.361  1.8596  0.5510  1.0074
  158SAPE   H8Y17707   2.178   2.012   9.405 -0.1131  1.3840 -1.3686
  158SAPE   C3917708   2.039   2.007   9.231  0.6925  0.1435 -0.5307
  158SAPE   H9X17709   2.006   2.112   9.218 -0.5826 -0.0531  0.8544
  158SAPE   H9Y17710   1.944   1.949   9.230 -0.0157  1.2527 -2.3922
  158SAPE  C31017711   2.123   1.956   9.112 -0.2036  0.0994 -0.4608
  158SAPE  H10X17712   2.146   1.853   9.146 -1.9932  0.4782  2.1856
  158SAPE  H10Y17713   2.222   2.006   9.112 -0.8741  1.8459  3.7649
  158SAPE  C31117714   2.046   1.955   8.984 -0.1751 -0.2026  0.4102
  158SAPE  H11X17715   1.960   1.890   9.009 -0.8738  0.8521  0.8057
  158SAPE  H11Y17716   2.101   1.906   8.900  2.7649 -0.4689  2.3189
  158SAPE  C31217717   1.982   2.086   8.936  0.1332  0.2533  0.5052
  158SAPE  H12X17718   2.064   2.157   8.913  0.3599 -0.3039 -0.4533
  158SAPE  H12Y17719   1.920   2.130   9.017  1.2595 -0.2643  1.6932
  158SAPE  C31317720   1.881   2.064   8.821  0.2316  0.4591 -0.3432
  158SAPE  H13X17721   1.941   2.033   8.732 -0.3832  1.6875 -1.2202
  158SAPE  H13Y17722   1.842   2.165   8.795  1.5117  0.6918 -1.4416
  158SAPE  C31417723   1.765   1.971   8.849  0.9327 -0.0697  0.2617
  158SAPE  H14X17724   1.693   1.998   8.929 -1.7728  2.4637 -2.7145
  158SAPE  H14Y17725   1.802   1.866   8.851 -0.5309 -0.6387 -0.7126
  158SAPE  C31517726   1.670   1.963   8.730  0.0145  0.5276  0.1250
  158SAPE  H15X17727   1.727   1.938   8.638  1.5746 -1.1145  1.4589
  158SAPE  H15Y17728   1.608   2.052   8.710 -0.5401  0.2848  0.7404
  158SAPE  C31617729   1.568   1.862   8.764  0.6102  0.3838 -0.3360
  158SAPE  H16X17730   1.506   1.908   8.844 -0.3263  2.7026 -2.2581
  158SAPE  H16Y17731   1.618   1.767   8.791 -1.2632 -1.2203 -2.1495
  158SAPE  C31717732   1.481   1.825   8.641 -0.5783  0.6263 -0.7367
  158SAPE  H17X17733   1.534   1.775   8.557  0.8248  1.4088 -0.3562
  158SAPE  H17Y17734   1.445   1.925   8.608  0.5186  1.3051  0.0263
  158SAPE  C31817735   1.361   1.744   8.689  0.4348  0.1486 -0.1209
  158SAPE  H18X17736   1.383   1.647   8.740  0.3160  0.0096 -0.3320
  158SAPE  H18Y17737   1.287   1.716   8.611 -0.2809 -0.8704  0.8905
  158SAPE  H18Z17738   1.297   1.800   8.760 -0.4025 -0.6294 -0.2376
  159SAPE     N17739   4.738   3.233   6.317 -0.1331  0.6622  0.3797
  159SAPE   HN117740   4.765   3.292   6.398  0.7765  2.6127 -1.2359
  159SAPE   HN217741   4.800   3.269   6.241 -0.7797  1.0036  0.0006
  159SAPE   HN317742   4.641   3.263   6.294 -0.1356  0.5640  0.2636
  159SAPE   C1217743   4.761   3.089   6.349  0.6880 -0.3860  0.3096
  159SAPE  H12A17744   4.701   3.027   6.279  2.0293 -0.0169 -1.2336
  159SAPE  H12B17745   4.716   3.067   6.448 -3.1969 -1.8193 -1.5570
  159SAPE   C1117746   4.913   3.049   6.342 -0.7234  0.0008 -0.3334
  159SAPE  H11A17747   4.947   3.050   6.236 -0.5255 -1.1264 -0.2954
  159SAPE  H11B17748   4.916   2.944   6.377  1.8468 -1.0401 -3.2409
  159SAPE     P17749   5.128   3.096   6.466 -0.2136 -0.2119 -0.2140
  159SAPE   O1317750   5.145   2.955   6.440  0.5237  0.0956 -0.0106
  159SAPE   O1417751   5.223   3.191   6.400  0.0611 -1.1297 -0.1108
  159SAPE   O1217752   4.984   3.135   6.422  0.2858  0.4745  0.3661
  159SAPE   O1117753   5.140   3.113   6.623  0.5764  0.0630 -0.0501
  159SAPE    C117754   5.046   3.187   6.703 -0.5612  0.3302  0.3573
  159SAPE    HA17755   4.943   3.192   6.662 -0.1481  2.0463 -0.5490
  159SAPE    HB17756   5.051   3.147   6.807  0.3383  1.9368  0.9682
  159SAPE    C217757   5.080   3.336   6.718 -0.4229 -0.4056 -0.1008
  159SAPE    HS17758   5.105   3.372   6.616 -0.3145  0.5999  0.2750
  159SAPE   O2117759   5.205   3.343   6.799  0.0486 -0.3052 -0.2534
  159SAPE   C2117760   5.245   3.466   6.828  0.2145 -0.0913  0.7239
  159SAPE   O2217761   5.205   3.573   6.781  0.2771 -0.1968 -0.3080
  159SAPE   C2217762   5.336   3.449   6.946  1.0238  0.0929  0.0825
  159SAPE   H2R17763   5.287   3.385   7.023 -0.4937  1.4315  0.3011
  159SAPE   H2S17764   5.428   3.403   6.903  0.8532  0.3889 -0.6040
  159SAPE    C317765   4.966   3.418   6.774  0.4027 -0.6215  0.1104
  159SAPE    HX17766   4.875   3.372   6.728  0.9921 -2.5034  0.7333
  159SAPE    HY17767   4.969   3.522   6.734 -1.3887 -0.8556 -0.7848
  159SAPE   O3117768   4.956   3.418   6.914  0.5582  0.6627  0.4324
  159SAPE   C3117769   4.900   3.314   6.986  0.4464  0.4658 -0.2072
  159SAPE   O3217770   4.849   3.217   6.938  0.6690 -0.1160 -0.0722
  159SAPE   C3217771   4.886   3.353   7.137  1.0339  0.2896 -0.1012
  159SAPE   H2X17772   4.813   3.278   7.174  2.7547 -0.6883  1.4895
  159SAPE   H2Y17773   4.855   3.457   7.157 -0.6490 -0.2100  0.0323
  159SAPE   C2317774   5.388   3.578   7.013 -0.7085 -0.0933 -1.0776
  159SAPE   H3R17775   5.300   3.646   7.020 -1.0129 -0.6280  0.8009
  159SAPE   H3S17776   5.471   3.619   6.952  0.4032 -0.6594  0.0257
  159SAPE   C2417777   5.428   3.562   7.163  0.4530  1.1246  0.4658
  159SAPE   H4R17778   5.499   3.478   7.170  0.8609  1.1835 -2.1422
  159SAPE   H4S17779   5.340   3.536   7.226 -0.4395 -1.4364 -1.6316
  159SAPE   C2517780   5.510   3.675   7.231 -0.2847  0.5645  0.3313
  159SAPE   H5R17781   5.541   3.758   7.166 -1.8750  1.3779  0.5716
  159SAPE   C2617782   5.545   3.692   7.359 -0.5053  0.4059 -0.3078
  159SAPE   H6R17783   5.620   3.769   7.379  0.4329 -1.0324  2.0801
  159SAPE   C2717784   5.515   3.596   7.471 -0.1903 -0.1282 -0.2781
  159SAPE   H7R17785   5.502   3.492   7.434  1.1312 -0.6437  0.6407
  159SAPE   H7S17786   5.421   3.624   7.522 -0.3375 -0.6662 -0.2505
  159SAPE   C2817787   5.636   3.585   7.562 -0.4110  0.2065 -0.5589
  159SAPE   H8R17788   5.729   3.550   7.515 -0.2992 -0.5955  0.2334
  159SAPE   C2917789   5.647   3.625   7.687 -0.4788  0.3840 -0.1387
  159SAPE   H9R17790   5.747   3.619   7.732 -0.1851  0.0076 -0.8100
  159SAPE  C21017791   5.540   3.697   7.756 -0.3649  0.0949 -1.2041
  159SAPE  H10R17792   5.480   3.624   7.815  3.7257 -1.1372  1.9247
  159SAPE  H10S17793   5.479   3.755   7.684 -1.2318  0.2056 -0.3999
  159SAPE  C21117794   5.619   3.792   7.850  0.4179 -0.0279 -0.0318
  159SAPE  H11R17795   5.694   3.853   7.797 -0.4889  0.6474 -0.5721
  159SAPE  C21217796   5.616   3.797   7.987 -0.0581  0.0148 -0.0215
  159SAPE  H12R17797   5.665   3.877   8.043 -1.4541  1.0181 -0.1972
  159SAPE  C21317798   5.544   3.696   8.074  1.2130 -0.2961 -0.5736
  159SAPE  H13R17799   5.608   3.629   8.135 -1.3765 -0.2182  2.5028
  159SAPE  H13S17800   5.492   3.619   8.013 -0.3730 -1.1356  1.7084
  159SAPE  C21417801   5.444   3.753   8.170 -0.2893  0.3694 -0.3144
  159SAPE  H14R17802   5.339   3.747   8.136  0.1388 -0.4577 -1.5421
  159SAPE  C21517803   5.482   3.799   8.294 -0.0798 -0.0778 -0.0458
  159SAPE  H15R17804   5.400   3.830   8.361 -0.0359 -1.2274  0.5543
  159SAPE  C21617805   5.628   3.804   8.345  0.1481 -0.3433  0.0485
  159SAPE  H16R17806   5.704   3.784   8.266 -1.5649 -1.3631 -1.4048
  159SAPE  H16S17807   5.653   3.732   8.426 -0.7272 -1.7642 -0.9027
  159SAPE  C21717808   5.663   3.936   8.418 -0.0248 -0.7175  0.5086
  159SAPE  H17R17809   5.577   4.006   8.425  2.4975  2.6675 -0.1289
  159SAPE  H17S17810   5.741   3.982   8.354  1.6461 -0.5978  2.5348
  159SAPE  C21817811   5.713   3.924   8.561 -0.1883 -0.5368 -0.7085
  159SAPE  H18R17812   5.806   3.864   8.567  1.0648  1.0667 -2.7173
  159SAPE  H18S17813   5.628   3.886   8.622  1.8634 -1.4016  1.7582
  159SAPE  C21917814   5.748   4.061   8.621 -0.3271  0.1313 -0.7812
  159SAPE  H19R17815   5.788   4.051   8.724  2.0376 -1.2460 -1.7343
  159SAPE  H19S17816   5.657   4.122   8.605  1.3448  2.8420 -0.6475
  159SAPE  C22017817   5.862   4.148   8.551  0.2648 -0.0090  0.1471
  159SAPE  H20R17818   5.860   4.237   8.618 -3.4395  0.2844 -0.1436
  159SAPE  H20S17819   5.839   4.171   8.445  1.2121 -0.6467 -0.2158
  159SAPE  H20T17820   5.960   4.096   8.552  0.6342  0.6044 -1.3763
  159SAPE   C3317821   5.021   3.318   7.205 -0.2026 -0.0543  0.0955
  159SAPE   H3X17822   5.104   3.381   7.167 -0.9910  1.2600  0.4571
  159SAPE   H3Y17823   5.054   3.215   7.180 -0.1056  0.7374 -3.5460
  159SAPE   C3417824   5.019   3.346   7.350  0.4933 -0.0437  0.3092
  159SAPE   H4X17825   4.948   3.285   7.409  2.2011 -1.1746  1.2785
  159SAPE   H4Y17826   5.003   3.455   7.362  0.0930 -0.1345  0.6100
  159SAPE   C3517827   5.152   3.322   7.414 -0.2315  0.4204  0.2732
  159SAPE   H5X17828   5.235   3.378   7.366  1.1258 -0.3105  1.6551
  159SAPE   H5Y17829   5.173   3.213   7.416 -0.1578  0.4272 -0.1197
  159SAPE   C3617830   5.152   3.369   7.560  0.4231  0.1710  0.2011
  159SAPE   H6X17831   5.059   3.332   7.609  0.0825  0.0103 -0.5672
  159SAPE   H6Y17832   5.152   3.480   7.554  0.7375  0.1295 -0.6432
  159SAPE   C3717833   5.268   3.333   7.650  0.4881  0.1269  0.4048
  159SAPE   H7X17834   5.362   3.366   7.601 -0.9300  0.8493 -2.0372
  159SAPE   H7Y17835   5.277   3.223   7.665 -0.2349 -0.0439 -0.2871
  159SAPE   C3817836   5.263   3.401   7.791 -0.8635 -0.0469 -0.0413
  159SAPE   H8X17837   5.278   3.509   7.768  1.4461 -0.6112 -1.5203
  159SAPE   H8Y17838   5.352   3.368   7.847 -0.3155  0.7755 -0.4106
  159SAPE   C3917839   5.130   3.380   7.874 -0.1498  0.1292  0.2578
  159SAPE   H9X17840   5.107   3.271   7.866  0.5758  0.0860 -1.6228
  159SAPE   H9Y17841   5.046   3.434   7.825 -0.9694  0.5363  2.0116
  159SAPE  C31017842   5.131   3.444   8.015 -0.3209  0.4093  0.5156
  159SAPE  H10X17843   5.137   3.553   7.999  1.2015  0.5517  1.7494
  159SAPE  H10Y17844   5.225   3.415   8.067 -1.5671 -0.2187  2.5593
  159SAPE  C31117845   5.015   3.414   8.113  0.2737  0.1088 -0.6090
  159SAPE  H11X17846   5.048   3.429   8.218  1.0083  0.3597 -0.8635
  159SAPE  H11Y17847   4.988   3.307   8.102 -0.0636  0.2316 -0.9971
  159SAPE  C31217848   4.897   3.504   8.078  0.0023 -0.9414  0.2891
  159SAPE  H12X17849   4.852   3.482   7.979 -0.8174  1.3077  0.1076
  159SAPE  H12Y17850   4.921   3.612   8.090  1.1193 -1.1060 -0.3364
  159SAPE  C31317851   4.791   3.469   8.178  0.1722 -0.1333 -0.0744
  159SAPE  H13X17852   4.814   3.507   8.280 -0.7180 -2.1768  0.9554
  159SAPE  H13Y17853   4.773   3.359   8.177  2.1608 -0.4916 -0.4328
  159SAPE  C31417854   4.646   3.514   8.143  0.1622 -0.0309 -0.3634
  159SAPE  H14X17855   4.564   3.459   8.195 -0.5007  0.6941 -0.6029
  159SAPE  H14Y17856   4.628   3.476   8.040  1.2269 -1.3326 -0.0891
  159SAPE  C31517857   4.624   3.664   8.136  0.7012 -0.2879 -0.1912
  159SAPE  H15X17858   4.518   3.697   8.130  0.6766  1.0682  3.9960
  159SAPE  H15Y17859   4.675   3.699   8.044 -1.2045  0.2482 -1.0814
  159SAPE  C31617860   4.687   3.727   8.259  0.4332 -0.0005 -0.1514
  159SAPE  H16X17861   4.675   3.835   8.237  0.6828 -0.2817 -1.7885
  159SAPE  H16Y17862   4.796   3.720   8.276  0.5195 -1.8299 -1.1749
  159SAPE  C31717863   4.621   3.679   8.390 -0.2959  1.0641 -0.1220
  159SAPE  H17X17864   4.653   3.757   8.463 -0.5391  0.3699  0.7286
  159SAPE  H17Y17865   4.657   3.576   8.408 -2.6164 -0.3810 -2.8824
  159SAPE  C31817866   4.467   3.661   8.394 -0.3924  0.4098  0.6838
  159SAPE  H18X17867   4.434   3.576   8.331 -0.1621  0.1518  0.9118
  159SAPE  H18Y17868   4.427   3.758   8.355  0.5080  0.7604  0.5960
  159SAPE  H18Z17869   4.429   3.635   8.494  1.1416 -3.8743  0.3360
  160SAPE     N17870   2.128   5.105   6.350 -0.4045 -0.1977 -0.7687
  160SAPE   HN117871   2.105   5.024   6.412 -0.7142  1.2727  1.1498
  160SAPE   HN217872   2.127   5.072   6.252 -0.4738 -1.7940 -0.2579
  160SAPE   HN317873   2.229   5.128   6.360 -0.5837  0.4132 -0.3167
  160SAPE   C1217874   2.041   5.218   6.386  1.4957  0.1318 -0.0109
  160SAPE  H12A17875   2.039   5.279   6.293 -0.8829  1.4578  0.8273
  160SAPE  H12B17876   2.061   5.278   6.477 -1.7225  1.7905 -0.2387
  160SAPE   C1117877   1.891   5.175   6.417  0.5813  0.4767 -0.1640
  160SAPE  H11A17878   1.848   5.118   6.331 -0.8104  1.7354 -0.3613
  160SAPE  H11B17879   1.823   5.262   6.427 -1.4067 -1.1332  1.1349
  160SAPE     P17880   1.898   4.953   6.549 -0.2982  0.1560  0.1443
  160SAPE   O1317881   1.805   4.878   6.458 -0.4148  0.0203  0.2578
  160SAPE   O1417882   2.042   4.935   6.532 -0.1008 -0.5624 -0.3030
  160SAPE   O1217883   1.875   5.100   6.534 -0.4585 -0.3968  0.6299
  160SAPE   O1117884   1.851   4.939   6.704  0.6438 -0.2982  0.4195
  160SAPE    C117885   1.879   5.040   6.800 -0.2409 -0.5881  0.2868
  160SAPE    HA17886   1.930   4.987   6.883 -0.0980 -2.5782 -0.9974
  160SAPE    HB17887   1.959   5.110   6.769 -0.4643 -0.6749 -0.5368
  160SAPE    C217888   1.757   5.125   6.848  0.3577  0.1281  0.1373
  160SAPE    HS17889   1.797   5.183   6.934  2.7172  0.2211 -0.9385
  160SAPE   O2117890   1.656   5.032   6.892 -0.5196 -0.2122 -0.1786
  160SAPE   C2117891   1.673   4.977   7.006 -0.5218 -0.0304 -0.2489
  160SAPE   O2217892   1.767   4.989   7.083 -0.3848  0.4057  0.1149
  160SAPE   C2217893   1.557   4.892   7.032  0.3238 -0.1405 -0.0416
  160SAPE   H2R17894   1.467   4.956   7.047  0.1877 -0.1188 -0.9154
  160SAPE   H2S17895   1.530   4.829   6.945 -2.2583 -0.3893  0.8406
  160SAPE    C317896   1.699   5.220   6.727 -0.5400  0.0696 -0.0760
  160SAPE    HX17897   1.667   5.154   6.644 -3.3195  1.0290  0.1221
  160SAPE    HY17898   1.784   5.272   6.679 -0.7916  0.0366 -0.5617
  160SAPE   O3117899   1.592   5.307   6.762 -0.2475  0.2407 -0.3627
  160SAPE   C3117900   1.608   5.433   6.758  0.1005  0.0040 -0.1422
  160SAPE   O3217901   1.713   5.492   6.737 -0.0014 -0.2133 -0.1551
  160SAPE   C3217902   1.466   5.503   6.775 -0.3308  0.0500 -0.2550
  160SAPE   H2X17903   1.408   5.516   6.682 -1.2925  1.0402  0.4582
  160SAPE   H2Y17904   1.476   5.611   6.796 -2.5766  0.1096  0.9079
  160SAPE   C2317905   1.578   4.817   7.166 -0.4175  0.2813 -0.2414
  160SAPE   H3R17906   1.591   4.900   7.238  3.3199  0.1919 -0.6554
  160SAPE   H3S17907   1.670   4.756   7.162 -1.3701 -1.4518  2.1005
  160SAPE   C2417908   1.461   4.726   7.215 -0.4128  0.5049 -0.6979
  160SAPE   H4R17909   1.503   4.664   7.297  0.4926  1.3370 -0.5105
  160SAPE   H4S17910   1.430   4.664   7.129 -2.2076  0.9204 -0.4053
  160SAPE   C2517911   1.345   4.813   7.250  0.5685  0.0097  0.1965
  160SAPE   H5R17912   1.273   4.818   7.166  0.1457 -1.1172  0.4719
  160SAPE   C2617913   1.306   4.873   7.365 -0.4057 -0.7058 -0.1215
  160SAPE   H6R17914   1.214   4.933   7.363  0.9103  1.4301 -0.0358
  160SAPE   C2717915   1.377   4.865   7.494 -0.5871 -0.2230 -0.1007
  160SAPE   H7R17916   1.410   4.763   7.522 -2.8896 -1.1777 -0.6187
  160SAPE   H7S17917   1.302   4.904   7.567 -1.8142 -3.2165  0.3688
  160SAPE   C2817918   1.505   4.939   7.507 -0.1333 -0.6052  0.0591
  160SAPE   H8R17919   1.553   4.968   7.412 -1.0002 -1.9285 -0.8093
  160SAPE   C2917920   1.557   4.982   7.623 -0.1815  0.1607  0.3877
  160SAPE   H9R17921   1.649   5.041   7.632 -0.1019 -0.0255  0.8041
  160SAPE  C21017922   1.502   4.958   7.760 -0.0581  0.3018  0.2147
  160SAPE  H10R17923   1.575   4.900   7.820  0.4876  2.0093  1.2844
  160SAPE  H10S17924   1.404   4.906   7.761 -1.0909  2.0616 -1.6416
  160SAPE  C21117925   1.490   5.090   7.828  0.2754 -0.1377 -0.6760
  160SAPE  H11R17926   1.470   5.173   7.759 -0.3252 -1.2683 -1.8913
  160SAPE  C21217927   1.519   5.128   7.953 -0.2132  0.5083 -0.0528
  160SAPE  H12R17928   1.515   5.235   7.981 -0.1270  0.1481  1.4397
  160SAPE  C21317929   1.565   5.050   8.071  0.0341  0.9333  0.5008
  160SAPE  H13R17930   1.673   5.055   8.096 -0.4480  0.8347  2.8593
  160SAPE  H13S17931   1.548   4.942   8.052 -1.3270  1.1280  0.5527
  160SAPE  C21417932   1.497   5.077   8.201  0.0157 -0.3805 -0.6699
  160SAPE  H14R17933   1.391   5.051   8.203 -0.4328  1.1600 -2.3218
  160SAPE  C21517934   1.551   5.138   8.311  0.6981 -0.1271  0.7783
  160SAPE  H15R17935   1.480   5.163   8.391 -1.1040  0.1919 -0.8402
  160SAPE  C21617936   1.700   5.189   8.326 -0.2028  0.0594 -0.1378
  160SAPE  H16R17937   1.764   5.144   8.247  0.6916 -0.5636  0.9199
  160SAPE  H16S17938   1.755   5.148   8.413  1.3729  3.5680  0.7108
  160SAPE  C21717939   1.724   5.343   8.318  0.4139  0.1427  0.3329
  160SAPE  H17R17940   1.668   5.388   8.233 -2.2468 -1.2243  1.2314
  160SAPE  H17S17941   1.834   5.350   8.307  0.2409  0.8919 -1.3107
  160SAPE  C21817942   1.693   5.409   8.448 -0.5990 -0.3902 -0.4744
  160SAPE  H18R17943   1.738   5.353   8.532 -1.3758  0.0241  0.2257
  160SAPE  H18S17944   1.583   5.409   8.464 -0.4493  0.7600  0.6572
  160SAPE  C21917945   1.756   5.551   8.445  0.7121 -0.1578 -0.3421
  160SAPE  H19R17946   1.744   5.598   8.345  0.3782 -0.6212 -0.5239
  160SAPE  H19S17947   1.863   5.529   8.466  0.4950 -0.6347  0.3049
  160SAPE  C22017948   1.686   5.643   8.553 -0.4974 -0.0965  0.5640
  160SAPE  H20R17949   1.688   5.612   8.659  0.6596  2.3610  1.3229
  160SAPE  H20S17950   1.580   5.670   8.530 -0.3043  1.5258  1.4573
  160SAPE  H20T17951   1.734   5.742   8.547 -0.2670 -0.1404  1.5268
  160SAPE   C3317952   1.369   5.427   6.874 -1.8013 -0.4438 -0.8412
  160SAPE   H3X17953   1.366   5.327   6.826 -2.8570  0.2055 -2.1996
  160SAPE   H3Y17954   1.269   5.475   6.867 -1.1219  1.2779  0.4204
  160SAPE   C3417955   1.428   5.426   7.019  0.3341 -0.6260  0.4842
  160SAPE   H4X17956   1.534   5.392   7.026  0.9679  0.5831 -2.0876
  160SAPE   H4Y17957   1.365   5.361   7.083  0.3252 -0.9811  0.1196
  160SAPE   C3517958   1.415   5.564   7.083  0.7043  0.1666 -0.2588
  160SAPE   H5X17959   1.308   5.589   7.099  0.6674  1.8955 -2.6853
  160SAPE   H5Y17960   1.442   5.644   7.011  0.3018 -0.0691 -0.6791
  160SAPE   C3617961   1.498   5.581   7.217  0.0515 -0.3914  0.7021
  160SAPE   H6X17962   1.490   5.691   7.229  0.4265 -0.2005 -0.6089
  160SAPE   H6Y17963   1.602   5.544   7.201  1.0922  1.9689  1.5522
  160SAPE   C3717964   1.440   5.531   7.344 -0.1408 -0.2980 -0.4550
  160SAPE   H7X17965   1.453   5.420   7.349 -0.2018 -0.2601  2.7228
  160SAPE   H7Y17966   1.334   5.564   7.344  0.5342  2.0331  0.4525
  160SAPE   C3817967   1.499   5.607   7.468  1.0340  0.7334 -0.6160
  160SAPE   H8X17968   1.480   5.716   7.478  1.3533  0.6055  2.2425
  160SAPE   H8Y17969   1.608   5.605   7.489  0.8844  2.4837  0.5620
  160SAPE   C3917970   1.443   5.560   7.596 -0.3734 -0.1304  0.1604
  160SAPE   H9X17971   1.472   5.459   7.631  0.7279  0.7074  1.8417
  160SAPE   H9Y17972   1.334   5.565   7.579 -0.3773 -0.2838  0.1460
  160SAPE  C31017973   1.476   5.660   7.702 -0.7516 -0.3885  0.6364
  160SAPE  H10X17974   1.412   5.749   7.681  0.0403 -0.3212 -1.7215
  160SAPE  H10Y17975   1.579   5.701   7.694 -0.4720 -1.1185  0.4957
  160SAPE  C31117976   1.439   5.611   7.837  0.2914 -0.0905  0.5625
  160SAPE  H11X17977   1.494   5.518   7.865 -0.0701 -0.4968 -0.0536
  160SAPE  H11Y17978   1.334   5.578   7.824  0.0420  1.3880 -1.7574
  160SAPE  C31217979   1.465   5.718   7.939  0.2217  0.6852 -0.8032
  160SAPE  H12X17980   1.415   5.815   7.918 -0.5071  0.3926 -0.4463
  160SAPE  H12Y17981   1.575   5.737   7.930  0.1900  0.7069 -1.1883
  160SAPE  C31317982   1.416   5.668   8.076 -0.0677  0.1930  0.1056
  160SAPE  H13X17983   1.484   5.584   8.104  0.0459  0.8705  2.0013
  160SAPE  H13Y17984   1.314   5.630   8.054 -0.4532  1.2886 -0.0468
  160SAPE  C31417985   1.400   5.780   8.177 -0.3940 -0.3940 -0.5614
  160SAPE  H14X17986   1.349   5.869   8.133  1.6392  1.0297 -0.1898
  160SAPE  H14Y17987   1.503   5.816   8.197  0.3232 -1.4771 -2.1010
  160SAPE  C31517988   1.337   5.757   8.314  0.1612 -0.0904  0.0428
  160SAPE  H15X17989   1.397   5.685   8.373  0.9677 -0.3791 -1.1054
  160SAPE  H15Y17990   1.234   5.714   8.311 -0.0172  0.3385 -0.0585
  160SAPE  C31617991   1.322   5.888   8.388 -0.9162 -0.0906  0.3842
  160SAPE  H16X17992   1.229   5.937   8.349 -0.6026 -0.5982 -1.0456
  160SAPE  H16Y17993   1.405   5.954   8.355 -0.8221 -0.3615  0.0817
  160SAPE  C31717994   1.333   5.865   8.537  0.3341 -0.0875 -0.0126
  160SAPE  H17X17995   1.431   5.824   8.569  0.6434  1.0727  0.5858
  160SAPE  H17Y17996   1.252   5.798   8.572 -1.4162  1.4555 -0.9128
  160SAPE  C31817997   1.320   5.993   8.618  0.2688 -0.5905  0.0617
  160SAPE  H18X17998   1.303   5.963   8.723 -0.8046  1.1165  0.4096
  160SAPE  H18Y17999   1.232   6.056   8.595  0.4903  0.5900  2.1986
  160SAPE  H18Z18000   1.407   6.063   8.622 -0.1684 -0.0118 -0.3539
  161SAPE     N18001   4.924   2.172   6.720  0.1421  0.3826  0.5642
  161SAPE   HN118002   5.002   2.237   6.743  0.4350  0.0713  0.4678
  161SAPE   HN218003   4.876   2.219   6.640 -1.5971 -2.4636 -0.2344
  161SAPE   HN318004   4.868   2.160   6.807  0.2025 -0.7032  0.4741
  161SAPE   C1218005   4.994   2.044   6.698  0.1444 -0.1872 -0.6648
  161SAPE  H12A18006   5.026   2.009   6.799 -0.2059  1.6498  0.1169
  161SAPE  H12B18007   5.089   2.065   6.646  0.6640 -0.8408 -0.0058
  161SAPE   C1118008   4.920   1.941   6.606  0.7718  0.5083 -0.7397
  161SAPE  H11A18009   4.983   1.849   6.605 -2.0921 -1.7127  2.1275
  161SAPE  H11B18010   4.910   1.985   6.504 -2.0571  0.1779 -0.6782
  161SAPE     P18011   4.661   1.973   6.598  0.1516 -0.2420 -0.4846
  161SAPE   O1318012   4.674   2.020   6.459  0.7563  0.1078  0.4258
  161SAPE   O1418013   4.559   1.876   6.641 -0.4948  0.6074 -0.0325
  161SAPE   O1218014   4.797   1.911   6.656 -0.4112 -0.1452 -0.6504
  161SAPE   O1118015   4.649   2.100   6.689 -0.7321  0.6616  0.4429
  161SAPE    C118016   4.527   2.130   6.756  0.5161  0.2490 -0.9321
  161SAPE    HA18017   4.481   2.219   6.707 -0.9893  1.5173  2.4850
  161SAPE    HB18018   4.451   2.049   6.756 -2.5925  2.7516  3.9550
  161SAPE    C218019   4.534   2.167   6.914 -0.0595  0.4906 -0.2070
  161SAPE    HS18020   4.607   2.251   6.919 -0.4397  0.8488 -0.5387
  161SAPE   O2118021   4.571   2.054   6.992 -0.3848 -0.1546 -0.3275
  161SAPE   C2118022   4.701   2.025   6.999 -0.0344 -0.0860 -0.6218
  161SAPE   O2218023   4.788   2.086   6.946 -0.1058 -0.5932 -0.0337
  161SAPE   C2218024   4.708   1.905   7.102 -0.2480  0.0216  0.0490
  161SAPE   H2R18025   4.608   1.865   7.127  0.2186 -1.7377 -0.7426
  161SAPE   H2S18026   4.764   1.822   7.053  1.4693 -1.1863  3.7067
  161SAPE    C318027   4.397   2.221   6.971 -0.2585 -0.7662 -1.3269
  161SAPE    HX18028   4.314   2.154   6.940 -1.3418  0.1786 -0.5439
  161SAPE    HY18029   4.372   2.317   6.920 -0.3885 -1.2968 -2.2922
  161SAPE   O3118030   4.397   2.252   7.115 -0.7854 -0.2103  0.0286
  161SAPE   C3118031   4.352   2.158   7.195  0.5218  0.1109  0.2486
  161SAPE   O3218032   4.314   2.046   7.159  0.6023  0.5705 -0.3873
  161SAPE   C3218033   4.335   2.202   7.338  0.0368 -0.0068 -0.3820
  161SAPE   H2X18034   4.262   2.286   7.343  0.0696 -0.0385  1.0975
  161SAPE   H2Y18035   4.427   2.252   7.377 -1.6259  2.7066  0.3536
  161SAPE   C2318036   4.777   1.957   7.230  0.1840 -0.1573 -0.4701
  161SAPE   H3R18037   4.700   1.995   7.301 -1.1139 -0.6959 -1.5331
  161SAPE   H3S18038   4.861   2.029   7.222 -0.6249  1.0094  0.9558
  161SAPE   C2418039   4.838   1.827   7.293 -0.2092 -0.3440  0.2151
  161SAPE   H4R18040   4.767   1.745   7.268 -1.2719  1.0028 -1.3562
  161SAPE   H4S18041   4.834   1.828   7.404 -1.9206  0.0581  0.1820
  161SAPE   C2518042   4.970   1.784   7.232 -0.7433  0.6382 -0.2689
  161SAPE   H5R18043   4.961   1.744   7.130  0.8410 -2.3259  0.6541
  161SAPE   C2618044   5.093   1.772   7.293 -0.5465 -0.4793 -0.5928
  161SAPE   H6R18045   5.183   1.744   7.235  0.5297 -0.2878  0.9379
  161SAPE   C2718046   5.118   1.809   7.441  1.0213 -0.5724 -0.7150
  161SAPE   H7R18047   5.170   1.728   7.495  0.3986 -0.9594 -0.6878
  161SAPE   H7S18048   5.027   1.810   7.505  1.9078  2.7810  0.7386
  161SAPE   C2818049   5.186   1.946   7.457 -0.4665  0.0802 -0.2396
  161SAPE   H8R18050   5.141   2.028   7.399 -1.0537  0.0781  0.2034
  161SAPE   C2918051   5.280   1.986   7.546 -0.0152 -0.3149 -0.6518
  161SAPE   H9R18052   5.303   2.093   7.557  2.8442 -1.0049  1.1431
  161SAPE  C21018053   5.343   1.897   7.653 -0.0775 -0.1219 -0.1657
  161SAPE  H10R18054   5.268   1.845   7.716  0.9844 -1.6025 -0.0786
  161SAPE  H10S18055   5.406   1.958   7.722  0.5795  0.6415 -1.4009
  161SAPE  C21118056   5.446   1.802   7.589  0.1062 -0.6543 -0.5225
  161SAPE  H11R18057   5.498   1.840   7.500 -0.1328 -2.4059 -1.4610
  161SAPE  C21218058   5.471   1.679   7.636  0.0186  0.0315  0.0116
  161SAPE  H12R18059   5.543   1.608   7.592  0.1472  0.7106 -0.9113
  161SAPE  C21318060   5.401   1.621   7.762  0.4331  0.4119  0.3968
  161SAPE  H13R18061   5.422   1.514   7.784  0.9261  0.9374  2.8191
  161SAPE  H13S18062   5.291   1.619   7.747  0.1602  1.8753  1.9025
  161SAPE  C21418063   5.460   1.694   7.883  0.4686 -0.2647  0.5909
  161SAPE  H14R18064   5.555   1.747   7.864  1.0302 -0.9229  1.4875
  161SAPE  C21518065   5.396   1.701   8.000  0.4889 -0.5005  0.6133
  161SAPE  H15R18066   5.444   1.757   8.082  2.1246 -1.7637  0.5919
  161SAPE  C21618067   5.263   1.639   8.031 -0.4618 -0.4939  0.3912
  161SAPE  H16R18068   5.220   1.574   7.952 -1.4114 -2.0126  2.0903
  161SAPE  H16S18069   5.188   1.718   8.052 -1.3717  0.0041 -3.7745
  161SAPE  C21718070   5.272   1.554   8.164 -0.5526 -0.0237  0.4727
  161SAPE  H17R18071   5.323   1.618   8.240 -0.1188  0.0866  0.0866
  161SAPE  H17S18072   5.335   1.469   8.130  3.3372  3.0816 -0.8236
  161SAPE  C21818073   5.131   1.519   8.215  0.6931 -0.0269 -0.3866
  161SAPE  H18R18074   5.068   1.479   8.133  0.3676  0.8255 -0.5671
  161SAPE  H18S18075   5.090   1.614   8.254  1.3499 -0.3566  1.1575
  161SAPE  C21918076   5.134   1.419   8.331 -0.9687  0.0438  0.1238
  161SAPE  H19R18077   5.167   1.471   8.424 -1.3522 -0.4519  0.5453
  161SAPE  H19S18078   5.210   1.343   8.305 -0.3200  0.7528 -0.0671
  161SAPE  C22018079   4.998   1.352   8.356  0.1999 -0.3353  0.1159
  161SAPE  H20R18080   4.972   1.277   8.278 -0.6154 -0.0859  0.1364
  161SAPE  H20S18081   4.924   1.435   8.356 -1.7010 -1.8374  3.1449
  161SAPE  H20T18082   4.995   1.315   8.460  0.9750 -0.1426  0.2130
  161SAPE   C3318083   4.320   2.086   7.448  0.4512  0.0885  0.4717
  161SAPE   H3X18084   4.413   2.026   7.444  1.9061  2.2657 -0.4818
  161SAPE   H3Y18085   4.231   2.024   7.425  0.9104 -0.7314  0.8648
  161SAPE   C3418086   4.293   2.150   7.587  0.0725 -0.5372  0.6404
  161SAPE   H4X18087   4.198   2.207   7.582  0.4119 -0.0633 -2.4225
  161SAPE   H4Y18088   4.382   2.215   7.603 -0.2202 -0.2504  1.1115
  161SAPE   C3518089   4.279   2.050   7.710  0.4813  0.0220  0.0605
  161SAPE   H5X18090   4.370   1.987   7.710  0.8695  0.5513  1.6703
  161SAPE   H5Y18091   4.189   1.986   7.695 -0.1804  0.4130  2.0743
  161SAPE   C3618092   4.264   2.110   7.849 -0.0705  0.4009  0.2212
  161SAPE   H6X18093   4.170   2.169   7.849 -2.4119 -2.9358  2.6493
  161SAPE   H6Y18094   4.356   2.162   7.881  0.3243 -0.5378  0.6348
  161SAPE   C3718095   4.238   2.001   7.953 -0.1880  1.3732 -0.5856
  161SAPE   H7X18096   4.305   1.916   7.927  0.1519  1.6117 -0.4928
  161SAPE   H7Y18097   4.137   1.955   7.950  0.5021 -0.4524  1.7102
  161SAPE   C3818098   4.266   2.022   8.103  0.4773 -0.0299  0.7421
  161SAPE   H8X18099   4.199   2.098   8.147  0.6025 -0.4760  1.7319
  161SAPE   H8Y18100   4.367   2.063   8.122 -0.6520  2.1164  2.4368
  161SAPE   C3918101   4.247   1.902   8.196 -0.5392 -0.4131  0.3929
  161SAPE   H9X18102   4.336   1.834   8.194  0.8145  1.2955 -1.7345
  161SAPE   H9Y18103   4.165   1.844   8.149 -0.8423  0.2321  0.1180
  161SAPE  C31018104   4.212   1.950   8.336  1.0636  0.1178  1.0869
  161SAPE  H10X18105   4.144   2.037   8.331 -0.1309 -0.8533 -2.7534
  161SAPE  H10Y18106   4.308   1.992   8.372  1.3151  0.9997 -0.4914
  161SAPE  C31118107   4.171   1.845   8.442  0.4724 -0.0449 -0.3536
  161SAPE  H11X18108   4.100   1.772   8.397  0.3526  0.7593 -1.4841
  161SAPE  H11Y18109   4.116   1.897   8.523 -0.5222 -2.0649  0.3554
  161SAPE  C31218110   4.287   1.771   8.504  0.1267  0.3708 -0.6366
  161SAPE  H12X18111   4.369   1.841   8.533 -0.4413 -0.1988  2.7522
  161SAPE  H12Y18112   4.310   1.708   8.416  0.3694  1.1719 -1.1617
  161SAPE  C31318113   4.248   1.677   8.621 -0.6667 -0.6548  0.1687
  161SAPE  H13X18114   4.180   1.604   8.570 -1.1274  0.9754 -1.6783
  161SAPE  H13Y18115   4.178   1.727   8.692 -2.5835  1.4343 -2.9325
  161SAPE  C31418116   4.370   1.609   8.696 -0.4761 -0.8893 -0.8904
  161SAPE  H14X18117   4.424   1.691   8.749  2.8769 -2.2175 -2.0062
  161SAPE  H14Y18118   4.444   1.580   8.618  0.0165  2.8296 -2.0179
  161SAPE  C31518119   4.322   1.503   8.795  0.0129  0.3255  0.5719
  161SAPE  H15X18120   4.417   1.464   8.838  1.2908  3.1990  0.6171
  161SAPE  H15Y18121   4.270   1.419   8.745  1.3602  0.6370 -1.4780
  161SAPE  C31618122   4.247   1.564   8.917  0.1560 -0.7697  0.2496
  161SAPE  H16X18123   4.242   1.487   8.997 -2.2777 -1.3393 -0.3774
  161SAPE  H16Y18124   4.140   1.575   8.891  0.2635 -3.3689 -1.6702
  161SAPE  C31718125   4.310   1.680   9.006 -0.4976  0.1547  1.3218
  161SAPE  H17X18126   4.305   1.766   8.935  4.4037  1.2490  1.9942
  161SAPE  H17Y18127   4.413   1.663   9.043 -0.5677 -0.7922  1.0987
  161SAPE  C31818128   4.215   1.718   9.124  0.2995  0.0675  0.7473
  161SAPE  H18X18129   4.266   1.802   9.175 -1.9782  2.4286 -0.6477
  161SAPE  H18Y18130   4.200   1.634   9.195 -0.5501  0.1325  0.6473
  161SAPE  H18Z18131   4.117   1.759   9.095  0.3561  0.0250  0.4955
  162SAPE     N18132   2.551   0.718   6.243 -0.4729 -0.2596 -0.1856
  162SAPE   HN118133   2.451   0.703   6.222 -0.8346 -0.0389  1.2748
  162SAPE   HN218134   2.562   0.821   6.249 -1.3604  0.0304 -2.6722
  162SAPE   HN318135   2.608   0.676   6.167 -0.6984  0.3518 -0.7031
  162SAPE   C1218136   2.592   0.653   6.371 -0.6048  0.6425  0.7635
  162SAPE  H12A18137   2.541   0.708   6.453 -2.3401  1.2822 -0.6804
  162SAPE  H12B18138   2.702   0.670   6.376 -0.0743 -1.4200 -1.7752
  162SAPE   C1118139   2.570   0.498   6.352 -0.0199 -0.0388 -0.2720
  162SAPE  H11A18140   2.463   0.481   6.329  0.0683 -0.3032 -0.4860
  162SAPE  H11B18141   2.592   0.441   6.444 -0.9465  0.8404  0.5283
  162SAPE     P18142   2.782   0.377   6.239 -0.4696  0.4036  0.0744
  162SAPE   O1318143   2.776   0.238   6.186 -0.2125  0.5724 -0.5800
  162SAPE   O1418144   2.872   0.470   6.161 -0.0627 -0.3514  0.6793
  162SAPE   O1218145   2.638   0.440   6.239  0.5394  0.1071  0.1175
  162SAPE   O1118146   2.809   0.371   6.395  0.4762  0.1668 -0.7236
  162SAPE    C118147   2.826   0.250   6.473  0.5650 -0.8473  0.1946
  162SAPE    HA18148   2.906   0.182   6.438  1.5926  0.0207  0.8014
  162SAPE    HB18149   2.869   0.276   6.572 -0.6554 -0.7998  0.7420
  162SAPE    C218150   2.691   0.168   6.496 -0.3023 -0.5221 -0.6035
  162SAPE    HS18151   2.644   0.171   6.396  0.1197  1.7190 -0.8034
  162SAPE   O2118152   2.618   0.232   6.600 -0.1522  0.3219 -0.1107
  162SAPE   C2118153   2.489   0.225   6.592  0.3116  0.1701 -0.6270
  162SAPE   O2218154   2.419   0.178   6.507  0.6497  0.1641 -0.0996
  162SAPE   C2218155   2.434   0.304   6.706  0.5149  0.4825  0.2905
  162SAPE   H2R18156   2.485   0.401   6.716  2.2602 -0.5243  1.7658
  162SAPE   H2S18157   2.325   0.318   6.688  0.6430  2.6305  0.9934
  162SAPE    C318158   2.713   0.027   6.546  0.4461  0.1128  0.6544
  162SAPE    HX18159   2.763  -0.025   6.462  1.9908 -1.2160  2.3013
  162SAPE    HY18160   2.611  -0.012   6.567 -0.5689  2.7896  1.1188
  162SAPE   O3118161   2.804   0.017   6.659 -0.2873 -0.5365 -0.1685
  162SAPE   C3118162   2.771  -0.070   6.752  0.1103  0.4295 -0.7635
  162SAPE   O3218163   2.687  -0.160   6.745  0.6868  0.0686 -0.2183
  162SAPE   C3218164   2.869  -0.047   6.867  0.3259  0.1628  0.2470
  162SAPE   H2X18165   2.948   0.027   6.843 -0.6924  1.2410  0.1615
  162SAPE   H2Y18166   2.918  -0.144   6.893 -3.3662 -1.5533  1.4850
  162SAPE   C2318167   2.457   0.203   6.820  0.2323 -0.2042  0.2349
  162SAPE   H3R18168   2.560   0.203   6.862 -0.2454 -1.5046  1.4718
  162SAPE   H3S18169   2.417   0.103   6.796  1.5711 -0.9629  1.0463
  162SAPE   C2418170   2.380   0.251   6.946  0.3974 -0.5971  0.2236
  162SAPE   H4R18171   2.276   0.277   6.918  0.6588 -0.3174 -0.4992
  162SAPE   H4S18172   2.431   0.345   6.976 -0.5440 -0.1355  0.4017
  162SAPE   C2518173   2.397   0.152   7.061 -1.4785 -0.4608  0.2003
  162SAPE   H5R18174   2.345   0.056   7.045  1.2719 -2.3782  2.0717
  162SAPE   C2618175   2.467   0.165   7.175 -0.2988  0.4187 -0.1205
  162SAPE   H6R18176   2.483   0.075   7.235  2.3413  1.1116  0.3681
  162SAPE   C2718177   2.543   0.280   7.222 -0.1806  0.4163  0.3590
  162SAPE   H7R18178   2.569   0.353   7.142  0.7373  1.1287  1.2830
  162SAPE   H7S18179   2.640   0.244   7.262  1.1648  2.1963 -1.1683
  162SAPE   C2818180   2.457   0.338   7.329 -0.7258 -0.4067  0.4102
  162SAPE   H8R18181   2.363   0.383   7.293  0.9669  3.0700 -0.1405
  162SAPE   C2918182   2.483   0.358   7.459 -0.0968  0.1087  0.7975
  162SAPE   H9R18183   2.404   0.402   7.521  0.8430  1.0081  1.3937
  162SAPE  C21018184   2.608   0.315   7.527 -0.3228 -0.4858  0.1536
  162SAPE  H10R18185   2.695   0.311   7.458 -0.5884 -0.1958 -0.2014
  162SAPE  H10S18186   2.592   0.216   7.574  0.5467  1.2202  4.5782
  162SAPE  C21118187   2.639   0.407   7.640 -0.7081  0.0807 -1.0874
  162SAPE  H11R18188   2.705   0.492   7.617  1.2389 -0.6861  1.1497
  162SAPE  C21218189   2.598   0.394   7.762 -0.1484 -0.0868 -0.3044
  162SAPE  H12R18190   2.620   0.468   7.841 -5.7483  0.0387  1.5314
  162SAPE  C21318191   2.523   0.291   7.836  0.9571  0.2059  0.4423
  162SAPE  H13R18192   2.475   0.220   7.764  0.9315  0.1962  0.4687
  162SAPE  H13S18193   2.436   0.326   7.895  0.7832  0.5283  0.0037
  162SAPE  C21418194   2.625   0.223   7.914 -0.6655 -0.2104 -0.9146
  162SAPE  H14R18195   2.716   0.192   7.860  0.4819  0.2612  0.6897
  162SAPE  C21518196   2.607   0.194   8.045  0.3155 -0.2057 -0.2914
  162SAPE  H15R18197   2.694   0.173   8.109 -0.5943  0.7312  1.3353
  162SAPE  C21618198   2.485   0.217   8.130 -0.1257 -1.0683 -0.5021
  162SAPE  H16R18199   2.401   0.151   8.102 -0.9840 -1.2094  2.1203
  162SAPE  H16S18200   2.464   0.326   8.133 -0.1131 -0.9730 -2.4661
  162SAPE  C21718201   2.511   0.184   8.283  0.8298  0.1458 -0.3539
  162SAPE  H17R18202   2.570   0.274   8.313 -0.6086  0.8912  0.3706
  162SAPE  H17S18203   2.563   0.089   8.307 -0.9955 -0.7224  0.3760
  162SAPE  C21818204   2.384   0.201   8.368 -0.2070 -0.0267  0.3699
  162SAPE  H18R18205   2.296   0.159   8.315  0.4207 -1.1959  0.2224
  162SAPE  H18S18206   2.371   0.312   8.375  2.6299  0.5971 -2.2854
  162SAPE  C21918207   2.400   0.138   8.508  0.4381  0.4084  0.1576
  162SAPE  H19R18208   2.497   0.174   8.548  1.3639 -1.5704 -0.2064
  162SAPE  H19S18209   2.422   0.030   8.501 -1.2831 -0.1010  1.6814
  162SAPE  C22018210   2.285   0.156   8.613  0.2530 -0.5284  0.2659
  162SAPE  H20R18211   2.191   0.106   8.583  0.8078 -1.4029 -0.0454
  162SAPE  H20S18212   2.275   0.266   8.628 -0.2554 -0.6658  1.0132
  162SAPE  H20T18213   2.317   0.103   8.706  0.6935 -0.0707  0.3791
  162SAPE   C3318214   2.800  -0.016   7.001 -0.6996  0.4615 -0.0907
  162SAPE   H3X18215   2.707  -0.078   7.009 -0.2059 -0.1737  1.1148
  162SAPE   H3Y18216   2.772   0.091   6.996  0.6577  0.8297 -0.1062
  162SAPE   C3418217   2.883  -0.034   7.126 -0.6468  0.0760 -0.5543
  162SAPE   H4X18218   2.973   0.031   7.120  0.0302 -0.8197 -0.2952
  162SAPE   H4Y18219   2.921  -0.137   7.111 -0.0953  0.5336 -2.7302
  162SAPE   C3518220   2.816  -0.016   7.261  0.1471  0.0903  0.5463
  162SAPE   H5X18221   2.729  -0.084   7.275 -1.4023  1.5622 -1.3856
  162SAPE   H5Y18222   2.786   0.091   7.264  2.8668  0.9256  0.1839
  162SAPE   C3618223   2.911  -0.033   7.380  0.1985  0.9013 -0.4881
  162SAPE   H6X18224   2.987   0.049   7.380  0.3888  0.7284 -0.8010
  162SAPE   H6Y18225   2.970  -0.123   7.352  0.7418  1.4029 -0.9936
  162SAPE   C3718226   2.841  -0.043   7.508  1.0637 -0.1816  0.3350
  162SAPE   H7X18227   2.759  -0.116   7.496  2.4035 -1.6764 -0.0099
  162SAPE   H7Y18228   2.792   0.053   7.535  0.0260 -0.0556 -1.7608
  162SAPE   C3818229   2.923  -0.093   7.627 -0.6906  0.6233 -0.2122
  162SAPE   H8X18230   2.966  -0.191   7.596 -2.7491 -0.6105  0.6394
  162SAPE   H8Y18231   2.836  -0.112   7.693 -1.7256 -1.8081 -2.1277
  162SAPE   C3918232   3.011   0.014   7.687  0.1909  0.2694 -0.4736
  162SAPE   H9X18233   2.960   0.112   7.674  2.7547  1.4066 -2.8683
  162SAPE   H9Y18234   3.112   0.008   7.643  0.5363  0.3355  0.2881
  162SAPE  C31018235   3.028   0.003   7.842  0.0917  0.2758  1.0306
  162SAPE  H10X18236   2.930  -0.014   7.891  0.4920  1.4843  2.3446
  162SAPE  H10Y18237   3.073   0.097   7.881  2.9638 -0.3779 -0.4169
  162SAPE  C31118238   3.112  -0.119   7.897 -0.8443  0.1808  0.1603
  162SAPE  H11X18239   3.219  -0.106   7.871 -1.0304 -1.1972 -1.4621
  162SAPE  H11Y18240   3.095  -0.219   7.852  2.4087 -1.3770  2.0947
  162SAPE  C31218241   3.087  -0.149   8.042 -0.3001 -0.4245  0.2198
  162SAPE  H12X18242   3.135  -0.243   8.077  1.7134  0.6318  0.4769
  162SAPE  H12Y18243   2.979  -0.158   8.065  0.0304 -2.1667  1.2751
  162SAPE  C31318244   3.140  -0.032   8.133  0.2522 -0.2419 -0.4055
  162SAPE  H13X18245   3.114   0.067   8.089  1.9970  0.7232  0.5808
  162SAPE  H13Y18246   3.251  -0.030   8.133  0.2764 -0.5846  0.7563
  162SAPE  C31418247   3.090  -0.050   8.271 -0.1775 -0.5933 -0.2535
  162SAPE  H14X18248   3.142  -0.139   8.313  1.7847  0.7123  0.2296
  162SAPE  H14Y18249   2.980  -0.068   8.268 -0.4322  0.8560 -0.2015
  162SAPE  C31518250   3.117   0.065   8.361  0.3180 -0.9384 -0.0928
  162SAPE  H15X18251   3.092   0.153   8.298 -1.9606 -1.2734  0.2629
  162SAPE  H15Y18252   3.223   0.080   8.393 -0.6782  0.2368  3.0785
  162SAPE  C31618253   3.041   0.063   8.492  0.4581  0.1104  0.0122
  162SAPE  H16X18254   2.933   0.041   8.476  0.3029  1.1895 -0.5481
  162SAPE  H16Y18255   3.039   0.162   8.543 -2.6872 -0.0243  0.3599
  162SAPE  C31718256   3.106  -0.041   8.587  0.0830  0.0395  0.3591
  162SAPE  H17X18257   3.215  -0.023   8.601  0.4903 -1.1673 -1.0433
  162SAPE  H17Y18258   3.092  -0.139   8.537 -1.7615  0.1796  0.5163
  162SAPE  C31818259   3.030  -0.042   8.716 -0.1189 -0.1138  0.4528
  162SAPE  H18X18260   3.037   0.049   8.779 -2.6362  0.0578  0.6133
  162SAPE  H18Y18261   3.051  -0.129   8.783  1.6512  0.3260  0.5134
  162SAPE  H18Z18262   2.923  -0.036   8.685  0.6117  0.2943 -2.2492
  163SAPE     N18263   3.262   3.938   6.595 -0.2166 -0.0871 -0.3916
  163SAPE   HN118264   3.189   3.984   6.538  0.0569 -0.2681 -0.8908
  163SAPE   HN218265   3.337   4.008   6.614  0.7331 -1.2004  0.0525
  163SAPE   HN318266   3.302   3.858   6.542 -0.1941 -1.2298  1.2646
  163SAPE   C1218267   3.201   3.903   6.725  0.3614  0.7427 -0.4727
  163SAPE  H12A18268   3.106   3.846   6.717  0.6246  0.1269  0.5400
  163SAPE  H12B18269   3.187   3.999   6.779 -0.8114  0.5212 -0.3682
  163SAPE   C1118270   3.299   3.811   6.795 -0.1485 -0.4449 -0.6594
  163SAPE  H11A18271   3.255   3.780   6.892 -0.2249 -0.2086 -0.6165
  163SAPE  H11B18272   3.378   3.880   6.833 -3.7091  1.8522  3.5352
  163SAPE     P18273   3.250   3.575   6.688 -0.1265  0.8530 -0.2207
  163SAPE   O1318274   3.170   3.618   6.567 -0.1733  0.3220  0.1439
  163SAPE   O1418275   3.339   3.460   6.665  0.0919  0.3118  0.1238
  163SAPE   O1218276   3.346   3.701   6.720  0.3657 -0.0110 -0.3292
  163SAPE   O1118277   3.155   3.544   6.808  0.1339 -0.3519 -0.2275
  163SAPE    C118278   3.163   3.412   6.874 -0.0525 -0.0697  0.3217
  163SAPE    HA18279   3.101   3.343   6.813  0.8119 -0.2476 -0.3647
  163SAPE    HB18280   3.263   3.365   6.880  0.6013  1.3404  0.8996
  163SAPE    C218281   3.096   3.418   7.013  0.1870  0.1243 -0.3105
  163SAPE    HS18282   2.995   3.461   6.995 -0.6676 -2.1588 -1.3098
  163SAPE   O2118283   3.186   3.499   7.081  0.9737 -0.5481  0.2475
  163SAPE   C2118284   3.129   3.595   7.159  0.6336 -0.0703  0.0580
  163SAPE   O2218285   3.011   3.602   7.186 -0.0020  0.1572 -0.6687
  163SAPE   C2218286   3.238   3.678   7.214 -0.1986  0.4518  0.0378
  163SAPE   H2R18287   3.299   3.613   7.279 -0.6426 -0.7978 -0.7651
  163SAPE   H2S18288   3.298   3.711   7.126  0.2032 -0.7719 -0.1606
  163SAPE    C318289   3.080   3.284   7.095 -0.0684 -0.1939  0.3861
  163SAPE    HX18290   3.159   3.210   7.070  0.3322  0.4659 -0.3576
  163SAPE    HY18291   2.985   3.234   7.065  0.1071 -0.6646  0.6172
  163SAPE   O3118292   3.069   3.304   7.238  0.5286 -0.3667  0.0224
  163SAPE   C3118293   3.183   3.303   7.312 -0.2893 -0.2320 -0.3785
  163SAPE   O3218294   3.293   3.273   7.268  0.2367  0.0923  0.2794
  163SAPE   C3218295   3.149   3.348   7.456  0.2903 -0.5563  0.3859
  163SAPE   H2X18296   3.093   3.266   7.507  1.1243  0.1287  2.5011
  163SAPE   H2Y18297   3.089   3.441   7.446  1.1840 -0.0002  0.1123
  163SAPE   C2318298   3.176   3.794   7.293 -0.0306  0.1032  0.2927
  163SAPE   H3R18299   3.083   3.760   7.342 -0.1626  0.3486  0.2143
  163SAPE   H3S18300   3.141   3.861   7.212  1.1022 -0.5386 -0.7759
  163SAPE   C2418301   3.252   3.882   7.395 -0.2058  0.6560  0.2800
  163SAPE   H4R18302   3.176   3.959   7.423  0.0230  1.1114 -0.3273
  163SAPE   H4S18303   3.335   3.937   7.346 -2.0668  1.3363 -2.3767
  163SAPE   C2518304   3.304   3.816   7.523 -0.8842  0.0374 -0.0435
  163SAPE   H5R18305   3.403   3.772   7.510 -0.5115  0.6636  0.6093
  163SAPE   C2618306   3.254   3.827   7.648 -0.1133 -0.6261  0.3509
  163SAPE   H6R18307   3.307   3.786   7.736 -0.5184  0.9619  1.3854
  163SAPE   C2718308   3.115   3.886   7.674  0.2149 -0.5679  0.4797
  163SAPE   H7R18309   3.046   3.892   7.588 -1.8043  1.0113  2.0862
  163SAPE   H7S18310   3.127   3.994   7.697 -0.4458 -0.3436 -0.2175
  163SAPE   C2818311   3.045   3.822   7.785  0.4215 -0.0716  0.4913
  163SAPE   H8R18312   2.965   3.754   7.754  0.9535 -0.9601  1.0407
  163SAPE   C2918313   3.081   3.814   7.912 -0.2230  0.1712  0.1327
  163SAPE   H9R18314   3.009   3.771   7.983 -0.5413 -0.6103 -0.6389
  163SAPE  C21018315   3.202   3.861   7.972 -0.0906 -0.0245  0.1690
  163SAPE  H10R18316   3.244   3.939   7.906 -0.5140  0.5540  0.5779
  163SAPE  H10S18317   3.265   3.769   7.976  1.1034  0.7092 -0.9416
  163SAPE  C21118318   3.188   3.925   8.114 -0.1357  0.1962  0.2741
  163SAPE  H11R18319   3.091   3.926   8.165  0.6049  1.5349  1.7543
  163SAPE  C21218320   3.290   3.963   8.195 -0.7352  0.0013 -0.0418
  163SAPE  H12R18321   3.262   4.024   8.282 -0.4235 -1.0190  0.7908
  163SAPE  C21318322   3.437   3.969   8.152 -0.2431  0.1383 -0.1482
  163SAPE  H13R18323   3.457   3.925   8.052 -0.2127 -0.3287  0.0622
  163SAPE  H13S18324   3.500   3.899   8.211  1.9338  1.7609 -0.4269
  163SAPE  C21418325   3.497   4.108   8.144 -0.1163  0.0280 -0.1122
  163SAPE  H14R18326   3.491   4.160   8.048  1.3038  3.2581  1.3919
  163SAPE  C21518327   3.551   4.173   8.249  0.3597  0.3995 -0.1305
  163SAPE  H15R18328   3.586   4.273   8.222  0.0890  0.3119 -0.8303
  163SAPE  C21618329   3.569   4.132   8.392 -0.1392  0.4704  0.3137
  163SAPE  H16R18330   3.546   4.024   8.397  0.3967  0.2230 -1.5193
  163SAPE  H16S18331   3.509   4.202   8.454 -2.0383  0.0679 -1.0036
  163SAPE  C21718332   3.711   4.163   8.436  0.6930 -0.0450 -0.5082
  163SAPE  H17R18333   3.705   4.149   8.546  1.2050  0.9220 -0.3451
  163SAPE  H17S18334   3.720   4.274   8.427 -0.3499 -0.0469 -2.0127
  163SAPE  C21818335   3.815   4.087   8.367 -0.7340 -0.4432  0.6686
  163SAPE  H18R18336   3.829   4.135   8.268  0.8241  1.0316  1.5431
  163SAPE  H18S18337   3.779   3.982   8.362 -0.7401 -0.6270  3.1772
  163SAPE  C21918338   3.948   4.092   8.442 -0.6577  0.0591 -0.1826
  163SAPE  H19R18339   3.930   4.056   8.546 -0.1286  1.6764  0.5096
  163SAPE  H19S18340   3.978   4.199   8.440 -0.4923  0.0313  0.5314
  163SAPE  C22018341   4.055   4.008   8.374  0.1103  0.3207 -0.3026
  163SAPE  H20R18342   4.162   4.015   8.401  0.4614 -0.5028 -1.4088
  163SAPE  H20S18343   4.049   4.025   8.265 -1.4428 -1.4286 -0.5530
  163SAPE  H20T18344   4.023   3.904   8.397  0.9163  0.2110  0.3716
  163SAPE   C3318345   3.285   3.377   7.533  0.2782 -0.3471 -0.4150
  163SAPE   H3X18346   3.344   3.456   7.482  0.2691  0.2523  0.4831
  163SAPE   H3Y18347   3.351   3.287   7.536 -0.5873 -0.9727  0.4888
  163SAPE   C3418348   3.256   3.422   7.673  0.3587  0.3700  0.2203
  163SAPE   H4X18349   3.182   3.347   7.709  0.5741 -0.7393 -1.4949
  163SAPE   H4Y18350   3.211   3.522   7.654 -0.1016 -0.3236 -2.9498
  163SAPE   C3518351   3.377   3.411   7.762  0.0573 -0.0901 -0.5379
  163SAPE   H5X18352   3.466   3.476   7.743  0.9832  0.0061  3.2850
  163SAPE   H5Y18353   3.400   3.303   7.757 -1.4397 -0.4628  0.0398
  163SAPE   C3618354   3.341   3.452   7.903 -0.0155  0.4002  0.1634
  163SAPE   H6X18355   3.292   3.362   7.945  1.7762 -1.1831 -0.9951
  163SAPE   H6Y18356   3.270   3.537   7.904 -1.2551 -0.6056  1.8558
  163SAPE   C3718357   3.457   3.507   7.982 -1.2742 -0.1947 -0.1532
  163SAPE   H7X18358   3.495   3.605   7.946 -0.7810 -0.2837  0.1125
  163SAPE   H7Y18359   3.540   3.433   7.984  0.7058  1.9242  1.8022
  163SAPE   C3818360   3.416   3.549   8.122 -0.0859  0.3379  0.7244
  163SAPE   H8X18361   3.355   3.468   8.167 -0.3138 -0.5448 -1.0944
  163SAPE   H8Y18362   3.352   3.640   8.114 -0.7563 -0.3140 -2.5077
  163SAPE   C3918363   3.541   3.577   8.216  0.4471  0.4234 -0.3253
  163SAPE   H9X18364   3.614   3.649   8.171  0.5476 -0.7267 -2.1174
  163SAPE   H9Y18365   3.600   3.483   8.223 -0.4445 -0.0569  0.9657
  163SAPE  C31018366   3.491   3.607   8.359 -0.3771  0.2114 -0.2780
  163SAPE  H10X18367   3.458   3.512   8.406 -1.7844  0.3090 -1.0329
  163SAPE  H10Y18368   3.399   3.667   8.346  0.0542  1.0087  0.1995
  163SAPE  C31118369   3.598   3.660   8.457 -0.0895  0.3057  0.5985
  163SAPE  H11X18370   3.635   3.754   8.411  1.4582 -0.6324 -0.1956
  163SAPE  H11Y18371   3.685   3.590   8.460 -0.1016  0.2358  4.5767
  163SAPE  C31218372   3.540   3.679   8.595  0.3682 -0.3397  0.3808
  163SAPE  H12X18373   3.625   3.682   8.666 -1.2997 -1.2283  2.5047
  163SAPE  H12Y18374   3.477   3.593   8.627 -2.0976  0.3425 -2.1634
  163SAPE  C31318375   3.457   3.810   8.593 -0.1409 -0.0239 -0.1875
  163SAPE  H13X18376   3.382   3.800   8.512 -0.4264 -1.2580  0.2073
  163SAPE  H13Y18377   3.520   3.897   8.566  0.8442 -0.9872 -1.0847
  163SAPE  C31418378   3.395   3.833   8.731 -0.3914  0.0235 -0.7877
  163SAPE  H14X18379   3.462   3.808   8.816 -1.9297  0.0932  0.4960
  163SAPE  H14Y18380   3.317   3.755   8.748  1.1223 -1.1543  1.2240
  163SAPE  C31518381   3.321   3.966   8.755 -0.2072 -0.0491 -0.5681
  163SAPE  H15X18382   3.409   4.032   8.761  0.6756 -1.3029  1.2342
  163SAPE  H15Y18383   3.274   3.981   8.855 -1.2764 -0.5607 -0.9760
  163SAPE  C31618384   3.227   4.009   8.642 -0.4986  0.3251  0.3952
  163SAPE  H16X18385   3.129   3.958   8.639  1.2952 -3.4543  0.7715
  163SAPE  H16Y18386   3.270   3.995   8.541 -2.4749  0.0415 -0.4381
  163SAPE  C31718387   3.197   4.156   8.657  0.4750 -0.3598 -0.0381
  163SAPE  H17X18388   3.282   4.215   8.697 -0.7956  2.1561 -0.8580
  163SAPE  H17Y18389   3.119   4.178   8.733 -0.1792  1.7090 -1.2228
  163SAPE  C31818390   3.154   4.214   8.523 -0.2203 -0.1884 -1.1756
  163SAPE  H18X18391   3.226   4.208   8.439  0.2429 -0.1119 -0.7814
  163SAPE  H18Y18392   3.113   4.318   8.523 -2.0089 -0.8414  0.0142
  163SAPE  H18Z18393   3.069   4.148   8.495 -0.6567 -1.6512  2.9245
  164SAPE     N18394   2.983   6.350   6.056 -0.9301  0.0948  0.4899
  164SAPE   HN118395   2.919   6.430   6.041 -1.6246 -0.5158  0.1455
  164SAPE   HN218396   3.078   6.392   6.047 -0.7838  0.0423  1.6027
  164SAPE   HN318397   2.960   6.287   5.976  1.8411  1.5003 -1.5657
  164SAPE   C1218398   2.957   6.294   6.195  0.0691  0.3492 -0.0108
  164SAPE  H12A18399   2.848   6.278   6.213 -0.0512  1.9569  0.8715
  164SAPE  H12B18400   2.996   6.376   6.260  0.8417  0.8075 -1.0163
  164SAPE   C1118401   3.026   6.159   6.231  0.0172  0.4457  0.4221
  164SAPE  H11A18402   3.024   6.137   6.340  0.3946  1.3751  0.6273
  164SAPE  H11B18403   3.134   6.184   6.219 -0.0311  1.0170  1.0953
  164SAPE     P18404   3.081   5.928   6.121 -0.2181  0.1880  0.2236
  164SAPE   O1318405   3.004   5.802   6.144  0.1104  0.0833  0.1966
  164SAPE   O1418406   3.130   5.951   5.980 -0.4016  0.0853  0.3353
  164SAPE   O1218407   2.983   6.044   6.152 -0.1509  0.4398 -0.3639
  164SAPE   O1118408   3.207   5.941   6.209  0.1756 -0.5690  0.1835
  164SAPE    C118409   3.236   5.855   6.316  0.3450  0.4180  0.0554
  164SAPE    HA18410   3.149   5.794   6.351  0.3903 -0.2695 -0.9912
  164SAPE    HB18411   3.302   5.771   6.284 -1.0009 -0.1681 -1.3041
  164SAPE    C218412   3.312   5.922   6.436 -0.3397  0.2712 -0.0162
  164SAPE    HS18413   3.329   5.836   6.503 -3.4248  0.9500  1.8612
  164SAPE   O2118414   3.231   6.023   6.489  0.1867 -0.3808  0.7360
  164SAPE   C2118415   3.141   5.987   6.582  0.1221  0.0370 -0.3017
  164SAPE   O2218416   3.126   5.877   6.627  0.2396  0.1802  0.1278
  164SAPE   C2218417   3.091   6.119   6.647 -0.4622 -0.2446  0.5846
  164SAPE   H2R18418   3.061   6.182   6.560 -0.2510 -0.3606  0.4267
  164SAPE   H2S18419   3.011   6.089   6.717 -0.3311  0.8137  1.2217
  164SAPE    C318420   3.442   5.987   6.398 -0.1661  0.1498  0.7354
  164SAPE    HX18421   3.419   6.063   6.320 -0.1688  2.0517  2.4954
  164SAPE    HY18422   3.503   5.907   6.351  0.4311 -0.1969  2.0577
  164SAPE   O3118423   3.511   6.042   6.512 -0.7487 -0.7528 -0.3480
  164SAPE   C3118424   3.515   6.173   6.508 -0.5855 -0.0867  0.0765
  164SAPE   O3218425   3.461   6.247   6.430  0.2394 -0.4675  0.6160
  164SAPE   C3218426   3.607   6.219   6.624  0.0368  0.2162 -0.4316
  164SAPE   H2X18427   3.704   6.169   6.607  0.3458  0.3340  0.8264
  164SAPE   H2Y18428   3.563   6.186   6.721  5.2125 -0.4493  2.0388
  164SAPE   C2318429   3.195   6.193   6.729  0.1727  1.3377  0.4702
  164SAPE   H3R18430   3.278   6.216   6.658 -0.2643 -1.8738 -1.2994
  164SAPE   H3S18431   3.235   6.120   6.803  0.9611 -1.6372 -2.5859
  164SAPE   C2418432   3.136   6.316   6.799  0.3567 -0.3513  0.2719
  164SAPE   H4R18433   3.050   6.279   6.859  0.1182  1.4071  1.0915
  164SAPE   H4S18434   3.100   6.381   6.717 -0.6928 -0.3084  0.7412
  164SAPE   C2518435   3.237   6.402   6.877 -0.3938 -0.0221 -0.0008
  164SAPE   H5R18436   3.285   6.479   6.814  0.0359 -0.3645 -0.1011
  164SAPE   C2618437   3.267   6.410   7.010 -0.4797 -0.4193 -0.7164
  164SAPE   H6R18438   3.345   6.478   7.049  0.4337 -1.0548 -1.4003
  164SAPE   C2718439   3.207   6.327   7.119  0.8502 -0.3438  0.2973
  164SAPE   H7R18440   3.287   6.274   7.174  1.7487 -0.1901 -0.8452
  164SAPE   H7S18441   3.141   6.248   7.077  1.2574 -0.9858  0.8429
  164SAPE   C2818442   3.122   6.397   7.227 -0.1455 -0.6097  0.4365
  164SAPE   H8R18443   3.035   6.449   7.184  0.5276 -1.1215 -1.6785
  164SAPE   C2918444   3.142   6.403   7.358 -1.0717 -0.7764  0.3917
  164SAPE   H9R18445   3.076   6.474   7.411  1.4592  3.7434 -1.9184
  164SAPE  C21018446   3.248   6.340   7.440  0.3022  0.6478 -0.7302
  164SAPE  H10R18447   3.346   6.371   7.399  0.7441  2.3473  1.3912
  164SAPE  H10S18448   3.236   6.236   7.405  1.1139  0.1458  0.3992
  164SAPE  C21118449   3.260   6.352   7.594  0.2104 -0.1139  0.5984
  164SAPE  H11R18450   3.159   6.344   7.636 -1.3684 -0.2071 -2.8254
  164SAPE  C21218451   3.363   6.373   7.674  0.3669 -0.4210 -0.0144
  164SAPE  H12R18452   3.330   6.379   7.779 -2.7935 -2.8638 -0.6968
  164SAPE  C21318453   3.508   6.391   7.636 -0.0157  0.5739 -0.2727
  164SAPE  H13R18454   3.540   6.497   7.645  2.6295 -0.2452  0.9187
  164SAPE  H13S18455   3.500   6.361   7.529  0.0981  2.7930 -0.9585
  164SAPE  C21418456   3.607   6.292   7.686 -0.0095 -0.6320 -0.0016
  164SAPE  H14R18457   3.619   6.207   7.616 -0.3114 -0.9176  0.2891
  164SAPE  C21518458   3.682   6.296   7.799 -1.0310 -0.1032 -0.2739
  164SAPE  H15R18459   3.756   6.216   7.818  0.9547  1.3582 -1.4465
  164SAPE  C21618460   3.674   6.416   7.899  0.5000 -0.0539 -0.3810
  164SAPE  H16R18461   3.566   6.436   7.914  0.8006  1.2499  0.2129
  164SAPE  H16S18462   3.716   6.512   7.861 -0.6996  0.4288 -0.5402
  164SAPE  C21718463   3.728   6.382   8.044 -0.0179 -0.2197 -0.4097
  164SAPE  H17R18464   3.767   6.479   8.081  1.4072 -0.7937 -0.3257
  164SAPE  H17S18465   3.806   6.304   8.031 -0.2888 -0.4804 -0.4800
  164SAPE  C21818466   3.616   6.351   8.141 -0.2484 -0.1241 -0.3712
  164SAPE  H18R18467   3.651   6.319   8.241  3.1558  2.3372 -0.5889
  164SAPE  H18S18468   3.545   6.281   8.092  1.1994  0.3912 -3.5150
  164SAPE  C21918469   3.528   6.475   8.170  0.3050 -0.5745 -0.2285
  164SAPE  H19R18470   3.493   6.535   8.083 -1.8648 -0.8835  0.3806
  164SAPE  H19S18471   3.598   6.534   8.233 -0.7874 -0.7956  1.2511
  164SAPE  C22018472   3.401   6.444   8.250 -0.4075 -0.6586  0.4272
  164SAPE  H20R18473   3.415   6.365   8.326 -3.6578 -1.3297  0.4525
  164SAPE  H20S18474   3.329   6.408   8.174  1.8381  0.7590 -2.6244
  164SAPE  H20T18475   3.368   6.538   8.299 -1.2579 -1.4584  1.4145
  164SAPE   C3318476   3.616   6.372   6.630  0.0407 -0.9821 -0.0377
  164SAPE   H3X18477   3.513   6.412   6.640  0.9585  0.9738  2.8922
  164SAPE   H3Y18478   3.665   6.402   6.534 -1.9731 -0.3466 -0.9183
  164SAPE   C3418479   3.703   6.422   6.742  0.2044 -0.8586  0.7396
  164SAPE   H4X18480   3.734   6.525   6.715 -0.4173 -1.0051 -0.5974
  164SAPE   H4Y18481   3.799   6.368   6.757 -0.2357 -2.1583 -0.8404
  164SAPE   C3518482   3.621   6.425   6.875 -0.0804 -0.5806  0.1739
  164SAPE   H5X18483   3.565   6.329   6.876 -2.4363  0.6975 -0.5531
  164SAPE   H5Y18484   3.541   6.502   6.887 -0.2132 -0.5708 -0.7280
  164SAPE   C3618485   3.711   6.440   7.002 -0.4924  0.2906 -0.1861
  164SAPE   H6X18486   3.776   6.526   6.977 -1.6329  0.7666 -1.6320
  164SAPE   H6Y18487   3.782   6.355   7.019 -1.5009 -0.0555  2.7560
  164SAPE   C3718488   3.638   6.450   7.147 -0.3183 -0.0685  0.3391
  164SAPE   H7X18489   3.587   6.351   7.149 -0.9489  0.2568  2.4380
  164SAPE   H7Y18490   3.554   6.522   7.153 -1.2015 -1.2291  3.2726
  164SAPE   C3818491   3.736   6.465   7.260 -0.0405 -0.1558 -0.2814
  164SAPE   H8X18492   3.810   6.382   7.259 -0.4839 -0.6068  1.1242
  164SAPE   H8Y18493   3.676   6.443   7.351 -1.7499 -2.4983 -1.8833
  164SAPE   C3918494   3.802   6.605   7.266  0.1230 -0.2885 -0.6313
  164SAPE   H9X18495   3.716   6.675   7.274  1.6890  1.6150  0.8816
  164SAPE   H9Y18496   3.864   6.644   7.183  0.3904 -0.4832 -0.5214
  164SAPE  C31018497   3.888   6.616   7.392 -0.0750 -0.3897 -0.1416
  164SAPE  H10X18498   3.982   6.557   7.394  0.1221 -0.0757  0.3190
  164SAPE  H10Y18499   3.831   6.577   7.479 -1.1757  1.1438 -0.1159
  164SAPE  C31118500   3.916   6.768   7.424  0.3722  0.6015  0.7279
  164SAPE  H11X18501   3.819   6.815   7.451 -0.0782 -0.4362  0.9653
  164SAPE  H11Y18502   3.958   6.834   7.344  0.9635 -2.2239 -1.4869
  164SAPE  C31218503   3.997   6.781   7.553 -0.2553  0.3776  0.1254
  164SAPE  H12X18504   4.031   6.886   7.566 -0.5939  0.4415  0.5230
  164SAPE  H12Y18505   4.086   6.714   7.557 -0.9679 -0.5799  0.1158
  164SAPE  C31318506   3.911   6.752   7.685  0.9047  0.6855  0.0408
  164SAPE  H13X18507   3.902   6.641   7.685 -1.2115  0.7918 -0.7173
  164SAPE  H13Y18508   3.811   6.800   7.677  1.5731  2.2846  0.8294
  164SAPE  C31418509   3.984   6.793   7.809  0.2194  1.1231 -0.2885
  164SAPE  H14X18510   4.016   6.899   7.797 -0.2572  1.3414  0.3187
  164SAPE  H14Y18511   4.076   6.730   7.812 -0.3307  0.3490  0.9810
  164SAPE  C31518512   3.914   6.762   7.940  0.2692 -0.3668 -0.2132
  164SAPE  H15X18513   3.940   6.661   7.980  0.4342  0.3873  1.6935
  164SAPE  H15Y18514   3.804   6.769   7.925  0.3126  0.7619 -0.0811
  164SAPE  C31618515   3.954   6.866   8.049 -0.1151 -1.2757 -0.2758
  164SAPE  H16X18516   3.905   6.860   8.148 -0.6098  2.1390 -0.2032
  164SAPE  H16Y18517   3.918   6.962   8.006 -1.0715 -0.4151  2.2662
  164SAPE  C31718518   4.108   6.870   8.076  0.4282 -0.0225  0.1663
  164SAPE  H17X18519   4.161   6.934   8.003  0.6610  1.2006  1.3641
  164SAPE  H17Y18520   4.148   6.768   8.059  0.6160 -0.1180  1.1125
  164SAPE  C31818521   4.156   6.918   8.216 -0.3920 -0.0284  0.3259
  164SAPE  H18X18522   4.121   6.847   8.294 -0.7611 -1.2094 -0.8634
  164SAPE  H18Y18523   4.119   7.021   8.236 -0.1585  0.2385 -0.5544
  164SAPE  H18Z18524   4.266   6.934   8.218 -0.6659  2.4584 -0.4720
  165SAPE     N18525   2.599   1.393   6.228 -0.0790  0.0744  0.1988
  165SAPE   HN118526   2.694   1.354   6.210  1.1353  3.1418 -0.8256
  165SAPE   HN218527   2.541   1.307   6.236  0.7276 -0.4235  0.8701
  165SAPE   HN318528   2.569   1.441   6.140  0.2467 -1.8418 -1.0191
  165SAPE   C1218529   2.584   1.461   6.359  0.5524  0.5194  0.6576
  165SAPE  H12A18530   2.652   1.548   6.360  0.3652  0.7837 -1.8673
  165SAPE  H12B18531   2.622   1.397   6.442  0.6494  0.0187  0.2338
  165SAPE   C1118532   2.441   1.512   6.379 -0.8949  0.9514 -0.0249
  165SAPE  H11A18533   2.435   1.554   6.482 -2.0039 -2.3440  1.3775
  165SAPE  H11B18534   2.373   1.425   6.391 -0.5844  0.6979 -0.0956
  165SAPE     P18535   2.344   1.722   6.286 -0.0806 -0.1159  0.2033
  165SAPE   O1318536   2.430   1.803   6.373 -0.1735 -0.0234 -0.2263
  165SAPE   O1418537   2.317   1.784   6.157  0.6289 -0.0669  0.3783
  165SAPE   O1218538   2.398   1.580   6.260 -0.6544  0.4303 -0.0093
  165SAPE   O1118539   2.199   1.699   6.356  0.2795 -0.2992  0.5631
  165SAPE    C118540   2.134   1.801   6.426 -0.7834  0.6887  0.2075
  165SAPE    HA18541   2.175   1.904   6.420 -0.8292  0.6671 -0.5142
  165SAPE    HB18542   2.034   1.810   6.379  0.1424 -0.0803 -1.9995
  165SAPE    C218543   2.122   1.766   6.574 -0.7614  1.1050  0.0921
  165SAPE    HS18544   2.072   1.848   6.629  0.1048  1.5748  0.2016
  165SAPE   O2118545   2.257   1.742   6.632 -0.4677 -0.2862 -0.1952
  165SAPE   C2118546   2.311   1.859   6.675  0.1771 -0.2477 -0.1056
  165SAPE   O2218547   2.256   1.969   6.669  0.1845 -0.0444  0.8019
  165SAPE   C2218548   2.450   1.822   6.731  0.0841 -0.3598  0.3289
  165SAPE   H2R18549   2.434   1.730   6.791 -1.4003 -0.4688 -0.1775
  165SAPE   H2S18550   2.508   1.797   6.639 -1.3220  3.8395 -1.9553
  165SAPE    C318551   2.046   1.634   6.601 -0.5778 -0.1649 -0.7862
  165SAPE    HX18552   2.112   1.548   6.575 -0.6537 -0.6524  0.5687
  165SAPE    HY18553   1.953   1.641   6.540 -0.5466 -2.3507 -1.1413
  165SAPE   O3118554   1.999   1.628   6.739 -0.4738  0.5972  0.1479
  165SAPE   C3118555   2.078   1.555   6.815  0.5365  0.3373 -0.1110
  165SAPE   O3218556   2.172   1.491   6.782 -0.1611 -0.0052 -0.0163
  165SAPE   C3218557   2.034   1.575   6.961  1.0346  0.0962  0.1401
  165SAPE   H2X18558   2.093   1.663   6.993  0.4528  0.3956  0.3784
  165SAPE   H2Y18559   2.068   1.487   7.020  0.3525  0.3723  0.9486
  165SAPE   C2318560   2.516   1.935   6.805 -0.0013 -0.3077  0.0915
  165SAPE   H3R18561   2.480   2.032   6.764 -1.2437 -0.1934  1.3608
  165SAPE   H3S18562   2.623   1.932   6.774 -0.2600  0.7240 -0.9673
  165SAPE   C2418563   2.486   1.935   6.958 -0.4642 -0.2113 -1.0302
  165SAPE   H4R18564   2.576   1.981   7.005 -0.5655  1.5393 -2.4630
  165SAPE   H4S18565   2.490   1.833   7.003 -0.3067  0.5158  0.7012
  165SAPE   C2518566   2.368   2.020   6.996 -0.0538 -0.4064 -0.2770
  165SAPE   H5R18567   2.298   2.026   6.911  1.0699 -0.5635 -1.2532
  165SAPE   C2618568   2.345   2.089   7.102 -0.1562 -0.5247  0.4525
  165SAPE   H6R18569   2.253   2.150   7.104 -0.6676 -1.2598  2.4727
  165SAPE   C2718570   2.435   2.118   7.220 -0.7803 -0.2314  0.4762
  165SAPE   H7R18571   2.477   2.220   7.204 -2.1826  0.5857  1.7477
  165SAPE   H7S18572   2.524   2.051   7.229 -0.5637  0.1432  1.2152
  165SAPE   C2818573   2.353   2.126   7.344  0.7186  0.3351  0.1422
  165SAPE   H8R18574   2.325   2.229   7.371 -1.7463  0.1980 -1.5564
  165SAPE   C2918575   2.306   2.013   7.412 -0.3826  0.4403 -0.3111
  165SAPE   H9R18576   2.259   2.025   7.511 -0.3124 -4.2599  0.5230
  165SAPE  C21018577   2.318   1.865   7.368  0.1595  0.4555 -0.5258
  165SAPE  H10R18578   2.392   1.809   7.430 -0.0870 -0.5457 -1.1046
  165SAPE  H10S18579   2.357   1.859   7.264 -0.9434  0.3887 -0.9501
  165SAPE  C21118580   2.196   1.774   7.375 -0.7232  0.2439  0.4928
  165SAPE  H11R18581   2.125   1.772   7.292  0.9210 -1.8182 -0.9648
  165SAPE  C21218582   2.159   1.696   7.480  0.7325 -0.6951  0.3101
  165SAPE  H12R18583   2.068   1.638   7.461  0.7698 -0.3836 -0.8927
  165SAPE  C21318584   2.212   1.692   7.619 -0.3214  0.8121  0.0022
  165SAPE  H13R18585   2.295   1.618   7.623 -0.5634  0.5501  0.3022
  165SAPE  H13S18586   2.124   1.659   7.679 -0.5930  1.7651  0.1440
  165SAPE  C21418587   2.248   1.826   7.685  0.3140 -0.0262  0.6411
  165SAPE  H14R18588   2.171   1.905   7.688 -0.0999 -0.4360  0.9521
  165SAPE  C21518589   2.368   1.857   7.742  0.3113  0.6007 -0.8452
  165SAPE  H15R18590   2.386   1.953   7.791  0.9276 -0.2917  0.7493
  165SAPE  C21618591   2.482   1.754   7.757 -0.1738 -0.8754  0.2018
  165SAPE  H16R18592   2.581   1.801   7.770 -1.3764  1.2013  2.6839
  165SAPE  H16S18593   2.494   1.690   7.667  1.6476  0.0197 -0.2387
  165SAPE  C21718594   2.462   1.655   7.880  0.0578 -0.9265  0.0693
  165SAPE  H17R18595   2.534   1.571   7.882 -0.6373 -1.5164  1.4158
  165SAPE  H17S18596   2.367   1.598   7.877 -0.4848 -0.0446 -0.0191
  165SAPE  C21818597   2.466   1.723   8.017  0.6458 -0.3797 -0.3736
  165SAPE  H18R18598   2.449   1.641   8.090  2.2885  0.5880  1.1685
  165SAPE  H18S18599   2.383   1.795   8.031 -0.8660 -1.9279 -0.9903
  165SAPE  C21918600   2.598   1.782   8.056  0.3418  0.3476 -0.2116
  165SAPE  H19R18601   2.681   1.735   7.999  0.5920 -0.2072  0.6012
  165SAPE  H19S18602   2.601   1.761   8.165 -1.1689  0.6022 -0.0893
  165SAPE  C22018603   2.590   1.937   8.038 -0.5815  0.1492 -0.2503
  165SAPE  H20R18604   2.534   1.995   8.115 -2.9606 -2.3724  0.0882
  165SAPE  H20S18605   2.530   1.960   7.948 -1.4193 -2.2653 -0.3775
  165SAPE  H20T18606   2.690   1.985   8.038 -0.8097  0.6638 -1.9789
  165SAPE   C3318607   1.883   1.584   6.974  0.4554 -0.1560 -0.2063
  165SAPE   H3X18608   1.825   1.491   6.958  0.7707 -0.3949  0.0349
  165SAPE   H3Y18609   1.843   1.654   6.898 -0.3272  1.2494  1.4436
  165SAPE   C3418610   1.843   1.642   7.110 -0.0122 -0.5393  0.1820
  165SAPE   H4X18611   1.892   1.742   7.107 -1.3270  0.1614  1.1719
  165SAPE   H4Y18612   1.896   1.592   7.194 -3.4395 -1.4995  1.9674
  165SAPE   C3518613   1.698   1.658   7.148  0.4174  0.3172  0.3948
  165SAPE   H5X18614   1.658   1.555   7.141  1.0169 -0.0155  1.6848
  165SAPE   H5Y18615   1.649   1.717   7.067 -1.5600 -2.2532 -0.4229
  165SAPE   C3618616   1.666   1.722   7.285 -0.0499 -0.1545 -0.5100
  165SAPE   H6X18617   1.563   1.705   7.323  0.7072  1.1897  2.5018
  165SAPE   H6Y18618   1.668   1.829   7.258  0.3535 -0.0819 -0.2076
  165SAPE   C3718619   1.765   1.710   7.401 -1.3938 -0.5192 -1.0342
  165SAPE   H7X18620   1.868   1.735   7.368 -1.0019  0.8527  0.9867
  165SAPE   H7Y18621   1.777   1.607   7.443 -1.6655 -1.0560 -2.2392
  165SAPE   C3818622   1.744   1.815   7.516 -0.3306  0.2285  1.0539
  165SAPE   H8X18623   1.644   1.801   7.564 -0.7214 -3.9145 -0.5450
  165SAPE   H8Y18624   1.765   1.916   7.476  0.4361 -0.0903  0.6326
  165SAPE   C3918625   1.846   1.799   7.631 -0.3527 -0.0955  0.9376
  165SAPE   H9X18626   1.944   1.841   7.602 -1.6099  1.2244 -1.6593
  165SAPE   H9Y18627   1.865   1.693   7.660 -3.9243 -0.5410  2.2449
  165SAPE  C31018628   1.801   1.878   7.756  0.3385 -0.7237 -0.6782
  165SAPE  H10X18629   1.707   1.833   7.797 -0.5473  0.5158 -1.2790
  165SAPE  H10Y18630   1.795   1.988   7.740  0.7923 -1.0195 -3.3984
  165SAPE  C31118631   1.899   1.858   7.876  0.1735 -0.1795  0.0434
  165SAPE  H11X18632   1.867   1.942   7.941 -2.8423 -0.0458 -1.4050
  165SAPE  H11Y18633   2.005   1.858   7.843 -0.2014  0.3600 -1.2479
  165SAPE  C31218634   1.887   1.712   7.922  0.3962 -0.5416  0.4943
  165SAPE  H12X18635   1.908   1.635   7.845 -0.5403 -1.2602  0.9194
  165SAPE  H12Y18636   1.782   1.690   7.954  0.5160 -1.0700  0.5457
  165SAPE  C31318637   1.975   1.677   8.049  0.6138 -0.0365 -0.5679
  165SAPE  H13X18638   2.081   1.695   8.020  1.2540 -0.0790  1.5709
  165SAPE  H13Y18639   1.950   1.570   8.069 -1.0717  0.6537  1.2697
  165SAPE  C31418640   1.937   1.762   8.168  0.5458 -0.6061  0.3730
  165SAPE  H14X18641   1.827   1.764   8.182  0.4594 -1.4294 -0.1141
  165SAPE  H14Y18642   1.957   1.871   8.158 -1.4653 -0.3246 -1.3906
  165SAPE  C31518643   1.997   1.698   8.293  0.0052 -0.7595 -0.6464
  165SAPE  H15X18644   2.107   1.695   8.280 -0.0625 -0.8337 -1.2203
  165SAPE  H15Y18645   1.964   1.592   8.303  1.3770 -1.5739 -3.6802
  165SAPE  C31618646   1.963   1.775   8.435 -0.0701  1.4588  0.0506
  165SAPE  H16X18647   1.852   1.784   8.434  0.0218  2.9636  0.7701
  165SAPE  H16Y18648   2.003   1.879   8.437  1.2249  1.0072 -0.7179
  165SAPE  C31718649   2.031   1.710   8.556 -0.2185  0.0290 -0.0440
  165SAPE  H17X18650   1.994   1.606   8.552  0.8849 -0.3492 -1.7055
  165SAPE  H17Y18651   1.998   1.763   8.648 -4.0207 -0.2800 -1.0628
  165SAPE  C31818652   2.187   1.705   8.553 -0.1845 -0.1462 -0.3004
  165SAPE  H18X18653   2.222   1.687   8.657  0.0027 -0.9324 -0.4950
  165SAPE  H18Y18654   2.233   1.804   8.531  0.1268 -0.2102  0.0434
  165SAPE  H18Z18655   2.225   1.624   8.488  1.1038 -0.4580  0.8053
  166SAPE     N18656   2.624   5.705   5.968  0.3554  0.4686  0.3418
  166SAPE   HN118657   2.593   5.804   5.979  1.7973  1.3044 -2.1544
  166SAPE   HN218658   2.625   5.679   5.867  1.6288  0.2537  0.3954
  166SAPE   HN318659   2.548   5.648   6.010  0.3209  0.7939  0.7291
  166SAPE   C1218660   2.758   5.664   6.027 -0.2742 -0.0524  0.3232
  166SAPE  H12A18661   2.751   5.678   6.137 -0.6469  2.2286  0.0540
  166SAPE  H12B18662   2.829   5.737   5.984 -0.3816  0.4931  1.0530
  166SAPE   C1118663   2.780   5.522   5.990  0.2305 -0.5481 -0.8030
  166SAPE  H11A18664   2.884   5.485   5.991 -0.0718 -1.4121  0.4199
  166SAPE  H11B18665   2.765   5.518   5.880  1.2869 -0.8339 -0.9465
  166SAPE     P18666   2.753   5.305   6.136  0.0274 -0.1756  0.1562
  166SAPE   O1318667   2.803   5.217   6.027  0.4532 -0.3542 -0.2165
  166SAPE   O1418668   2.848   5.346   6.240  0.1744  0.0462 -0.2359
  166SAPE   O1218669   2.692   5.436   6.061 -0.3214 -0.0568 -0.3551
  166SAPE   O1118670   2.630   5.240   6.202  0.5171  0.3470  0.3474
  166SAPE    C118671   2.561   5.302   6.310  0.2417 -0.7864  0.3013
  166SAPE    HA18672   2.575   5.412   6.321 -2.2573 -0.0454 -2.4901
  166SAPE    HB18673   2.452   5.295   6.291 -0.3878  1.2945  2.5522
  166SAPE    C218674   2.591   5.227   6.446  0.1404 -0.4572  0.2988
  166SAPE    HS18675   2.581   5.116   6.438  0.0543 -0.5288  1.2713
  166SAPE   O2118676   2.511   5.287   6.548  0.0313 -0.1084 -0.5476
  166SAPE   C2118677   2.396   5.235   6.579  0.0159  0.1919 -0.0001
  166SAPE   O2218678   2.352   5.135   6.526  0.0075  0.5351  0.3177
  166SAPE   C2218679   2.330   5.302   6.690  0.2830 -0.1146  0.4263
  166SAPE   H2R18680   2.405   5.313   6.771  0.7614 -1.3588  0.1632
  166SAPE   H2S18681   2.288   5.404   6.672  0.4001 -0.0850  0.3225
  166SAPE    C318682   2.737   5.254   6.497 -0.0294  0.7360 -0.0906
  166SAPE    HX18683   2.757   5.363   6.497 -0.9933  0.9740  2.1077
  166SAPE    HY18684   2.810   5.216   6.422  1.2386  2.2809  0.2919
  166SAPE   O3118685   2.759   5.207   6.632 -0.2860 -0.8340  0.1689
  166SAPE   C3118686   2.777   5.080   6.648  0.5846 -0.3570  0.1955
  166SAPE   O3218687   2.787   5.001   6.556  0.2656 -0.3863 -0.1823
  166SAPE   C3218688   2.778   5.045   6.795 -0.1810  0.0457  0.0616
  166SAPE   H2X18689   2.865   5.100   6.839  0.4121 -1.4728  0.8417
  166SAPE   H2Y18690   2.813   4.942   6.814 -1.6700 -0.6169 -0.6195
  166SAPE   C2318691   2.215   5.213   6.745  0.3043 -0.3249 -0.3211
  166SAPE   H3R18692   2.257   5.111   6.750  2.4482  0.4343 -1.7253
  166SAPE   H3S18693   2.119   5.213   6.688 -1.2529  2.9036  1.9673
  166SAPE   C2418694   2.190   5.258   6.893 -0.1707 -0.0100  0.0904
  166SAPE   H4R18695   2.285   5.272   6.948  0.7929 -1.0773 -1.2279
  166SAPE   H4S18696   2.146   5.172   6.949  0.5341 -0.8865 -0.6638
  166SAPE   C2518697   2.115   5.392   6.886  0.3505 -0.2162  0.1046
  166SAPE   H5R18698   2.132   5.439   6.788  2.4048 -1.8495 -0.4042
  166SAPE   C2618699   2.026   5.436   6.975 -0.8379 -0.1298  0.5466
  166SAPE   H6R18700   1.983   5.535   6.953 -0.9762 -0.6798 -1.9438
  166SAPE   C2718701   1.996   5.377   7.111  0.1677 -0.1626 -0.2576
  166SAPE   H7R18702   2.083   5.326   7.158  1.4160  2.8196  0.9309
  166SAPE   H7S18703   1.910   5.309   7.095 -0.5272  1.3540 -3.6904
  166SAPE   C2818704   1.943   5.466   7.219  0.1301  0.4218  1.0255
  166SAPE   H8R18705   1.954   5.572   7.192 -2.5084  0.4406 -0.3331
  166SAPE   C2918706   1.888   5.430   7.337 -0.4992  0.3051  0.1741
  166SAPE   H9R18707   1.872   5.512   7.408 -2.9588  1.6640 -1.7666
  166SAPE  C21018708   1.870   5.283   7.383 -0.2507  0.3228  0.7340
  166SAPE  H10R18709   1.955   5.245   7.443 -1.1835 -0.4033  1.6367
  166SAPE  H10S18710   1.857   5.216   7.295  4.3957  2.3704 -1.8772
  166SAPE  C21118711   1.743   5.272   7.459 -0.3494  0.4368  0.1887
  166SAPE  H11R18712   1.653   5.252   7.399 -2.3792 -0.9485  3.4273
  166SAPE  C21218713   1.724   5.286   7.597 -0.1481  0.5724 -0.2621
  166SAPE  H12R18714   1.627   5.257   7.641  0.9069  0.1996  1.9380
  166SAPE  C21318715   1.820   5.310   7.707 -0.5592  0.3866  0.2218
  166SAPE  H13R18716   1.924   5.281   7.679 -0.2726  0.6598  0.9658
  166SAPE  H13S18717   1.791   5.245   7.792 -0.5091 -0.4024 -0.3520
  166SAPE  C21418718   1.827   5.457   7.739 -0.9252 -0.3219 -0.1241
  166SAPE  H14R18719   1.822   5.522   7.651 -2.5477 -0.3690 -0.0979
  166SAPE  C21518720   1.825   5.517   7.858 -0.3627  0.0755  0.3623
  166SAPE  H15R18721   1.836   5.625   7.872  0.3549  0.0598 -0.0760
  166SAPE  C21618722   1.826   5.448   7.996 -0.1650  0.0111 -0.2264
  166SAPE  H16R18723   1.791   5.343   8.005  0.4860 -0.1582  0.3739
  166SAPE  H16S18724   1.759   5.507   8.063  2.3953  1.7740  0.9195
  166SAPE  C21718725   1.969   5.454   8.052 -0.5128  0.1001  0.1901
  166SAPE  H17R18726   2.044   5.452   7.971  0.8492 -0.3722  1.4204
  166SAPE  H17S18727   1.971   5.359   8.110  3.0564  0.5186  1.0085
  166SAPE  C21818728   1.987   5.571   8.154  0.1218 -0.5368 -0.7733
  166SAPE  H18R18729   1.899   5.600   8.215  0.1433 -2.8647  0.4969
  166SAPE  H18S18730   2.015   5.655   8.087 -1.0374  0.8462  0.4307
  166SAPE  C21918731   2.112   5.533   8.245  0.5014 -0.2339  0.8109
  166SAPE  H19R18732   2.191   5.489   8.179 -1.2881 -1.3032 -0.7235
  166SAPE  H19S18733   2.087   5.452   8.318  0.3656 -0.6910  0.2653
  166SAPE  C22018734   2.161   5.652   8.318 -0.2803  0.5346 -0.5632
  166SAPE  H20R18735   2.252   5.618   8.371 -0.8290  1.4620  1.0321
  166SAPE  H20S18736   2.086   5.675   8.396  0.1555 -0.9077  0.3106
  166SAPE  H20T18737   2.179   5.741   8.253  0.9930  0.9767  0.3583
  166SAPE   C3318738   2.643   5.064   6.862 -0.4477 -0.0567  0.1142
  166SAPE   H3X18739   2.574   4.985   6.827 -0.7559  1.3824 -2.9421
  166SAPE   H3Y18740   2.594   5.161   6.835 -0.4127  0.1586  0.7945
  166SAPE   C3418741   2.659   5.075   7.010  0.4085 -0.6226 -0.2212
  166SAPE   H4X18742   2.727   5.159   7.037  0.9077 -1.2369  0.4782
  166SAPE   H4Y18743   2.714   4.989   7.053  3.9794  2.9019  3.2430
  166SAPE   C3518744   2.529   5.097   7.090  0.1765 -0.7827  0.4070
  166SAPE   H5X18745   2.456   5.026   7.044  1.6241 -0.4473 -2.6964
  166SAPE   H5Y18746   2.490   5.199   7.068  1.6785 -0.1792  0.4582
  166SAPE   C3618747   2.541   5.079   7.234  0.6338  0.1518 -0.4012
  166SAPE   H6X18748   2.635   5.120   7.275  1.2163 -1.1963 -0.3509
  166SAPE   H6Y18749   2.542   4.972   7.263 -2.7476  0.5733  1.8145
  166SAPE   C3718750   2.420   5.135   7.314  0.4242  0.3148 -0.3296
  166SAPE   H7X18751   2.324   5.107   7.266  0.6164  0.1904 -0.6453
  166SAPE   H7Y18752   2.424   5.246   7.316 -1.5128  0.4448 -1.2688
  166SAPE   C3818753   2.407   5.092   7.464  0.0386  0.7602  0.0143
  166SAPE   H8X18754   2.491   5.133   7.525 -0.7098 -2.2085  3.3829
  166SAPE   H8Y18755   2.410   4.981   7.457  0.8886  0.8924 -3.0150
  166SAPE   C3918756   2.278   5.135   7.532 -0.0036  0.1317  0.3638
  166SAPE   H9X18757   2.187   5.097   7.480 -0.9253  2.8105 -0.1331
  166SAPE   H9Y18758   2.271   5.246   7.533 -0.7525  0.1143 -0.7552
  166SAPE  C31018759   2.277   5.089   7.688  0.5576 -0.7443  0.4188
  166SAPE  H10X18760   2.307   4.982   7.697 -1.4555 -1.2720  1.5406
  166SAPE  H10Y18761   2.168   5.089   7.711  0.1897  1.4516 -1.0151
  166SAPE  C31118762   2.340   5.191   7.767 -1.0642 -0.3621 -0.7824
  166SAPE  H11X18763   2.317   5.293   7.730 -1.9105 -0.3630 -0.3020
  166SAPE  H11Y18764   2.450   5.178   7.766 -0.5241  2.8129  1.0955
  166SAPE  C31218765   2.295   5.191   7.924 -0.4202 -0.4176  0.0072
  166SAPE  H12X18766   2.186   5.215   7.926 -0.1373  1.2578  4.1173
  166SAPE  H12Y18767   2.350   5.275   7.970 -1.1427 -0.7087  1.4528
  166SAPE  C31318768   2.341   5.060   7.996 -0.3340 -0.2005  0.1606
  166SAPE  H13X18769   2.432   5.023   7.945  0.1213  2.1385 -0.8483
  166SAPE  H13Y18770   2.260   4.993   7.960  0.1949 -1.0385  0.5014
  166SAPE  C31418771   2.351   5.072   8.144  0.3266  0.6561  0.1670
  166SAPE  H14X18772   2.435   5.141   8.165 -0.1888  1.8281 -1.4084
  166SAPE  H14Y18773   2.372   4.970   8.182  1.5479  1.6102  2.2506
  166SAPE  C31518774   2.222   5.115   8.212 -0.2240  0.3926 -0.4484
  166SAPE  H15X18775   2.148   5.052   8.159  1.4200 -2.4778  0.4932
  166SAPE  H15Y18776   2.201   5.223   8.193 -0.2433  0.9595  2.3270
  166SAPE  C31618777   2.197   5.082   8.364 -0.2526 -0.4280  0.2730
  166SAPE  H16X18778   2.289   5.112   8.419 -0.7012 -0.2807  0.9539
  166SAPE  H16Y18779   2.179   4.973   8.371  0.4056 -0.7592 -2.3098
  166SAPE  C31718780   2.069   5.156   8.416 -0.1526 -0.2603 -0.6968
  166SAPE  H17X18781   1.985   5.111   8.360 -0.7681  0.3781 -0.3043
  166SAPE  H17Y18782   2.074   5.266   8.397 -0.2653  0.2021  1.6151
  166SAPE  C31818783   2.035   5.128   8.560 -0.1783 -0.2978  0.2502
  166SAPE  H18X18784   2.106   5.180   8.629  0.2591 -1.2593  0.5420
  166SAPE  H18Y18785   2.016   5.022   8.588  2.3004 -0.2256  2.7103
  166SAPE  H18Z18786   1.941   5.183   8.583  0.1551  1.4646 -2.2546
  167SAPE     N18787   2.625   1.119   5.774 -0.3621  0.3200 -0.2970
  167SAPE   HN118788   2.547   1.184   5.798 -1.1100 -0.8305  0.5106
  167SAPE   HN218789   2.707   1.176   5.804  0.1437 -1.4472  1.9244
  167SAPE   HN318790   2.635   1.100   5.672  2.4850  2.0012 -0.4457
  167SAPE   C1218791   2.616   0.993   5.849 -0.3321 -0.4860 -0.1250
  167SAPE  H12A18792   2.678   0.920   5.794  2.7926  1.9229 -0.0833
  167SAPE  H12B18793   2.509   0.962   5.841 -0.8279  1.3656 -1.4951
  167SAPE   C1118794   2.661   1.016   5.989  0.0065  0.4509  0.1378
  167SAPE  H11A18795   2.754   1.077   5.992 -0.3013  0.9061  1.5640
  167SAPE  H11B18796   2.675   0.916   6.035 -2.9580 -1.1005 -1.9796
  167SAPE     P18797   2.476   1.065   6.174 -0.1785  0.5834  0.2920
  167SAPE   O1318798   2.424   1.195   6.225 -0.0489  0.1817 -0.2591
  167SAPE   O1418799   2.371   0.965   6.125 -0.3493 -0.2632 -0.4656
  167SAPE   O1218800   2.567   1.102   6.056  0.3313  0.5939  0.1339
  167SAPE   O1118801   2.586   0.996   6.267 -0.1138  0.0611  0.6236
  167SAPE    C118802   2.595   1.016   6.411 -0.0126  1.0999  0.2235
  167SAPE    HA18803   2.557   1.117   6.438 -4.4059 -0.4483  0.6177
  167SAPE    HB18804   2.540   0.945   6.476 -1.8861  3.4711  1.3986
  167SAPE    C218805   2.750   1.026   6.448  0.2838  0.9507 -0.1739
  167SAPE    HS18806   2.778   1.100   6.370 -1.4871  1.3417 -0.4786
  167SAPE   O2118807   2.812   0.894   6.447 -0.3553 -0.3914  0.1944
  167SAPE   C2118808   2.937   0.899   6.395 -0.2400  0.0789 -0.2456
  167SAPE   O2218809   2.998   0.998   6.360 -0.3709 -0.3487  0.3711
  167SAPE   C2218810   2.994   0.763   6.400  0.1004 -0.1751 -0.0403
  167SAPE   H2R18811   2.910   0.698   6.366 -2.1288  1.6139  1.7124
  167SAPE   H2S18812   3.080   0.763   6.330  0.2226  0.2722  0.1086
  167SAPE    C318813   2.786   1.094   6.585  0.0945 -0.0767  0.4223
  167SAPE    HX18814   2.776   1.205   6.583  2.7423  0.2133 -0.5818
  167SAPE    HY18815   2.895   1.080   6.604 -0.1045 -0.0933  1.6542
  167SAPE   O3118816   2.721   1.032   6.694  0.2713 -0.0480 -0.1913
  167SAPE   C3118817   2.619   1.097   6.751 -0.4797 -0.2674 -0.6658
  167SAPE   O3218818   2.566   1.203   6.705 -0.9054 -0.6364 -0.4941
  167SAPE   C3218819   2.568   0.999   6.867  0.8496 -0.9330  0.1427
  167SAPE   H2X18820   2.471   1.042   6.900  1.6051 -0.0945  1.3580
  167SAPE   H2Y18821   2.637   1.005   6.954  2.0416 -2.1276 -0.6850
  167SAPE   C2318822   3.059   0.721   6.538 -0.4262 -0.3290 -0.2112
  167SAPE   H3R18823   3.147   0.787   6.556 -0.2545 -0.8121  0.7471
  167SAPE   H3S18824   3.102   0.620   6.522  0.7026  0.0674  0.2116
  167SAPE   C2418825   2.967   0.728   6.663 -0.1105  0.9783 -0.4193
  167SAPE   H4R18826   2.918   0.828   6.664  2.3001  2.2722  1.6943
  167SAPE   H4S18827   3.029   0.728   6.756  1.2971  0.1610 -1.3351
  167SAPE   C2518828   2.872   0.611   6.668 -0.0527 -0.7620 -0.6770
  167SAPE   H5R18829   2.814   0.594   6.576  0.2881 -1.0125 -0.8501
  167SAPE   C2618830   2.843   0.529   6.771  0.0638  0.1819  0.2538
  167SAPE   H6R18831   2.783   0.442   6.740  2.7839 -1.3713 -0.9661
  167SAPE   C2718832   2.898   0.526   6.910 -0.2334 -0.1388 -0.0799
  167SAPE   H7R18833   2.852   0.442   6.966 -1.5968 -0.0878 -1.0812
  167SAPE   H7S18834   2.877   0.626   6.954  1.7686  1.4670 -2.5307
  167SAPE   C2818835   3.045   0.498   6.932  0.0083 -0.5903 -0.5502
  167SAPE   H8R18836   3.103   0.454   6.850 -0.9672 -0.9696 -1.0492
  167SAPE   C2918837   3.091   0.494   7.056 -0.0867 -0.3619  0.0278
  167SAPE   H9R18838   3.197   0.466   7.068 -0.4248 -2.0355 -0.5770
  167SAPE  C21018839   3.017   0.530   7.186 -0.8689 -0.1296 -0.3723
  167SAPE  H10R18840   2.913   0.560   7.161 -0.2059  0.7204 -2.2728
  167SAPE  H10S18841   3.066   0.614   7.239 -0.1630 -1.0436  0.4763
  167SAPE  C21118842   2.997   0.405   7.268 -0.1945  0.2150  0.0841
  167SAPE  H11R18843   2.923   0.328   7.245  2.1707 -2.2034  0.0717
  167SAPE  C21218844   3.065   0.379   7.383  0.2741  0.4077 -0.1970
  167SAPE  H12R18845   3.045   0.287   7.440  1.1935  1.0071  1.1436
  167SAPE  C21318846   3.160   0.464   7.453  0.0349  0.6684  0.1449
  167SAPE  H13R18847   3.110   0.549   7.504 -0.4800 -0.8462  2.3177
  167SAPE  H13S18848   3.235   0.507   7.382  1.4895 -0.9664  0.6135
  167SAPE  C21418849   3.223   0.387   7.567 -0.2428  0.2571 -0.6535
  167SAPE  H14R18850   3.325   0.351   7.548  0.1310  0.9894 -0.1078
  167SAPE  C21518851   3.173   0.368   7.695  0.1634 -0.1444  0.0606
  167SAPE  H15R18852   3.235   0.305   7.761 -0.9495 -2.6295 -1.1046
  167SAPE  C21618853   3.043   0.403   7.762 -0.0371 -0.2575 -0.3064
  167SAPE  H16R18854   2.979   0.313   7.760 -1.9132  1.0223 -1.7107
  167SAPE  H16S18855   3.000   0.494   7.713  1.5412  0.8615  0.3037
  167SAPE  C21718856   3.068   0.420   7.913  0.0998 -0.0099  0.1493
  167SAPE  H17R18857   3.136   0.507   7.916  1.0915 -0.7544 -0.2099
  167SAPE  H17S18858   3.117   0.332   7.960 -1.2979 -0.5398  0.6724
  167SAPE  C21818859   2.945   0.443   8.003 -0.4173 -0.3222 -0.6699
  167SAPE  H18R18860   2.855   0.385   7.973 -0.1105 -0.2768 -1.7510
  167SAPE  H18S18861   2.915   0.547   7.978  0.9036 -0.2286 -2.0400
  167SAPE  C21918862   2.968   0.443   8.156 -0.2646 -0.3930 -0.4653
  167SAPE  H19R18863   3.072   0.478   8.177  0.3590 -1.1535 -2.0680
  167SAPE  H19S18864   2.956   0.339   8.194  0.3220  0.3696  2.0034
  167SAPE  C22018865   2.869   0.520   8.240  0.1695  0.0903  0.2826
  167SAPE  H20R18866   2.863   0.628   8.214 -0.9596 -0.1759 -0.6781
  167SAPE  H20S18867   2.899   0.519   8.347  3.7550  0.9132 -0.5810
  167SAPE  H20T18868   2.769   0.471   8.234  0.1160  0.0976  1.0432
  167SAPE   C3318869   2.573   0.848   6.832  0.1733 -0.0339  0.1227
  167SAPE   H3X18870   2.678   0.835   6.797 -0.8173  0.4373 -3.3878
  167SAPE   H3Y18871   2.508   0.834   6.743 -0.6931 -1.7614  0.9720
  167SAPE   C3418872   2.525   0.759   6.941 -0.1392 -0.4749  0.2729
  167SAPE   H4X18873   2.591   0.777   7.028 -1.1599 -0.2774  1.0297
  167SAPE   H4Y18874   2.544   0.653   6.913  2.2250 -0.4962  1.6951
  167SAPE   C3518875   2.374   0.775   6.974 -0.1010  0.2060  0.0676
  167SAPE   H5X18876   2.314   0.798   6.883 -0.1913 -0.4944 -0.0565
  167SAPE   H5Y18877   2.373   0.866   7.038 -0.2930 -0.7286  1.4404
  167SAPE   C3618878   2.329   0.649   7.068  0.4210 -1.1129  0.0907
  167SAPE   H6X18879   2.415   0.639   7.138  0.0043 -1.2884  0.5792
  167SAPE   H6Y18880   2.320   0.558   7.005  0.6431 -0.9621 -0.1630
  167SAPE   C3718881   2.192   0.670   7.136 -0.8033  0.3161  0.0874
  167SAPE   H7X18882   2.117   0.694   7.058  0.4511 -0.3719 -1.3838
  167SAPE   H7Y18883   2.184   0.763   7.197  1.0865  1.0925 -0.7558
  167SAPE   C3818884   2.119   0.554   7.205  0.5905  0.2617  0.1716
  167SAPE   H8X18885   2.195   0.474   7.208  1.1943  0.7738  4.0944
  167SAPE   H8Y18886   2.030   0.526   7.144  1.5773 -0.4690 -0.9553
  167SAPE   C3918887   2.070   0.572   7.345  0.1383  0.0180 -0.8182
  167SAPE   H9X18888   2.025   0.477   7.380 -0.8415  0.3585 -1.1182
  167SAPE   H9Y18889   1.994   0.653   7.338 -1.7693 -1.6002  0.2990
  167SAPE  C31018890   2.183   0.611   7.449  0.5983  0.2429  0.4761
  167SAPE  H10X18891   2.244   0.697   7.414 -0.5942  1.7401  1.9164
  167SAPE  H10Y18892   2.252   0.524   7.452 -1.2291 -1.2641  0.7766
  167SAPE  C31118893   2.130   0.623   7.590  0.0136 -0.2308  0.1854
  167SAPE  H11X18894   2.068   0.535   7.617  0.6922 -0.3955  1.2946
  167SAPE  H11Y18895   2.064   0.712   7.587  1.2097  0.6666 -2.6271
  167SAPE  C31218896   2.244   0.633   7.695  0.6820 -0.0270 -0.0688
  167SAPE  H12X18897   2.323   0.704   7.663 -0.6705  0.2535 -3.1167
  167SAPE  H12Y18898   2.304   0.540   7.692  1.8755  0.6810  0.7781
  167SAPE  C31318899   2.183   0.684   7.832  0.2205  0.0449  0.0021
  167SAPE  H13X18900   2.121   0.775   7.826  0.8122  0.6694  2.3593
  167SAPE  H13Y18901   2.270   0.706   7.898  1.8508  0.5968 -2.1900
  167SAPE  C31418902   2.090   0.568   7.884  0.1668 -0.0520  0.3807
  167SAPE  H14X18903   2.149   0.474   7.887 -1.3366 -0.9914  2.0103
  167SAPE  H14Y18904   2.013   0.543   7.809 -0.1293  0.4799  0.4999
  167SAPE  C31518905   2.027   0.594   8.016  0.1528 -1.2978  0.1413
  167SAPE  H15X18906   1.946   0.666   7.991  2.3390  2.0593  1.8795
  167SAPE  H15Y18907   2.085   0.650   8.092 -1.5989 -0.4317  0.8798
  167SAPE  C31618908   1.961   0.478   8.088 -0.3847 -0.0559 -0.1287
  167SAPE  H16X18909   1.901   0.410   8.024 -0.8891 -0.3782  0.6581
  167SAPE  H16Y18910   1.885   0.521   8.157 -1.2420  0.7111 -1.5144
  167SAPE  C31718911   2.063   0.401   8.175 -0.3714  0.0646  0.1092
  167SAPE  H17X18912   2.114   0.474   8.242  0.8242 -1.9836  1.5364
  167SAPE  H17Y18913   2.146   0.375   8.106  0.3143 -1.4699  1.4517
  167SAPE  C31818914   1.995   0.289   8.248  0.1326 -0.0701  0.4037
  167SAPE  H18X18915   1.928   0.332   8.326  0.2190  3.1051 -1.1250
  167SAPE  H18Y18916   2.075   0.222   8.288  1.6289  1.6506  0.4520
  167SAPE  H18Z18917   1.935   0.224   8.183 -0.8590  0.9175  0.3048
  168SAPE     N18918   6.376   3.054   6.562 -0.2945 -0.1295  0.0573
  168SAPE   HN118919   6.318   3.006   6.491  1.8035 -2.0151 -0.4996
  168SAPE   HN218920   6.331   3.147   6.577  0.4518  0.4148 -0.9609
  168SAPE   HN318921   6.470   3.068   6.519  0.4512 -0.7649  1.4288
  168SAPE   C1218922   6.379   2.974   6.694 -0.3006 -0.5445  0.4133
  168SAPE  H12A18923   6.301   2.896   6.679 -0.2991 -0.6779  1.0733
  168SAPE  H12B18924   6.340   3.032   6.780  0.1122 -1.4751  1.2507
  168SAPE   C1118925   6.522   2.919   6.704  0.2259  0.1545  0.3841
  168SAPE  H11A18926   6.531   2.879   6.807 -0.5478  0.2121  0.4801
  168SAPE  H11B18927   6.594   3.004   6.708  0.2314  0.1820 -0.2625
  168SAPE     P18928   6.518   2.675   6.594  0.2281 -0.1283  0.1750
  168SAPE   O1318929   6.374   2.663   6.608  0.2197  0.0035 -0.2523
  168SAPE   O1418930   6.582   2.615   6.472 -0.1402  0.1216 -0.2103
  168SAPE   O1218931   6.562   2.823   6.606 -0.6710 -0.3197  0.2883
  168SAPE   O1118932   6.579   2.626   6.732  0.0344  0.8965 -0.4234
  168SAPE    C118933   6.720   2.632   6.768  0.1590 -0.5303  0.1794
  168SAPE    HA18934   6.774   2.537   6.751  3.1452  0.8530  1.2773
  168SAPE    HB18935   6.769   2.705   6.699 -0.3504  2.3258  2.6416
  168SAPE    C218936   6.744   2.662   6.917 -0.6602  0.0134 -0.4089
  168SAPE    HS18937   6.726   2.566   6.970 -1.8023 -0.6196 -1.8767
  168SAPE   O2118938   6.636   2.754   6.953 -0.2732 -0.1667 -0.5377
  168SAPE   C2118939   6.550   2.701   7.047 -0.2918  0.8087 -0.0898
  168SAPE   O2218940   6.550   2.585   7.092  0.6657  0.3413  0.3408
  168SAPE   C2218941   6.463   2.810   7.101 -0.8869  0.2450 -0.8652
  168SAPE   H2R18942   6.366   2.808   7.048 -1.6673 -0.3587  0.5304
  168SAPE   H2S18943   6.436   2.773   7.202 -0.8657  0.3717 -0.8124
  168SAPE    C318944   6.884   2.732   6.948 -0.0023  0.0813 -0.2053
  168SAPE    HX18945   6.881   2.833   6.900  2.3572 -0.3948 -1.5242
  168SAPE    HY18946   6.970   2.675   6.906  0.5601 -0.9914  2.2028
  168SAPE   O3118947   6.913   2.740   7.086 -0.2468  0.4417 -0.7309
  168SAPE   C3118948   6.966   2.849   7.130 -0.1205  0.0201  0.1473
  168SAPE   O3218949   7.009   2.942   7.059  0.5274  0.0413  0.4214
  168SAPE   C3218950   7.009   2.835   7.277  0.4152 -0.0707 -0.1530
  168SAPE   H2X18951   7.117   2.859   7.282  0.6405 -0.7756 -1.1514
  168SAPE   H2Y18952   6.994   2.729   7.306 -0.1305  0.0363 -0.0332
  168SAPE   C2318953   6.539   2.947   7.108  0.5470 -0.0687 -0.2726
  168SAPE   H3R18954   6.543   2.993   7.007 -0.8988  0.8866  0.0697
  168SAPE   H3S18955   6.642   2.941   7.149  0.8084  1.3629 -0.6671
  168SAPE   C2418956   6.470   3.052   7.207  0.6342  0.2369  0.4607
  168SAPE   H4R18957   6.495   3.022   7.311  1.6040 -1.0095 -0.1014
  168SAPE   H4S18958   6.360   3.038   7.205  0.7220 -0.5834  0.7467
  168SAPE   C2518959   6.518   3.191   7.182 -0.3741 -0.1231 -0.4568
  168SAPE   H5R18960   6.486   3.224   7.083  1.4605  0.4765 -0.8852
  168SAPE   C2618961   6.571   3.283   7.271  0.2732 -0.2275 -1.5089
  168SAPE   H6R18962   6.596   3.384   7.236  0.1572  0.1478 -0.5258
  168SAPE   C2718963   6.596   3.245   7.416 -0.1672 -0.3105  0.0724
  168SAPE   H7R18964   6.623   3.137   7.415 -0.1318 -0.4034  2.7646
  168SAPE   H7S18965   6.505   3.256   7.478 -1.1243 -1.0238 -1.1671
  168SAPE   C2818966   6.716   3.323   7.470 -0.3538 -0.2871  0.0500
  168SAPE   H8R18967   6.812   3.288   7.429 -0.3487 -0.7165  0.4345
  168SAPE   C2918968   6.707   3.419   7.561 -0.3313  0.0372 -0.1879
  168SAPE   H9R18969   6.796   3.480   7.584  1.5678 -1.3384 -3.2055
  168SAPE  C21018970   6.579   3.466   7.626  0.2677  0.0748  0.0017
  168SAPE  H10R18971   6.545   3.416   7.720 -1.0421  0.3208 -0.3263
  168SAPE  H10S18972   6.499   3.452   7.551 -1.4028  1.2155  1.4874
  168SAPE  C21118973   6.583   3.616   7.653  0.4382  0.1464  0.9624
  168SAPE  H11R18974   6.589   3.673   7.559  1.9480 -4.7131 -2.2328
  168SAPE  C21218975   6.548   3.677   7.770 -0.5904 -0.3821  0.6691
  168SAPE  H12R18976   6.557   3.786   7.779 -0.7962 -0.3817  0.9034
  168SAPE  C21318977   6.519   3.611   7.898 -0.6185 -1.0167  0.7202
  168SAPE  H13R18978   6.604   3.556   7.943 -0.7516 -1.9295 -0.0961
  168SAPE  H13S18979   6.454   3.522   7.884 -1.8601 -0.4157  2.3692
  168SAPE  C21418980   6.459   3.708   8.001  0.2289  0.4788  0.3993
  168SAPE  H14R18981   6.390   3.784   7.960  1.4856  0.0026 -2.9113
  168SAPE  C21518982   6.481   3.696   8.134 -0.0031  0.0508  0.3873
  168SAPE  H15R18983   6.423   3.770   8.192 -0.8727  0.6481 -1.1699
  168SAPE  C21618984   6.561   3.606   8.225 -0.1132  0.1582  0.2752
  168SAPE  H16R18985   6.593   3.661   8.316 -0.0400 -0.4539  0.6219
  168SAPE  H16S18986   6.638   3.543   8.177  0.0429  0.7531 -0.2812
  168SAPE  C21718987   6.459   3.505   8.276 -0.6677 -0.0258  0.1248
  168SAPE  H17R18988   6.418   3.447   8.190  0.6665  0.3520 -0.7912
  168SAPE  H17S18989   6.380   3.562   8.330  0.5869 -0.1181  2.1662
  168SAPE  C21818990   6.528   3.417   8.381 -0.1712 -0.8405 -0.0405
  168SAPE  H18R18991   6.575   3.499   8.440  0.4414 -0.2814 -1.2714
  168SAPE  H18S18992   6.610   3.351   8.347  1.4593  0.8404  0.4460
  168SAPE  C21918993   6.426   3.333   8.451 -0.0476  0.9347 -0.0718
  168SAPE  H19R18994   6.398   3.249   8.383 -1.1664 -1.5576  3.1915
  168SAPE  H19S18995   6.336   3.396   8.470  0.2512  1.4106 -0.2292
  168SAPE  C22018996   6.493   3.283   8.581 -0.0303 -0.3458 -0.6514
  168SAPE  H20R18997   6.599   3.252   8.571  1.3809  3.1237  1.8658
  168SAPE  H20S18998   6.439   3.197   8.627 -0.0678 -1.1460 -2.0974
  168SAPE  H20T18999   6.495   3.359   8.661  0.8053 -0.0908 -0.9095
  168SAPE   C3319000   6.932   2.923   7.385 -0.2022  0.6086  0.0109
  168SAPE   H3X19001   6.824   2.927   7.361  0.0078 -0.4488 -1.2248
  168SAPE   H3Y19002   6.976   3.025   7.378  0.4013  0.5090  1.7555
  168SAPE   C3419003   6.967   2.860   7.525 -0.3026 -0.0959 -0.1872
  168SAPE   H4X19004   7.071   2.880   7.557 -0.2337  1.1340 -1.1091
  168SAPE   H4Y19005   6.944   2.751   7.527 -1.9468  0.2285 -0.0509
  168SAPE   C3519006   6.880   2.907   7.643  0.0032  0.0436  0.3673
  168SAPE   H5X19007   6.779   2.862   7.640  0.5666 -1.3397  1.0737
  168SAPE   H5Y19008   6.876   3.018   7.644 -0.0504  0.0385  0.7793
  168SAPE   C3619009   6.944   2.859   7.780 -0.3423 -0.5823  0.2652
  168SAPE   H6X19010   6.890   2.908   7.864  1.3555  2.2176 -0.1268
  168SAPE   H6Y19011   7.045   2.903   7.791 -0.5764  0.0611 -0.0412
  168SAPE   C3719012   6.942   2.710   7.798  0.2236 -0.1771 -0.4517
  168SAPE   H7X19013   7.022   2.668   7.734  2.0180 -0.6732  1.9359
  168SAPE   H7Y19014   6.842   2.676   7.764  0.0464  1.5810 -1.7866
  168SAPE   C3819015   6.970   2.664   7.941  0.4129 -0.6153 -0.5163
  168SAPE   H8X19016   7.074   2.688   7.973 -0.3084  1.6498  0.3081
  168SAPE   H8Y19017   6.972   2.555   7.916  1.9664 -0.4422 -1.2549
  168SAPE   C3919018   6.866   2.687   8.052 -0.6103 -0.5891  0.3190
  168SAPE   H9X19019   6.766   2.660   8.013 -1.0573  1.5029 -0.0798
  168SAPE   H9Y19020   6.863   2.794   8.078  0.8082 -1.0605  2.7343
  168SAPE  C31019021   6.885   2.601   8.170 -0.0993 -0.3159  0.3085
  168SAPE  H10X19022   6.991   2.597   8.203  0.4827  0.2048 -1.3758
  168SAPE  H10Y19023   6.868   2.498   8.132  0.3617 -1.3621  2.7272
  168SAPE  C31119024   6.780   2.642   8.278 -1.0581 -0.2960 -0.1375
  168SAPE  H11X19025   6.797   2.587   8.373 -1.1243  0.5045  0.3447
  168SAPE  H11Y19026   6.682   2.610   8.236  0.3487 -2.0014 -2.3105
  168SAPE  C31219027   6.787   2.785   8.317  0.3220 -0.3449  0.2810
  168SAPE  H12X19028   6.772   2.854   8.231  3.4147 -0.3964 -0.3887
  168SAPE  H12Y19029   6.892   2.806   8.346  1.2413 -0.2840 -2.7392
  168SAPE  C31319030   6.680   2.812   8.429  0.3787 -0.2507 -0.1524
  168SAPE  H13X19031   6.687   2.923   8.438 -0.8653 -0.0401 -1.4857
  168SAPE  H13Y19032   6.712   2.755   8.519 -1.9834 -1.1940  0.1364
  168SAPE  C31419033   6.533   2.781   8.408 -0.4385 -0.1352  1.0240
  168SAPE  H14X19034   6.477   2.815   8.498 -4.8214  0.1210 -1.5383
  168SAPE  H14Y19035   6.511   2.672   8.397  1.6988 -0.4722 -0.5661
  168SAPE  C31519036   6.463   2.857   8.291 -0.2181 -0.0329 -0.4434
  168SAPE  H15X19037   6.518   2.820   8.202 -0.2316  0.0126 -0.4698
  168SAPE  H15Y19038   6.480   2.966   8.304  1.5882  0.0161 -2.6426
  168SAPE  C31619039   6.311   2.817   8.269 -0.1103  0.7360  0.3131
  168SAPE  H16X19040   6.251   2.811   8.362 -0.8585  0.9136 -0.1483
  168SAPE  H16Y19041   6.323   2.715   8.226  0.8107 -0.4765  3.2304
  168SAPE  C31719042   6.241   2.896   8.162  0.3513  0.8148  0.0127
  168SAPE  H17X19043   6.298   2.884   8.068 -0.5960 -0.5672 -0.4148
  168SAPE  H17Y19044   6.223   3.005   8.175  0.3990  0.7778  0.4143
  168SAPE  C31819045   6.090   2.847   8.147 -0.8733  0.8928  0.6461
  168SAPE  H18X19046   6.037   2.846   8.245  1.7590  1.4653  2.1825
  168SAPE  H18Y19047   6.088   2.744   8.107 -2.4029  1.0135  0.3769
  168SAPE  H18Z19048   6.041   2.897   8.061 -0.3735 -3.9842 -2.8791
  169SAPE     N19049   0.806   4.181   6.412  0.1812 -0.1717 -0.0235
  169SAPE   HN119050   0.716   4.217   6.451  0.2292 -1.0754  0.9756
  169SAPE   HN219051   0.794   4.080   6.388  1.3572 -0.2282 -0.4066
  169SAPE   HN319052   0.875   4.185   6.489 -1.9607 -0.5590  2.0327
  169SAPE   C1219053   0.861   4.255   6.293 -0.7977 -0.4880 -0.1461
  169SAPE  H12A19054   0.791   4.249   6.208 -1.4098 -0.0258  0.3222
  169SAPE  H12B19055   0.952   4.202   6.256 -0.1655  0.7556 -0.4310
  169SAPE   C1119056   0.882   4.405   6.324 -0.4570  0.8606 -0.4390
  169SAPE  H11A19057   0.927   4.455   6.236  1.0347  0.6165  0.1679
  169SAPE  H11B19058   0.961   4.418   6.401 -0.4262 -2.5986  0.3067
  169SAPE     P19059   0.719   4.600   6.317  0.1695  0.1494 -0.0709
  169SAPE   O1319060   0.837   4.670   6.259 -0.2772 -0.3131 -0.4218
  169SAPE   O1419061   0.601   4.579   6.229  0.0724  0.1646 -0.2884
  169SAPE   O1219062   0.766   4.468   6.369 -0.8166  0.2301 -0.1611
  169SAPE   O1119063   0.669   4.676   6.448 -0.6750 -0.1424  0.2662
  169SAPE    C119064   0.737   4.652   6.572  0.8336  0.3139  0.4376
  169SAPE    HA19065   0.840   4.609   6.562  0.3972 -0.3800 -1.6525
  169SAPE    HB19066   0.749   4.750   6.622  0.7928  0.0160  1.0352
  169SAPE    C219067   0.642   4.561   6.653 -0.1675 -0.2910  0.5543
  169SAPE    HS19068   0.606   4.478   6.588 -3.2629  0.3291  1.3162
  169SAPE   O2119069   0.542   4.639   6.711  0.5089  0.4992  0.6449
  169SAPE   C2119070   0.422   4.582   6.706  0.6886 -0.3389  0.4632
  169SAPE   O2219071   0.398   4.481   6.641 -0.1962 -0.3444  0.1724
  169SAPE   C2219072   0.322   4.673   6.781  0.3767  0.1894  0.5135
  169SAPE   H2R19073   0.330   4.663   6.891 -2.7225  1.2381  0.9220
  169SAPE   H2S19074   0.344   4.775   6.743  0.4606 -0.2003 -0.5341
  169SAPE    C319075   0.720   4.484   6.766 -0.1953  0.0409  0.0631
  169SAPE    HX19076   0.800   4.424   6.717  0.8082 -1.0617  2.8789
  169SAPE    HY19077   0.662   4.409   6.823  3.4788 -2.1798  1.2092
  169SAPE   O3119078   0.782   4.587   6.847  0.3944  0.3960 -0.2603
  169SAPE   C3119079   0.870   4.537   6.932 -0.8321 -1.1966 -0.6546
  169SAPE   O3219080   0.918   4.431   6.937 -0.0971 -0.2126  0.1662
  169SAPE   C3219081   0.924   4.663   7.006  0.2792 -0.5247  0.1172
  169SAPE   H2X19082   0.838   4.727   7.035 -0.3780 -1.8464  1.2105
  169SAPE   H2Y19083   0.985   4.708   6.924  0.8914 -2.3784 -0.4959
  169SAPE   C2319084   0.177   4.644   6.737 -0.3258  0.1362  0.0984
  169SAPE   H3R19085   0.145   4.550   6.787 -1.5522  0.6924  0.3891
  169SAPE   H3S19086   0.172   4.644   6.626  1.7049  2.0173 -0.0596
  169SAPE   C2419087   0.077   4.744   6.781 -0.0489 -0.0316  0.1374
  169SAPE   H4R19088   0.102   4.849   6.754 -1.2013  0.2874  0.2640
  169SAPE   H4S19089   0.082   4.732   6.892 -1.4620  0.7877  0.3139
  169SAPE   C2519090  -0.061   4.699   6.736  0.3367  0.5059  0.4198
  169SAPE   H5R19091  -0.072   4.670   6.630 -1.4322 -1.0352  0.9615
  169SAPE   C2619092  -0.173   4.689   6.816 -0.2576  0.8091  0.5881
  169SAPE   H6R19093  -0.259   4.650   6.761  0.6834 -1.4623  0.6349
  169SAPE   C2719094  -0.171   4.714   6.966  0.4315  0.0336 -0.6062
  169SAPE   H7R19095  -0.114   4.806   6.993 -1.2688  1.1676 -0.7329
  169SAPE   H7S19096  -0.116   4.636   7.022 -0.2385 -2.3274 -3.0224
  169SAPE   C2819097  -0.305   4.721   7.024  1.2295 -0.0153  0.3108
  169SAPE   H8R19098  -0.384   4.745   6.950  0.7130 -2.1074  0.1225
  169SAPE   C2919099  -0.350   4.700   7.145 -0.9198 -0.1291 -0.0942
  169SAPE   H9R19100  -0.457   4.704   7.171 -0.5530 -0.5965  1.6367
  169SAPE  C21019101  -0.267   4.661   7.263  0.5238 -0.1725 -0.6556
  169SAPE  H10R19102  -0.160   4.684   7.249  0.4850  0.3866 -0.0674
  169SAPE  H10S19103  -0.282   4.552   7.276 -1.3396  0.0759 -0.4340
  169SAPE  C21119104  -0.317   4.733   7.389 -0.3693  0.4061 -0.5972
  169SAPE  H11R19105  -0.340   4.841   7.388 -1.5908  0.1525 -0.8744
  169SAPE  C21219106  -0.341   4.681   7.511  0.2324  0.3428 -0.3160
  169SAPE  H12R19107  -0.369   4.748   7.594  2.9964  0.2768  0.7921
  169SAPE  C21319108  -0.321   4.539   7.549 -0.3238  0.4631  1.0544
  169SAPE  H13R19109  -0.212   4.521   7.535 -0.1753  2.2936 -0.5012
  169SAPE  H13S19110  -0.373   4.468   7.481 -1.3967  1.6758  0.5827
  169SAPE  C21419111  -0.374   4.511   7.688  0.5094 -0.0601  0.1781
  169SAPE  H14R19112  -0.465   4.451   7.702  0.9359 -0.1270  3.5503
  169SAPE  C21519113  -0.311   4.546   7.803 -0.4959  0.8487 -0.9515
  169SAPE  H15R19114  -0.352   4.512   7.899 -0.9941 -0.0965 -1.4907
  169SAPE  C21619115  -0.173   4.614   7.810  0.1529 -0.3789 -0.4972
  169SAPE  H16R19116  -0.196   4.722   7.823  1.7367 -0.2615  1.7869
  169SAPE  H16S19117  -0.104   4.606   7.724  1.9091 -1.0336  0.9166
  169SAPE  C21719118  -0.096   4.564   7.927 -0.1003 -0.7753 -0.3125
  169SAPE  H17R19119   0.001   4.615   7.949 -2.4276  3.6578  0.9226
  169SAPE  H17S19120  -0.082   4.455   7.915 -3.9724 -1.4882  0.5008
  169SAPE  C21819121  -0.165   4.594   8.055  0.5189  0.5014  0.3378
  169SAPE  H18R19122  -0.103   4.546   8.133  2.5866  1.3273 -0.7052
  169SAPE  H18S19123  -0.266   4.549   8.063  1.3772 -1.4785  0.4431
  169SAPE  C21919124  -0.187   4.743   8.087 -0.0549 -0.2934 -0.4661
  169SAPE  H19R19125  -0.244   4.795   8.007 -0.2064  0.2587 -0.0038
  169SAPE  H19S19126  -0.092   4.796   8.106  0.9327 -2.3476  0.6070
  169SAPE  C22019127  -0.285   4.761   8.204 -0.7023  0.3039  0.1240
  169SAPE  H20R19128  -0.321   4.866   8.200 -4.6682 -0.7820  1.7876
  169SAPE  H20S19129  -0.241   4.743   8.305 -0.1939  3.7409  0.6628
  169SAPE  H20T19130  -0.376   4.699   8.195 -1.4246  1.2533  0.6852
  169SAPE   C3319131   1.014   4.646   7.130  0.0533 -0.0775  0.9417
  169SAPE   H3X19132   1.046   4.749   7.158  1.0634 -0.2082  0.3578
  169SAPE   H3Y19133   1.108   4.592   7.102 -0.9331 -1.7428  0.7042
  169SAPE   C3419134   0.929   4.590   7.247  0.5873  0.0360  0.8630
  169SAPE   H4X19135   0.913   4.482   7.227  1.8119 -0.0424  0.2058
  169SAPE   H4Y19136   0.836   4.652   7.244  1.8505  1.9977 -1.9383
  169SAPE   C3519137   0.990   4.611   7.382  0.0050 -0.1221 -0.1684
  169SAPE   H5X19138   1.099   4.595   7.365  0.1156 -0.3441  0.6868
  169SAPE   H5Y19139   0.950   4.543   7.461 -0.2765  0.0047 -0.2010
  169SAPE   C3619140   0.958   4.749   7.439  0.4143 -0.0419  0.7062
  169SAPE   H6X19141   0.848   4.759   7.436  0.5703  2.4289 -2.2790
  169SAPE   H6Y19142   1.006   4.833   7.384 -0.0771  0.9742  1.7780
  169SAPE   C3719143   1.000   4.759   7.582  0.4833 -0.0708 -0.4402
  169SAPE   H7X19144   1.111   4.764   7.584  0.4648  0.0931  0.2854
  169SAPE   H7Y19145   0.964   4.673   7.643  2.0992 -0.1065  0.5284
  169SAPE   C3819146   0.944   4.885   7.649  0.0478  0.4513 -0.1847
  169SAPE   H8X19147   0.834   4.870   7.641  0.1325 -0.8741  0.7252
  169SAPE   H8Y19148   0.968   4.975   7.589  0.0640  0.4402 -0.1955
  169SAPE   C3919149   0.980   4.894   7.798  0.0416  0.4222  0.1399
  169SAPE   H9X19150   0.939   4.806   7.851 -0.4125  0.9506  0.6735
  169SAPE   H9Y19151   0.928   4.986   7.831  0.9031  1.6028 -1.6275
  169SAPE  C31019152   1.128   4.900   7.829  0.4049  0.4193 -0.5872
  169SAPE  H10X19153   1.177   4.967   7.755  1.3106 -0.4121 -0.7541
  169SAPE  H10Y19154   1.188   4.809   7.808  0.2065  0.4688 -1.4007
  169SAPE  C31119155   1.165   4.967   7.966  0.6763  0.2662  0.0362
  169SAPE  H11X19156   1.127   5.070   7.977 -1.5626 -0.3442 -1.3808
  169SAPE  H11Y19157   1.274   4.982   7.957  0.6576 -0.1477 -0.9733
  169SAPE  C31219158   1.145   4.889   8.098 -0.5266 -0.2420  0.1550
  169SAPE  H12X19159   1.041   4.856   8.119 -0.7970  0.5430  0.1041
  169SAPE  H12Y19160   1.166   4.963   8.179  2.9484 -0.0187 -0.7891
  169SAPE  C31319161   1.250   4.780   8.127  0.3532 -0.5418  0.1530
  169SAPE  H13X19162   1.348   4.806   8.080  0.4518  0.4165  0.8489
  169SAPE  H13Y19163   1.223   4.686   8.075  1.2872  0.5557 -2.5323
  169SAPE  C31419164   1.274   4.765   8.279 -0.4124 -0.1167 -0.2040
  169SAPE  H14X19165   1.333   4.853   8.314 -1.0635  0.2524 -0.0196
  169SAPE  H14Y19166   1.352   4.686   8.288 -0.4105 -0.3152 -1.8188
  169SAPE  C31519167   1.148   4.740   8.363 -0.1975 -0.3140 -0.4873
  169SAPE  H15X19168   1.088   4.654   8.326 -1.5919  1.3450 -2.3639
  169SAPE  H15Y19169   1.076   4.824   8.347  0.2476 -0.3395 -3.1906
  169SAPE  C31619170   1.186   4.735   8.513  0.0262 -0.7826  0.2434
  169SAPE  H16X19171   1.273   4.801   8.529 -0.3209  0.8775 -3.6108
  169SAPE  H16Y19172   1.225   4.634   8.538  0.3777 -0.8275 -0.4515
  169SAPE  C31719173   1.067   4.774   8.605  0.1229  0.7027  0.0315
  169SAPE  H17X19174   1.046   4.882   8.620  0.8534  0.7382  0.8230
  169SAPE  H17Y19175   1.080   4.734   8.708  0.7564  0.3096 -0.1965
  169SAPE  C31819176   0.929   4.711   8.566 -1.2579 -0.4459  0.9356
  169SAPE  H18X19177   0.844   4.731   8.634 -2.2385 -0.7062 -0.1701
  169SAPE  H18Y19178   0.945   4.601   8.569 -0.4864 -0.3977 -0.5995
  169SAPE  H18Z19179   0.897   4.744   8.465 -3.0512  3.5062  2.5805
  170SAPE     N19180   6.253   2.626   6.364 -0.2043  0.4013 -0.4031
  170SAPE   HN119181   6.298   2.654   6.454  1.4604 -1.8030 -0.4705
  170SAPE   HN219182   6.317   2.554   6.325  0.9617  1.9315 -1.4347
  170SAPE   HN319183   6.252   2.701   6.292 -2.3341  0.6902 -0.1535
  170SAPE   C1219184   6.122   2.566   6.388 -0.3843 -0.8531 -0.1984
  170SAPE  H12A19185   6.132   2.490   6.468 -1.6596 -0.0634  0.7548
  170SAPE  H12B19186   6.088   2.532   6.289  1.9186 -0.1407 -1.3195
  170SAPE   C1119187   6.031   2.673   6.443  0.0579 -0.0498  0.3815
  170SAPE  H11A19188   6.071   2.712   6.539  1.2244 -0.6083  0.1380
  170SAPE  H11B19189   5.934   2.627   6.471  0.7074 -0.2775  2.4365
  170SAPE     P19190   6.069   2.924   6.376 -0.3316  0.0040 -0.4179
  170SAPE   O1319191   6.218   2.923   6.374 -0.3558  0.6118  0.9889
  170SAPE   O1419192   6.005   3.022   6.286  0.0388  0.1741 -0.6584
  170SAPE   O1219193   6.012   2.775   6.347  0.3802 -0.0364  0.3710
  170SAPE   O1119194   6.034   2.941   6.533  0.3728 -0.0949  0.1819
  170SAPE    C119195   5.923   3.010   6.586  0.5880 -0.8783 -0.9101
  170SAPE    HA19196   5.926   3.119   6.568 -0.1852 -0.3560  1.8015
  170SAPE    HB19197   5.825   2.980   6.542 -1.2197  0.8405  1.6984
  170SAPE    C219198   5.916   3.003   6.741  0.0006  1.1715  0.1297
  170SAPE    HS19199   5.819   3.045   6.776 -0.6759  1.5389 -2.0188
  170SAPE   O2119200   6.026   3.065   6.804 -0.6793 -0.1470  0.4461
  170SAPE   C2119201   6.020   3.201   6.800  0.2855  0.1927  0.2516
  170SAPE   O2219202   5.931   3.273   6.756  0.2165 -0.3275 -0.1401
  170SAPE   C2219203   6.136   3.239   6.892  0.2968  0.0694  0.3369
  170SAPE   H2R19204   6.228   3.213   6.835 -0.3909 -0.8883 -0.3678
  170SAPE   H2S19205   6.112   3.346   6.909 -0.2476 -0.2399  1.6738
  170SAPE    C319206   5.913   2.852   6.774 -0.2410 -0.2490  0.4095
  170SAPE    HX19207   6.008   2.804   6.742  0.1341  0.7324  0.0256
  170SAPE    HY19208   5.821   2.804   6.735 -1.5866  0.1881  2.8060
  170SAPE   O3119209   5.889   2.848   6.911 -0.4372 -0.3655 -0.0878
  170SAPE   C3119210   5.982   2.795   6.988 -0.1140 -0.0403 -0.0626
  170SAPE   O3219211   6.091   2.747   6.957  0.0250  0.2818  1.0253
  170SAPE   C3219212   5.930   2.797   7.134  0.5419 -0.2142  1.0567
  170SAPE   H2X19213   5.858   2.713   7.144  0.3042 -0.1553 -0.0389
  170SAPE   H2Y19214   5.872   2.892   7.133 -2.4378 -1.8228 -2.2143
  170SAPE   C2319215   6.139   3.176   7.033  0.1191 -0.0025 -0.0050
  170SAPE   H3R19216   6.230   3.201   7.091  1.3360 -0.9957 -1.3965
  170SAPE   H3S19217   6.143   3.065   7.023 -1.1730 -0.0413 -0.2845
  170SAPE   C2419218   6.015   3.189   7.113  0.8357 -0.1933 -0.2740
  170SAPE   H4R19219   6.032   3.115   7.195 -0.4800 -2.2717 -1.7487
  170SAPE   H4S19220   5.931   3.143   7.056  0.0392  0.0982  0.6227
  170SAPE   C2519221   5.988   3.329   7.162 -0.3842 -0.4801  0.2894
  170SAPE   H5R19222   5.930   3.392   7.093  1.6924 -0.1008 -1.2186
  170SAPE   C2619223   6.043   3.388   7.271  0.5165  0.9245 -0.0364
  170SAPE   H6R19224   6.020   3.494   7.287 -2.8860  0.0451  1.6551
  170SAPE   C2719225   6.149   3.329   7.361  0.1996  0.3419  0.0655
  170SAPE   H7R19226   6.224   3.410   7.371 -1.1353  1.4521  1.3750
  170SAPE   H7S19227   6.202   3.243   7.313  0.8250  1.1929 -0.8254
  170SAPE   C2819228   6.103   3.277   7.491  0.0939  0.5669 -0.3167
  170SAPE   H8R19229   6.044   3.185   7.491 -1.2242  1.3476  1.5031
  170SAPE   C2919230   6.127   3.322   7.613  0.0394 -0.4549 -0.0410
  170SAPE   H9R19231   6.091   3.271   7.704  0.9820  0.6319  0.9836
  170SAPE  C21019232   6.202   3.451   7.649 -0.2949 -0.1112  1.6728
  170SAPE  H10R19233   6.201   3.526   7.567 -1.0921 -0.4332  1.3846
  170SAPE  H10S19234   6.310   3.425   7.657  0.1382  0.1390 -1.7158
  170SAPE  C21119235   6.158   3.504   7.784 -0.0327  0.5090 -0.4409
  170SAPE  H11R19236   6.200   3.442   7.865 -0.0290  1.6082  0.4281
  170SAPE  C21219237   6.077   3.609   7.816 -1.2249  0.6168  0.5875
  170SAPE  H12R19238   6.074   3.637   7.922  2.8928 -0.6603  1.2118
  170SAPE  C21319239   6.013   3.703   7.718  0.2845  0.5089 -0.4926
  170SAPE  H13R19240   5.925   3.748   7.770  2.3653  1.3299  2.6284
  170SAPE  H13S19241   5.968   3.652   7.630 -2.7432 -0.6249  1.5379
  170SAPE  C21419242   6.094   3.823   7.686 -0.4682 -0.3325 -0.3309
  170SAPE  H14R19243   6.148   3.814   7.591  0.1471 -0.1426 -0.0027
  170SAPE  C21519244   6.101   3.941   7.755  0.8198  0.2943 -0.1287
  170SAPE  H15R19245   6.169   4.019   7.718 -0.9878  1.1897 -1.7357
  170SAPE  C21619246   6.023   3.963   7.887 -0.0999  0.8069 -0.5728
  170SAPE  H16R19247   5.963   3.877   7.926 -0.8041  1.6092  0.1537
  170SAPE  H16S19248   5.956   4.050   7.872 -3.9284 -1.5570  1.2090
  170SAPE  C21719249   6.119   4.000   8.000  0.4808 -0.4190  0.3610
  170SAPE  H17R19250   6.187   4.084   7.975  1.3292 -1.7842 -2.2662
  170SAPE  H17S19251   6.179   3.909   8.023 -0.4976 -0.7904  1.6003
  170SAPE  C21819252   6.041   4.049   8.130  0.3358  0.0159  0.3396
  170SAPE  H18R19253   5.985   3.959   8.162 -1.5414  0.8281 -0.5002
  170SAPE  H18S19254   5.973   4.129   8.094  2.1850  1.0212 -1.1126
  170SAPE  C21919255   6.123   4.110   8.250  0.2121  0.2431  0.4593
  170SAPE  H19R19256   6.055   4.130   8.335 -0.6151  0.7108 -0.2849
  170SAPE  H19S19257   6.173   4.208   8.236 -0.5549  1.1181  3.2772
  170SAPE  C22019258   6.223   4.008   8.315 -0.4808  0.1288 -0.4218
  170SAPE  H20R19259   6.260   4.073   8.398  0.0607  0.8081 -1.1844
  170SAPE  H20S19260   6.307   3.990   8.245 -0.1877  2.3970 -0.7145
  170SAPE  H20T19261   6.164   3.918   8.345  1.4620 -0.7231  1.1034
  170SAPE   C3319262   6.045   2.809   7.245  1.0978  0.2476  0.7554
  170SAPE   H3X19263   6.105   2.895   7.207 -0.1754  0.4231 -0.9590
  170SAPE   H3Y19264   6.089   2.707   7.251 -0.4069 -0.5554 -0.7588
  170SAPE   C3419265   6.004   2.850   7.391 -0.5877 -0.1806  0.0367
  170SAPE   H4X19266   5.970   2.956   7.387 -0.0550 -0.0394 -1.9710
  170SAPE   H4Y19267   6.098   2.845   7.450 -0.4638  0.4854 -0.0891
  170SAPE   C3519268   5.894   2.763   7.463 -0.3227  0.1198  0.1989
  170SAPE   H5X19269   5.933   2.659   7.456 -1.5111 -0.3415  0.0783
  170SAPE   H5Y19270   5.795   2.776   7.412 -0.1779 -0.5914 -0.2894
  170SAPE   C3619271   5.898   2.798   7.610  0.0723  0.7855  0.2722
  170SAPE   H6X19272   5.901   2.904   7.644  1.7840  0.4804  1.2461
  170SAPE   H6Y19273   5.983   2.738   7.651  1.0602 -0.3700 -3.0693
  170SAPE   C3719274   5.779   2.735   7.679 -0.2697  0.1262  0.7993
  170SAPE   H7X19275   5.778   2.625   7.672 -0.6272  0.1094  1.0540
  170SAPE   H7Y19276   5.689   2.780   7.632 -0.3246  0.9576  1.6618
  170SAPE   C3819277   5.778   2.756   7.834 -0.1877  0.0678  0.0955
  170SAPE   H8X19278   5.785   2.866   7.849  1.4443  0.2515 -1.6158
  170SAPE   H8Y19279   5.864   2.699   7.875 -0.6667 -0.4053  0.4601
  170SAPE   C3919280   5.653   2.696   7.898 -0.5999 -0.6521 -0.5158
  170SAPE   H9X19281   5.657   2.585   7.900 -0.5087 -0.6765  2.2618
  170SAPE   H9Y19282   5.565   2.724   7.835 -0.6602 -1.6293 -0.8823
  170SAPE  C31019283   5.630   2.751   8.042 -0.5851 -0.6049  0.0884
  170SAPE  H10X19284   5.521   2.749   8.061 -1.2312 -1.8449 -3.0629
  170SAPE  H10Y19285   5.664   2.857   8.049  2.1144 -1.4910  1.9727
  170SAPE  C31119286   5.714   2.676   8.147 -0.4827 -0.5473  0.6176
  170SAPE  H11X19287   5.739   2.755   8.220 -0.3550 -1.0637  1.1433
  170SAPE  H11Y19288   5.803   2.620   8.111 -1.0048 -2.7981  2.5513
  170SAPE  C31219289   5.622   2.572   8.216  0.1722 -0.3206  0.8583
  170SAPE  H12X19290   5.596   2.497   8.138 -0.5943 -0.2140  1.0002
  170SAPE  H12Y19291   5.526   2.614   8.253 -1.1938 -2.2218 -0.3404
  170SAPE  C31319292   5.687   2.499   8.326 -0.3089  0.2258 -0.5598
  170SAPE  H13X19293   5.622   2.414   8.358 -2.4680  0.5349 -3.6204
  170SAPE  H13Y19294   5.712   2.570   8.408  0.8952 -0.2024 -0.5423
  170SAPE  C31419295   5.821   2.435   8.295 -0.2906  0.1442  0.1151
  170SAPE  H14X19296   5.881   2.394   8.379 -1.3161 -0.3997  0.6017
  170SAPE  H14Y19297   5.891   2.515   8.263  1.4158 -2.2119 -2.5583
  170SAPE  C31519298   5.820   2.329   8.181 -0.6290 -0.1941 -0.0097
  170SAPE  H15X19299   5.924   2.296   8.161  0.3017  0.7510  2.7955
  170SAPE  H15Y19300   5.781   2.367   8.084  0.3540  2.3917  0.5088
  170SAPE  C31619301   5.732   2.207   8.218  0.6073  0.0074  0.1320
  170SAPE  H16X19302   5.628   2.237   8.246  0.3190 -1.0430  0.2442
  170SAPE  H16Y19303   5.780   2.165   8.309 -0.0032 -0.4729  0.2353
  170SAPE  C31719304   5.722   2.108   8.112 -0.8253  0.2065 -0.6001
  170SAPE  H17X19305   5.708   2.007   8.156 -0.2147  0.8083  1.0712
  170SAPE  H17Y19306   5.817   2.100   8.054  0.3461 -0.6572  1.3103
  170SAPE  C31819307   5.615   2.146   8.019  0.2485  0.6040 -0.2037
  170SAPE  H18X19308   5.518   2.131   8.070  0.6442  1.2761  0.7694
  170SAPE  H18Y19309   5.615   2.077   7.932 -2.4764  0.9540 -0.5448
  170SAPE  H18Z19310   5.641   2.242   7.971  0.5445  1.7142  2.0352
  171SAPE     N19311   0.711   1.060   6.589  0.6433  0.0086 -0.3858
  171SAPE   HN119312   0.768   1.125   6.647  0.2280 -0.6783  0.8242
  171SAPE   HN219313   0.614   1.095   6.585  1.0569  1.6717  1.9823
  171SAPE   HN319314   0.704   0.976   6.650  0.4914  1.4765  1.7266
  171SAPE   C1219315   0.773   1.036   6.450 -1.0394 -0.3650 -0.1531
  171SAPE  H12A19316   0.700   1.000   6.375 -1.5149  0.6844 -0.2014
  171SAPE  H12B19317   0.858   0.965   6.463 -0.5593 -0.4256 -3.0878
  171SAPE   C1119318   0.837   1.173   6.413  0.2396  0.0816  0.2917
  171SAPE  H11A19319   0.747   1.233   6.386 -1.2144 -1.6785  1.0336
  171SAPE  H11B19320   0.900   1.163   6.323 -0.6769 -0.7368 -0.2803
  171SAPE     P19321   1.005   1.350   6.487  0.1122 -0.1409 -0.4583
  171SAPE   O1319322   1.133   1.303   6.432  0.0681  0.0075 -0.5118
  171SAPE   O1419323   0.932   1.459   6.419  0.3065  0.5238  0.0151
  171SAPE   O1219324   0.904   1.234   6.522 -0.1157  0.1933 -0.4106
  171SAPE   O1119325   1.016   1.401   6.637 -0.6827 -0.4506  0.6404
  171SAPE    C119326   1.140   1.451   6.686  0.1206 -0.4431  0.8655
  171SAPE    HA19327   1.216   1.370   6.695  0.5019 -0.2701 -0.5426
  171SAPE    HB19328   1.179   1.529   6.617 -1.4477 -0.4501 -0.0560
  171SAPE    C219329   1.136   1.505   6.830  0.5551  0.5076  0.6039
  171SAPE    HS19330   1.062   1.587   6.825 -0.8167 -0.7579 -1.6001
  171SAPE   O2119331   1.269   1.550   6.869  0.2469 -0.4588 -0.0630
  171SAPE   C2119332   1.305   1.668   6.817  0.1300  1.1162 -0.5840
  171SAPE   O2219333   1.226   1.747   6.766 -0.1368 -0.3810 -0.0094
  171SAPE   C2219334   1.451   1.698   6.816 -0.6305  0.0694 -0.5873
  171SAPE   H2R19335   1.489   1.655   6.910 -0.8289  2.5025  0.6977
  171SAPE   H2S19336   1.497   1.660   6.722 -1.4639  1.9706 -1.8401
  171SAPE    C319337   1.080   1.401   6.929 -0.3670  0.4495 -0.5105
  171SAPE    HX19338   1.169   1.334   6.938 -0.3235  0.4665 -0.8039
  171SAPE    HY19339   1.002   1.341   6.876 -1.3564 -1.2793  2.6445
  171SAPE   O3119340   1.042   1.462   7.055 -0.1426 -0.2427  0.5643
  171SAPE   C3119341   0.934   1.410   7.108 -1.0703  0.0133 -0.0998
  171SAPE   O3219342   0.875   1.314   7.059 -0.0845  0.2081  0.0945
  171SAPE   C3219343   0.914   1.473   7.248 -0.2029  0.0489  0.5401
  171SAPE   H2X19344   0.826   1.540   7.240  0.7610  1.1676 -1.3999
  171SAPE   H2Y19345   1.007   1.525   7.278 -1.4582  0.7613  3.4940
  171SAPE   C2319346   1.485   1.855   6.807  0.2463 -0.0414  0.2879
  171SAPE   H3R19347   1.472   1.892   6.703 -2.0780 -0.9585  0.1800
  171SAPE   H3S19348   1.595   1.862   6.825  0.5883  0.1092 -1.6811
  171SAPE   C2419349   1.434   1.955   6.920  0.1713  0.3756  0.1068
  171SAPE   H4R19350   1.458   1.917   7.021 -0.6548  0.8555  0.4959
  171SAPE   H4S19351   1.323   1.961   6.919  0.0395 -0.4752  2.8004
  171SAPE   C2519352   1.495   2.095   6.915  0.6141  0.3580 -0.3809
  171SAPE   H5R19353   1.500   2.149   6.819  0.2922  1.4898  0.2326
  171SAPE   C2619354   1.539   2.170   7.012 -0.6326  0.6410 -0.9278
  171SAPE   H6R19355   1.591   2.265   6.994  1.4878  0.0407  1.3403
  171SAPE   C2719356   1.546   2.143   7.166  0.2289  0.7281  0.2167
  171SAPE   H7R19357   1.632   2.078   7.192 -0.6976 -0.8022 -0.4009
  171SAPE   H7S19358   1.454   2.087   7.194 -0.3672  0.9163 -1.2724
  171SAPE   C2819359   1.573   2.267   7.249  0.6891 -0.1031  0.4637
  171SAPE   H8R19360   1.639   2.343   7.206  1.9316 -0.2944  1.9646
  171SAPE   C2919361   1.529   2.303   7.367  1.3753 -0.9284  0.2878
  171SAPE   H9R19362   1.567   2.398   7.406 -0.9387  0.6319 -1.0566
  171SAPE  C21019363   1.424   2.234   7.452 -0.2836  0.2643 -0.2669
  171SAPE  H10R19364   1.335   2.223   7.387 -0.4761 -0.9577  0.1807
  171SAPE  H10S19365   1.385   2.293   7.538 -0.6174  0.8062 -0.7882
  171SAPE  C21119366   1.461   2.097   7.497  0.2666  0.3678  0.7319
  171SAPE  H11R19367   1.468   2.027   7.412 -0.6953  1.9408 -0.7164
  171SAPE  C21219368   1.480   2.051   7.617 -0.2935  0.1683 -0.1571
  171SAPE  H12R19369   1.483   1.943   7.634 -0.5824  0.0323 -0.9634
  171SAPE  C21319370   1.464   2.140   7.738  0.1548 -1.6476 -0.4927
  171SAPE  H13R19371   1.418   2.089   7.826 -0.3982  0.1069  0.3008
  171SAPE  H13S19372   1.393   2.225   7.723  3.4072  1.6887  1.3474
  171SAPE  C21419373   1.587   2.215   7.786  0.5340 -0.5882  0.3251
  171SAPE  H14R19374   1.664   2.241   7.712  0.1443 -0.3296  0.0029
  171SAPE  C21519375   1.610   2.262   7.910 -0.7901  0.4588 -0.2176
  171SAPE  H15R19376   1.691   2.334   7.926 -1.2157  0.9154 -0.1135
  171SAPE  C21619377   1.513   2.240   8.027  0.0349 -0.4723 -0.3249
  171SAPE  H16R19378   1.410   2.233   7.986 -0.6741  1.5446  0.9237
  171SAPE  H16S19379   1.510   2.338   8.080  1.7724  0.4494 -1.8399
  171SAPE  C21719380   1.549   2.137   8.123 -0.1580  0.5700 -0.1383
  171SAPE  H17R19381   1.568   2.044   8.065  1.7616  1.4348 -0.9930
  171SAPE  H17S19382   1.467   2.121   8.196 -0.5097 -1.4817 -0.9289
  171SAPE  C21819383   1.677   2.163   8.209 -0.8101  0.5985  0.2034
  171SAPE  H18R19384   1.687   2.268   8.245 -1.6645  0.6228  0.3760
  171SAPE  H18S19385   1.772   2.156   8.151 -0.3927  0.4603  0.8833
  171SAPE  C21919386   1.690   2.070   8.325  0.6234  0.7474 -0.2911
  171SAPE  H19R19387   1.693   1.971   8.274 -1.9064  0.3397  0.2220
  171SAPE  H19S19388   1.603   2.065   8.394  1.4167  1.7076  0.8150
  171SAPE  C22019389   1.814   2.092   8.411  0.5612  0.0005  0.4607
  171SAPE  H20R19390   1.826   2.186   8.468 -2.0696  1.5501 -1.3607
  171SAPE  H20S19391   1.898   2.089   8.338 -1.3321  0.2953 -1.8753
  171SAPE  H20T19392   1.810   2.009   8.485 -0.2444  0.2515  0.7034
  171SAPE   C3319393   0.890   1.361   7.354 -0.0346  0.7942  0.0275
  171SAPE   H3X19394   0.969   1.286   7.335  0.1129  1.3203 -1.6649
  171SAPE   H3Y19395   0.790   1.315   7.337  0.5778  0.0829 -1.9693
  171SAPE   C3419396   0.892   1.412   7.494  0.2696 -0.3941  0.0789
  171SAPE   H4X19397   0.811   1.488   7.505  1.2258  0.7993 -0.7946
  171SAPE   H4Y19398   0.984   1.465   7.525 -0.9327 -0.3619  4.2058
  171SAPE   C3519399   0.873   1.294   7.593 -1.0139  0.2329  0.2112
  171SAPE   H5X19400   0.952   1.218   7.577 -1.1555 -0.0264  0.6998
  171SAPE   H5Y19401   0.785   1.232   7.564 -0.9786  0.9988 -1.5979
  171SAPE   C3619402   0.861   1.342   7.740  0.1800 -0.2715 -0.1020
  171SAPE   H6X19403   0.787   1.423   7.755  0.6005  0.0069  0.5399
  171SAPE   H6Y19404   0.960   1.381   7.771  0.4918 -1.7685  0.9191
  171SAPE   C3719405   0.814   1.228   7.832 -0.0878  0.4007 -0.3841
  171SAPE   H7X19406   0.884   1.142   7.826  0.9571  1.2667 -0.9831
  171SAPE   H7Y19407   0.711   1.199   7.800  0.8028  0.0167 -3.2136
  171SAPE   C3819408   0.820   1.272   7.981  0.1584  0.3467 -0.4858
  171SAPE   H8X19409   0.728   1.331   8.001  0.7807  1.1728  0.0383
  171SAPE   H8Y19410   0.912   1.332   8.000  0.5147 -0.5507  0.7407
  171SAPE   C3919411   0.821   1.161   8.082  0.0979 -0.4063  0.1787
  171SAPE   H9X19412   0.919   1.111   8.094  1.1081  1.0703 -1.4868
  171SAPE   H9Y19413   0.737   1.092   8.057 -0.8868  0.6825  0.3455
  171SAPE  C31019414   0.777   1.206   8.224  0.9082 -0.0448 -0.3390
  171SAPE  H10X19415   0.749   1.116   8.282 -1.4413  1.0949  0.4076
  171SAPE  H10Y19416   0.682   1.261   8.212  0.5307 -1.0075 -1.9693
  171SAPE  C31119417   0.881   1.290   8.299 -0.4305  0.2868  1.2622
  171SAPE  H11X19418   0.885   1.387   8.247  2.2773 -0.4184 -0.0131
  171SAPE  H11Y19419   0.978   1.237   8.283 -0.8633 -1.3399  3.4538
  171SAPE  C31219420   0.852   1.306   8.446 -0.3232 -0.2641 -0.6422
  171SAPE  H12X19421   0.842   1.206   8.492 -2.3951  1.1984  2.4772
  171SAPE  H12Y19422   0.752   1.350   8.468 -1.1278 -2.9776  1.6213
  171SAPE  C31319423   0.971   1.385   8.501 -0.1335  0.0821  0.6341
  171SAPE  H13X19424   0.962   1.489   8.461 -0.4323 -0.0345  0.3964
  171SAPE  H13Y19425   1.070   1.349   8.467 -0.2229 -1.2024  1.6485
  171SAPE  C31419426   0.973   1.395   8.655 -0.0852  0.0178  0.2104
  171SAPE  H14X19427   0.976   1.292   8.697 -0.1424 -0.0575  0.0285
  171SAPE  H14Y19428   0.873   1.434   8.683  0.4945  0.8160  1.2719
  171SAPE  C31519429   1.095   1.473   8.709  0.6574 -0.1867 -0.0342
  171SAPE  H15X19430   1.089   1.578   8.673 -0.8889 -0.3099 -0.1785
  171SAPE  H15Y19431   1.188   1.431   8.666  0.4180  0.1225 -0.8708
  171SAPE  C31619432   1.114   1.475   8.858 -0.4042  0.0914 -0.7155
  171SAPE  H16X19433   1.212   1.472   8.909 -1.1319 -1.7732  0.6696
  171SAPE  H16Y19434   1.061   1.396   8.915  1.5381 -1.0481 -0.4116
  171SAPE  C31719435   1.042   1.597   8.913 -0.2769 -0.7933  0.5767
  171SAPE  H17X19436   0.939   1.607   8.873  0.6688  0.7856 -1.6582
  171SAPE  H17Y19437   1.092   1.692   8.883  1.0479 -1.7750 -0.3718
  171SAPE  C31819438   1.041   1.581   9.065 -0.1530 -0.1554 -0.6216
  171SAPE  H18X19439   1.143   1.575   9.109 -0.4643  1.1314  0.3608
  171SAPE  H18Y19440   0.982   1.495   9.105 -1.9512  1.2340 -0.1462
  171SAPE  H18Z19441   0.980   1.663   9.110  0.9471 -0.7179  2.0998
  172SAPE     N19442   5.437   0.411   6.503  0.1917 -0.2145 -0.1336
  172SAPE   HN119443   5.384   0.494   6.537  0.0529  0.7913 -2.5896
  172SAPE   HN219444   5.490   0.369   6.582  0.5331 -1.3903 -0.9510
  172SAPE   HN319445   5.508   0.451   6.438  0.6173  1.3946  1.2491
  172SAPE   C1219446   5.342   0.304   6.449  0.3711  0.4556  0.4177
  172SAPE  H12A19447   5.273   0.280   6.532  2.5726  0.1540  2.2787
  172SAPE  H12B19448   5.407   0.217   6.422  1.4674  1.4459 -0.2412
  172SAPE   C1119449   5.254   0.350   6.324  0.4379 -0.1662 -0.2542
  172SAPE  H11A19450   5.187   0.266   6.297 -1.0587  1.3906 -1.6721
  172SAPE  H11B19451   5.328   0.374   6.245  0.6692 -1.2027 -0.3567
  172SAPE     P19452   5.072   0.531   6.283  0.0684  0.3826 -0.0833
  172SAPE   O1319453   5.134   0.605   6.174  0.3849 -0.2995  0.3841
  172SAPE   O1419454   4.983   0.425   6.244  0.8693 -0.5686  0.6910
  172SAPE   O1219455   5.185   0.471   6.372 -0.3002 -0.5432 -0.1556
  172SAPE   O1119456   5.011   0.630   6.386  0.0591  0.0590  0.5557
  172SAPE    C119457   5.076   0.709   6.480 -0.5947  0.4289  0.2138
  172SAPE    HA19458   5.162   0.762   6.433  2.3987 -1.7313  2.8416
  172SAPE    HB19459   5.015   0.793   6.519  1.4728  1.7241  0.8170
  172SAPE    C219460   5.123   0.628   6.601  0.2878  0.3816  0.0081
  172SAPE    HS19461   5.215   0.571   6.575 -0.5921 -1.0587 -0.0346
  172SAPE   O2119462   5.023   0.530   6.636 -0.4856  0.4180 -0.1704
  172SAPE   C2119463   5.071   0.417   6.691 -0.3795  1.3526  0.0575
  172SAPE   O2219464   5.189   0.390   6.719  0.4056  0.1298  0.3612
  172SAPE   C2219465   4.953   0.326   6.722 -0.1621 -0.1663  0.0583
  172SAPE   H2R19466   4.864   0.390   6.741 -0.1558 -0.6401  1.7698
  172SAPE   H2S19467   4.945   0.288   6.618 -2.0774  0.0414  0.1078
  172SAPE    C319468   5.161   0.714   6.721 -0.2985  0.7650  0.3594
  172SAPE    HX19469   5.067   0.757   6.760 -0.7769  0.2515 -0.2173
  172SAPE    HY19470   5.220   0.804   6.693 -1.8476  1.0060 -2.4777
  172SAPE   O3119471   5.232   0.648   6.835  0.1190 -0.2747 -0.1815
  172SAPE   C3119472   5.356   0.606   6.820  0.0819  0.9248  0.3260
  172SAPE   O3219473   5.421   0.618   6.713  0.4645 -0.0700 -0.0927
  172SAPE   C3219474   5.412   0.551   6.952  0.3618 -1.1632  0.1012
  172SAPE   H2X19475   5.401   0.639   7.019  0.3721  0.3484 -1.7716
  172SAPE   H2Y19476   5.519   0.528   6.935  0.4318 -0.9925  0.3018
  172SAPE   C2319477   4.982   0.213   6.828 -0.5494 -0.2950  0.7101
  172SAPE   H3R19478   5.071   0.155   6.796 -1.0087  0.6233 -2.6439
  172SAPE   H3S19479   4.897   0.141   6.828  0.5544 -1.7851 -2.5383
  172SAPE   C2419480   5.002   0.266   6.974  0.4437 -0.4885  0.1286
  172SAPE   H4R19481   4.906   0.311   7.008  0.5328  0.2864 -0.6080
  172SAPE   H4S19482   5.078   0.346   6.962 -1.0718  0.8818 -0.7659
  172SAPE   C2519483   5.038   0.149   7.065 -0.6704  0.8421 -0.1177
  172SAPE   H5R19484   5.127   0.095   7.031 -1.7090 -1.0053 -0.0420
  172SAPE   C2619485   4.979   0.102   7.179 -0.3364 -0.5914 -0.0114
  172SAPE   H6R19486   5.014   0.010   7.228  2.2718  0.6848  0.7004
  172SAPE   C2719487   4.851   0.162   7.236  0.5953  0.0350  0.0549
  172SAPE   H7R19488   4.806   0.213   7.148  0.6916 -0.5114 -0.3167
  172SAPE   H7S19489   4.870   0.248   7.304 -0.5609 -1.1663  1.9752
  172SAPE   C2819490   4.753   0.065   7.298 -0.1634 -0.3200 -0.3212
  172SAPE   H8R19491   4.672   0.029   7.233 -1.1362 -0.6300  1.0063
  172SAPE   C2919492   4.763   0.023   7.425  0.3662 -0.0046 -0.5664
  172SAPE   H9R19493   4.674  -0.028   7.465  1.3284 -1.8213 -0.5983
  172SAPE  C21019494   4.868   0.060   7.525 -0.1089  0.9278 -0.1013
  172SAPE  H10R19495   4.956   0.106   7.476  0.9412 -1.0619 -0.2111
  172SAPE  H10S19496   4.902  -0.032   7.577  1.9302  0.5964 -1.8638
  172SAPE  C21119497   4.832   0.157   7.631 -0.4409 -0.0950  0.2441
  172SAPE  H11R19498   4.792   0.251   7.590  1.1840  0.0295 -1.1851
  172SAPE  C21219499   4.840   0.153   7.764 -0.8727 -0.1495  0.2319
  172SAPE  H12R19500   4.822   0.245   7.822  1.1751 -0.3342  1.2181
  172SAPE  C21319501   4.897   0.044   7.843  0.0377 -0.8903  0.2659
  172SAPE  H13R19502   4.950  -0.033   7.781  0.1977 -0.3402 -0.2885
  172SAPE  H13S19503   4.809   0.001   7.895 -0.0719 -1.3322 -0.2715
  172SAPE  C21419504   4.995   0.088   7.953 -0.0464 -0.0731 -0.3574
  172SAPE  H14R19505   5.102   0.087   7.928 -0.5549  0.7478 -2.8938
  172SAPE  C21519506   4.958   0.159   8.066  0.6455 -0.8358 -0.1993
  172SAPE  H15R19507   5.035   0.184   8.141  0.2219  1.0937 -0.3531
  172SAPE  C21619508   4.817   0.205   8.110 -0.2671 -0.2722  0.2536
  172SAPE  H16R19509   4.738   0.141   8.066  0.2399  1.2655 -3.2546
  172SAPE  H16S19510   4.803   0.303   8.060  0.5192 -0.7806 -1.0375
  172SAPE  C21719511   4.785   0.220   8.262 -0.3535 -0.1159 -0.2561
  172SAPE  H17R19512   4.857   0.294   8.304 -0.4546 -0.2758  0.2026
  172SAPE  H17S19513   4.788   0.118   8.306 -1.6011 -0.1472 -0.2078
  172SAPE  C21819514   4.644   0.284   8.279  0.1333  0.1013 -0.5234
  172SAPE  H18R19515   4.564   0.222   8.232  0.4676  0.7566 -2.0049
  172SAPE  H18S19516   4.644   0.383   8.229  0.9891  0.9905  1.1653
  172SAPE  C21919517   4.598   0.336   8.424 -0.5760  1.1608 -0.1330
  172SAPE  H19R19518   4.492   0.364   8.405 -1.0485 -1.1064 -1.1568
  172SAPE  H19S19519   4.656   0.425   8.457  0.2056  0.3918  0.6215
  172SAPE  C22019520   4.604   0.238   8.546 -0.3465 -0.6426  0.2037
  172SAPE  H20R19521   4.512   0.175   8.540 -0.1548 -0.7713 -2.3642
  172SAPE  H20S19522   4.599   0.297   8.640 -0.5233 -0.8303  0.3150
  172SAPE  H20T19523   4.699   0.182   8.532 -0.7729 -1.3591  0.1509
  172SAPE   C3319524   5.334   0.441   7.022  0.0846 -0.0939 -0.0306
  172SAPE   H3X19525   5.320   0.353   6.954 -0.1834 -0.6437  0.7203
  172SAPE   H3Y19526   5.237   0.489   7.046  0.7215  1.0298  0.3471
  172SAPE   C3419527   5.409   0.400   7.146  0.0578  1.0929 -0.7724
  172SAPE   H4X19528   5.419   0.479   7.224 -3.1399  0.0183  0.9145
  172SAPE   H4Y19529   5.511   0.372   7.111 -0.3749  0.1159 -1.2908
  172SAPE   C3519530   5.331   0.287   7.206  0.0862 -0.2072 -1.4438
  172SAPE   H5X19531   5.328   0.197   7.141 -0.1837 -0.4308 -1.1335
  172SAPE   H5Y19532   5.228   0.327   7.193  0.2289  0.8693  0.3664
  172SAPE   C3619533   5.361   0.268   7.355  0.3945  0.2886 -0.7651
  172SAPE   H6X19534   5.334   0.363   7.405 -2.0008 -1.2590  1.1369
  172SAPE   H6Y19535   5.469   0.242   7.366  0.1028 -0.6129  0.1901
  172SAPE   C3719536   5.263   0.159   7.421 -0.0424 -0.2717  0.5123
  172SAPE   H7X19537   5.249   0.069   7.357  1.3728 -0.7073  0.7846
  172SAPE   H7Y19538   5.160   0.200   7.419  0.0964  0.0590 -0.6631
  172SAPE   C3819539   5.285   0.128   7.569  0.1877 -0.5847  0.2774
  172SAPE   H8X19540   5.363   0.050   7.577 -0.5883 -1.5523 -1.2736
  172SAPE   H8Y19541   5.193   0.082   7.611 -0.8985 -0.0502 -1.4046
  172SAPE   C3919542   5.334   0.254   7.645 -0.1368  0.2427 -0.0030
  172SAPE   H9X19543   5.280   0.347   7.618 -2.6239 -1.5667 -1.7441
  172SAPE   H9Y19544   5.443   0.267   7.631  0.3638 -1.5440  1.7348
  172SAPE  C31019545   5.311   0.257   7.798  0.4930 -0.7449 -0.1575
  172SAPE  H10X19546   5.289   0.154   7.833 -1.5019 -0.4046 -0.3443
  172SAPE  H10Y19547   5.217   0.314   7.812  1.6316  1.1131  0.3207
  172SAPE  C31119548   5.427   0.325   7.880  0.5111 -0.5977  0.3106
  172SAPE  H11X19549   5.419   0.435   7.867 -1.1397 -0.9412 -2.1940
  172SAPE  H11Y19550   5.527   0.304   7.836  0.4759 -0.2300  0.0459
  172SAPE  C31219551   5.432   0.279   8.022 -0.5946 -0.1999 -0.6746
  172SAPE  H12X19552   5.522   0.332   8.061 -0.4190 -0.3927 -0.8132
  172SAPE  H12Y19553   5.456   0.171   8.013  0.9463  0.1331 -1.0009
  172SAPE  C31319554   5.310   0.317   8.105  0.7332  0.3282 -0.3069
  172SAPE  H13X19555   5.224   0.255   8.072  0.9030 -0.1436  0.1056
  172SAPE  H13Y19556   5.292   0.423   8.077  2.1896 -0.1067 -3.2540
  172SAPE  C31419557   5.323   0.310   8.264 -0.0639  0.4931  1.1699
  172SAPE  H14X19558   5.238   0.359   8.315 -0.3047  0.1703  1.0765
  172SAPE  H14Y19559   5.418   0.364   8.282  0.0693  0.2068  1.3310
  172SAPE  C31519560   5.324   0.164   8.307  0.5729 -0.2033  0.0159
  172SAPE  H15X19561   5.419   0.111   8.284  0.2566 -0.6626 -0.2605
  172SAPE  H15Y19562   5.240   0.111   8.258  2.8418 -1.2712 -3.0204
  172SAPE  C31619563   5.310   0.141   8.463  0.1733 -0.1761  0.2345
  172SAPE  H16X19564   5.372   0.213   8.519 -0.6088  0.9397 -0.2964
  172SAPE  H16Y19565   5.338   0.039   8.497  0.2477 -0.3537 -0.3541
  172SAPE  C31719566   5.172   0.170   8.520 -0.0976 -0.3259 -0.3865
  172SAPE  H17X19567   5.139   0.271   8.486  0.5729  1.1786  3.0372
  172SAPE  H17Y19568   5.179   0.174   8.631 -1.0840 -3.2283 -0.1209
  172SAPE  C31819569   5.069   0.060   8.471 -0.2702 -0.4416 -0.1377
  172SAPE  H18X19570   5.112  -0.043   8.472  0.0732 -0.3053  1.4127
  172SAPE  H18Y19571   5.029   0.078   8.369 -0.2007  1.4565  0.1260
  172SAPE  H18Z19572   4.990   0.045   8.547 -0.2568 -2.2760 -0.4327
  173SOPE     N19573   3.986   0.676  11.018 -0.4696  0.0730 -0.0467
  173SOPE   HN119574   4.053   0.621  10.960  0.5444  1.2527 -0.0342
  173SOPE   HN219575   3.977   0.634  11.112 -1.4081  0.9455  0.2843
  173SOPE   HN319576   3.890   0.671  10.978 -0.5161  0.6363 -0.0175
  173SOPE   C1219577   4.041   0.815  11.004 -0.1483  0.7266  0.2177
  173SOPE  H12A19578   4.098   0.834  11.098  1.2532 -0.1990 -0.4107
  173SOPE  H12B19579   3.958   0.887  11.017 -0.5439  0.5352 -1.0801
  173SOPE   C1119580   4.146   0.818  10.892 -0.5961  0.5002 -0.8035
  173SOPE  H11A19581   4.198   0.915  10.899  2.3870 -1.0519 -0.1092
  173SOPE  H11B19582   4.100   0.807  10.791  0.9043  1.4168 -1.6291
  173SOPE     P19583   4.393   0.716  10.946 -0.0440 -0.0300  0.1339
  173SOPE   O1319584   4.422   0.577  10.987  0.4726  0.2155  0.1964
  173SOPE   O1419585   4.414   0.825  11.042  0.1447  0.2885 -0.9490
  173SOPE   O1219586   4.242   0.716  10.914 -0.4840 -0.1661 -0.3083
  173SOPE   O1119587   4.450   0.751  10.805 -0.0846 -0.7191 -0.0649
  173SOPE    C119588   4.398   0.700  10.685 -0.4349 -0.6097  0.4213
  173SOPE    HA19589   4.287   0.709  10.692 -0.5362 -2.3954  2.1930
  173SOPE    HB19590   4.422   0.591  10.685  2.6212 -0.0306  1.3485
  173SOPE    C219591   4.450   0.793  10.565 -0.1765 -0.5642 -0.7264
  173SOPE    HS19592   4.391   0.753  10.480 -3.8372  1.0262  0.8591
  173SOPE   O2119593   4.591   0.785  10.533 -0.0657 -0.0770  0.1120
  173SOPE   C2119594   4.637   0.655  10.498  0.2628 -0.6435  0.2961
  173SOPE   O2219595   4.562   0.559  10.475 -0.6364  0.5248 -0.4794
  173SOPE   C2219596   4.790   0.665  10.490  0.4424  0.0776  0.6432
  173SOPE   H2R19597   4.833   0.628  10.586 -1.0068  0.5156  1.5131
  173SOPE   H2S19598   4.811   0.773  10.474  3.1040 -0.5570 -0.6236
  173SOPE    C319599   4.416   0.940  10.588  0.3290 -0.1523 -0.0868
  173SOPE    HX19600   4.457   0.970  10.687 -1.3658 -1.0479  0.9470
  173SOPE    HY19601   4.311   0.947  10.622  0.1724  1.5592 -0.8617
  173SOPE   O3119602   4.437   1.029  10.479 -0.2731  0.4093  0.6403
  173SOPE   C3119603   4.551   1.092  10.473  0.3901  0.1855 -0.2929
  173SOPE   O3219604   4.640   1.086  10.555 -0.3480 -0.0040  0.3553
  173SOPE   C3219605   4.563   1.154  10.330 -0.6723  0.2609  0.8486
  173SOPE   H2X19606   4.647   1.226  10.321  0.7070 -1.4953 -1.3885
  173SOPE   H2Y19607   4.470   1.213  10.315 -0.9400 -0.1674  0.8051
  173SOPE   C2319608   4.839   0.601  10.359  0.4385 -0.4868  0.6754
  173SOPE   H3R19609   4.786   0.505  10.343 -1.5393  0.6528 -0.0020
  173SOPE   H3S19610   4.944   0.570  10.378  0.1061 -0.3842  3.0236
  173SOPE   C2419611   4.836   0.692  10.241  0.3694  0.3338  0.4426
  173SOPE   H4R19612   4.737   0.741  10.228  0.0063 -0.4007  0.4251
  173SOPE   H4S19613   4.924   0.760  10.249  1.4155 -0.9562  0.1785
  173SOPE   C2519614   4.865   0.603  10.120  0.0038 -0.0966  0.4316
  173SOPE   H5R19615   4.963   0.555  10.139  0.1646 -0.5853 -1.4225
  173SOPE   H5S19616   4.788   0.525  10.102 -1.0662  0.6906  1.4495
  173SOPE   C2619617   4.884   0.679   9.989 -0.1629  0.3423  1.2161
  173SOPE   H6R19618   4.787   0.725   9.961  0.0579 -0.0256 -0.2403
  173SOPE   H6S19619   4.959   0.760   9.998 -0.4623  1.7398 -4.8339
  173SOPE   C2719620   4.925   0.591   9.868  0.0561 -0.0877 -0.0231
  173SOPE   H7R19621   5.034   0.573   9.874  0.4531  1.9772 -0.2320
  173SOPE   H7S19622   4.865   0.498   9.859  1.7251 -1.2413  0.4737
  173SOPE   C2819623   4.891   0.667   9.736 -0.7754 -0.0755 -0.6334
  173SOPE   H8R19624   4.790   0.713   9.734 -1.4057 -1.4391 -0.8170
  173SOPE   H8S19625   4.965   0.750   9.731 -0.8154  0.0627  0.7798
  173SOPE   C2919626   4.909   0.592   9.611  0.1067  0.3267 -0.5737
  173SOPE   H9119627   4.898   0.484   9.624  2.6711 -0.0005 -0.4851
  173SOPE  C21019628   4.925   0.641   9.489 -0.7093  0.4634 -0.1863
  173SOPE  H10119629   4.929   0.572   9.403  2.5750  1.1495 -0.7276
  173SOPE  C21119630   4.942   0.785   9.453  0.5825 -0.6340  0.3904
  173SOPE  H11R19631   5.047   0.817   9.467  0.2850  0.0657  1.1236
  173SOPE  H11S19632   4.886   0.853   9.521  0.1149 -0.1506 -0.4612
  173SOPE  C21219633   4.897   0.819   9.315  0.3171 -0.3768 -0.5632
  173SOPE  H12R19634   4.957   0.756   9.246  2.3117  0.5608  0.2296
  173SOPE  H12S19635   4.914   0.924   9.284 -2.0461  0.3557  0.3654
  173SOPE  C21319636   4.751   0.790   9.281  0.1555 -0.2161 -0.1141
  173SOPE  H13R19637   4.683   0.872   9.315 -1.5676 -1.9987  1.0130
  173SOPE  H13S19638   4.714   0.710   9.350 -3.4144  0.2202 -1.2784
  173SOPE  C21419639   4.721   0.748   9.134 -0.9497  0.2791 -0.3440
  173SOPE  H14R19640   4.773   0.651   9.122 -2.2332 -0.4916  0.2164
  173SOPE  H14S19641   4.760   0.822   9.061  1.2434 -0.7983 -0.3511
  173SOPE  C21519642   4.579   0.711   9.104 -0.7310 -0.4762 -0.0415
  173SOPE  H15R19643   4.509   0.783   9.151 -2.1786 -1.5189 -0.5263
  173SOPE  H15S19644   4.560   0.611   9.149  0.7728 -0.4405  0.7046
  173SOPE  C21619645   4.547   0.691   8.953  0.6108  0.1692 -0.6050
  173SOPE  H16R19646   4.612   0.604   8.928  0.4445 -0.4151  0.8759
  173SOPE  H16S19647   4.586   0.773   8.890 -2.0638  1.6633 -0.4711
  173SOPE  C21719648   4.395   0.673   8.925  0.1328  0.0218 -0.4630
  173SOPE  H17R19649   4.349   0.772   8.902  0.5699 -0.0352 -1.6074
  173SOPE  H17S19650   4.345   0.630   9.014 -1.8952  0.1758 -1.4737
  173SOPE  C21819651   4.362   0.600   8.798  0.7645  0.2286  0.0321
  173SOPE  H18R19652   4.378   0.490   8.805 -1.0820 -0.0055  1.1554
  173SOPE  H18S19653   4.426   0.637   8.715 -1.0771  2.2627 -0.5769
  173SOPE  H18T19654   4.258   0.615   8.761  0.5140  1.3755  1.1331
  173SOPE   C3319655   4.587   1.036  10.229 -0.4173 -0.3593  0.4286
  173SOPE   H3X19656   4.496   0.975  10.210 -1.0622  1.0343 -1.2405
  173SOPE   H3Y19657   4.662   0.973  10.280  0.0108  1.1989  1.8206
  173SOPE   C3419658   4.651   1.084  10.098 -0.3179  0.0378  1.2828
  173SOPE   H4X19659   4.751   1.130  10.116 -0.4780  1.1957 -0.4838
  173SOPE   H4Y19660   4.586   1.160  10.049  0.1127  0.8974  2.0090
  173SOPE   C3519661   4.681   0.965  10.012  0.1222 -0.4097  0.5743
  173SOPE   H5X19662   4.598   0.891  10.013  0.4949 -0.8334  0.9131
  173SOPE   H5Y19663   4.770   0.915  10.056  0.4367  0.0749  0.4935
  173SOPE   C3619664   4.720   0.995   9.869 -0.5720 -0.4024 -0.4088
  173SOPE   H6X19665   4.755   0.899   9.826 -1.3811 -1.5278  1.3322
  173SOPE   H6Y19666   4.803   1.068   9.861 -1.3986  0.3972 -2.1597
  173SOPE   C3719667   4.611   1.069   9.782  0.1873  0.0887 -1.0971
  173SOPE   H7X19668   4.584   1.168   9.825 -0.0574 -0.5044  0.1717
  173SOPE   H7Y19669   4.522   1.003   9.793 -0.2441  0.6510 -1.1647
  173SOPE   C3819670   4.644   1.100   9.636 -0.4081 -0.1554 -0.6079
  173SOPE   H8X19671   4.559   1.160   9.598  0.4655 -0.7905 -3.9361
  173SOPE   H8Y19672   4.664   1.006   9.581 -1.3023 -0.3733 -0.5790
  173SOPE   C3919673   4.765   1.184   9.609 -0.1613  1.2444  0.0064
  173SOPE   H9X19674   4.855   1.122   9.627 -0.7727  0.6091  0.9643
  173SOPE   H9Y19675   4.759   1.263   9.687 -0.2384  0.0603  1.2478
  173SOPE  C31019676   4.772   1.248   9.469 -0.2569  0.5924  0.0677
  173SOPE  H10X19677   4.820   1.348   9.479 -0.7931  1.3074 -3.2498
  173SOPE  H10Y19678   4.666   1.273   9.447 -1.0145 -0.3430  2.3382
  173SOPE  C31119679   4.842   1.163   9.353  0.4331 -0.2106  0.0118
  173SOPE  H11X19680   4.785   1.067   9.355 -0.6492  0.4083  2.2200
  173SOPE  H11Y19681   4.945   1.134   9.385  0.3998 -3.0097 -2.0629
  173SOPE  C31219682   4.851   1.232   9.215 -0.0719  0.1652  0.2027
  173SOPE  H12X19683   4.915   1.164   9.155  1.9342 -0.1996  2.5439
  173SOPE  H12Y19684   4.901   1.331   9.224  0.1278  0.4479 -2.9310
  173SOPE  C31319685   4.718   1.264   9.146 -0.1322 -0.3242  0.5092
  173SOPE  H13X19686   4.732   1.331   9.057 -1.5520 -1.5351 -0.6753
  173SOPE  H13Y19687   4.649   1.319   9.214 -1.3272  1.7225 -2.1612
  173SOPE  C31419688   4.638   1.143   9.104  0.1184  0.3082  0.4739
  173SOPE  H14X19689   4.600   1.088   9.193 -0.8878  2.4697  1.4616
  173SOPE  H14Y19690   4.703   1.071   9.051  0.0878  1.6010 -1.4102
  173SOPE  C31519691   4.512   1.173   9.019  0.7950  0.7543 -0.3360
  173SOPE  H15X19692   4.543   1.220   8.923 -2.6110  2.9340 -0.5386
  173SOPE  H15Y19693   4.444   1.248   9.065  0.8872  1.1482 -0.8198
  173SOPE  C31619694   4.420   1.051   8.985  0.6846  0.5156  0.2277
  173SOPE  H16X19695   4.373   0.999   9.071  1.0572 -0.9475 -0.4168
  173SOPE  H16Y19696   4.489   0.975   8.941 -1.5535 -0.8314 -1.1798
  173SOPE  C31719697   4.316   1.075   8.875  0.0462 -0.3628  0.0531
  173SOPE  H17X19698   4.275   0.977   8.844 -1.0315 -0.0127  0.3063
  173SOPE  H17Y19699   4.367   1.123   8.789  0.5918 -0.3154  0.3973
  173SOPE  C31819700   4.199   1.165   8.930 -0.8903  0.0285 -0.1940
  173SOPE  H18X19701   4.259   1.244   8.981 -0.9592 -0.7452  1.1238
  173SOPE  H18Y19702   4.139   1.101   8.998  0.3950 -1.3226 -0.2860
  173SOPE  H18Z19703   4.139   1.203   8.845 -0.4088 -1.0414 -1.0404
  174SOPE     N19704   5.884   5.711  10.971 -0.7634 -0.1172 -0.2248
  174SOPE   HN119705   5.937   5.794  11.005 -0.9294  0.7395 -1.9266
  174SOPE   HN219706   5.854   5.664  11.058  3.9071 -0.1961  1.6416
  174SOPE   HN319707   5.954   5.648  10.928  0.0573 -0.6783  1.8380
  174SOPE   C1219708   5.780   5.748  10.875  0.2815  0.3204  0.1932
  174SOPE  H12A19709   5.702   5.800  10.936 -0.8194 -1.9017  0.7892
  174SOPE  H12B19710   5.739   5.656  10.830  3.4863 -1.4357  0.5817
  174SOPE   C1119711   5.826   5.849  10.768 -0.0925  0.0816 -0.6245
  174SOPE  H11A19712   5.757   5.849  10.681  0.7773  1.0997 -1.3371
  174SOPE  H11B19713   5.924   5.814  10.730  1.1297  2.2948  0.3211
  174SOPE     P19714   5.737   6.083  10.809 -0.2898  0.1780 -0.3258
  174SOPE   O1319715   5.779   6.203  10.890 -0.0446  1.3782  0.1314
  174SOPE   O1419716   5.599   6.032  10.828 -0.1795  0.5468 -0.1659
  174SOPE   O1219717   5.849   5.977  10.828  0.0384  0.0147  0.0096
  174SOPE   O1119718   5.755   6.118  10.657 -0.6769  0.2602  0.2649
  174SOPE    C119719   5.876   6.163  10.596 -0.3931  0.5408 -0.2668
  174SOPE    HA19720   5.944   6.077  10.582 -0.7407  0.1406  0.4802
  174SOPE    HB19721   5.933   6.239  10.654 -1.2887  0.2202  1.0785
  174SOPE    C219722   5.859   6.237  10.457  0.7298  0.0480 -0.4062
  174SOPE    HS19723   5.965   6.259  10.431  1.4385  0.3761  2.4596
  174SOPE   O2119724   5.772   6.355  10.466  0.1546  0.3724  0.5206
  174SOPE   C2119725   5.843   6.470  10.439 -1.1694  0.3714 -0.4075
  174SOPE   O2219726   5.963   6.479  10.410  0.4837  0.3084  0.3333
  174SOPE   C2219727   5.741   6.581  10.429 -0.3176 -0.5888 -0.0829
  174SOPE   H2R19728   5.748   6.639  10.524  2.5562 -0.7525 -0.1105
  174SOPE   H2S19729   5.638   6.541  10.426 -0.7857  0.3844  1.6324
  174SOPE    C319730   5.799   6.147  10.342 -0.6538 -0.9019 -0.4243
  174SOPE    HX19731   5.690   6.130  10.355 -0.7370  0.4867  1.1031
  174SOPE    HY19732   5.841   6.045  10.358 -1.1986 -0.8630  1.5737
  174SOPE   O3119733   5.825   6.204  10.213  0.1231 -0.4777  0.8415
  174SOPE   C3119734   5.949   6.168  10.171 -0.7467  0.2521 -0.2655
  174SOPE   O3219735   6.023   6.092  10.229 -0.5220 -0.0367  0.2309
  174SOPE   C3219736   5.978   6.235  10.033  0.0095  0.0288  0.2774
  174SOPE   H2X19737   6.082   6.274  10.030 -0.5472  1.5483 -0.6101
  174SOPE   H2Y19738   5.905   6.319  10.028 -1.4319 -1.2596 -2.0269
  174SOPE   C2319739   5.756   6.683  10.310  0.0945  0.2200  0.4610
  174SOPE   H3R19740   5.858   6.726  10.311  1.9695 -3.7349  0.1955
  174SOPE   H3S19741   5.675   6.759  10.305 -0.8470 -0.7931 -0.3635
  174SOPE   C2419742   5.745   6.606  10.178 -0.2565 -0.2014  0.9007
  174SOPE   H4R19743   5.789   6.504  10.190  0.5618 -0.2352 -1.8281
  174SOPE   H4S19744   5.637   6.593  10.158  0.2706 -1.3998 -1.5030
  174SOPE   C2519745   5.812   6.668  10.062 -1.3174  0.4179 -0.0070
  174SOPE   H5R19746   5.776   6.774  10.069 -2.7757  0.1689 -2.4910
  174SOPE   H5S19747   5.922   6.669  10.074 -1.3076 -2.5107  0.8096
  174SOPE   C2619748   5.785   6.607   9.924 -0.9325  0.5206 -0.5573
  174SOPE   H6R19749   5.804   6.497   9.917  1.3539  0.7927  0.4610
  174SOPE   H6S19750   5.680   6.620   9.892 -1.4561  0.6166  1.1244
  174SOPE   C2719751   5.885   6.674   9.823 -0.0390  0.0189 -0.0402
  174SOPE   H7R19752   5.832   6.757   9.772 -0.4754 -0.1886  0.0713
  174SOPE   H7S19753   5.970   6.714   9.882 -1.5248 -1.1344  3.1356
  174SOPE   C2819754   5.959   6.570   9.731 -0.1703 -0.1560 -0.6196
  174SOPE   H8R19755   6.038   6.517   9.788 -0.2489  1.8882  1.5441
  174SOPE   H8S19756   5.883   6.497   9.694 -0.7475 -0.0580  0.3352
  174SOPE   C2919757   6.030   6.636   9.617  0.2403  0.1547  0.3551
  174SOPE   H9119758   6.114   6.702   9.642  0.2159  0.5043 -0.4604
  174SOPE  C21019759   6.001   6.638   9.483  0.5894 -0.2372  0.0192
  174SOPE  H10119760   6.047   6.710   9.413 -1.2805  0.5690 -0.4434
  174SOPE  C21119761   5.887   6.556   9.422 -0.1751 -0.5146 -0.2385
  174SOPE  H11R19762   5.827   6.626   9.360  2.8988  0.7727 -2.0133
  174SOPE  H11S19763   5.819   6.520   9.502 -2.1612  1.1299 -1.0923
  174SOPE  C21219764   5.941   6.445   9.331  0.4539 -0.1329 -0.4514
  174SOPE  H12R19765   5.864   6.371   9.299  0.1046 -0.4368  1.0218
  174SOPE  H12S19766   6.010   6.381   9.390  0.0045  0.4398  0.7313
  174SOPE  C21319767   6.010   6.503   9.210  0.2166  0.3055  0.5910
  174SOPE  H13R19768   6.048   6.422   9.144 -0.8459  0.4207 -0.1974
  174SOPE  H13S19769   6.101   6.558   9.241  0.4850  0.6931 -0.8309
  174SOPE  C21419770   5.934   6.592   9.113 -0.1274 -0.7224  0.2244
  174SOPE  H14R19771   5.936   6.692   9.160 -0.1070 -0.2762 -0.7027
  174SOPE  H14S19772   5.839   6.538   9.093  0.7433 -1.9464 -0.8477
  174SOPE  C21519773   6.009   6.606   8.986 -0.2480  0.2664  0.4693
  174SOPE  H15R19774   6.001   6.514   8.925  0.3315  0.7363 -0.3239
  174SOPE  H15S19775   6.119   6.619   8.992 -0.2379  1.4133 -1.4570
  174SOPE  C21619776   5.961   6.722   8.895  0.1172  0.0681 -0.4723
  174SOPE  H16R19777   5.957   6.819   8.949 -2.6462  1.9264 -3.6613
  174SOPE  H16S19778   5.856   6.707   8.862 -0.2058  0.6791  0.2482
  174SOPE  C21719779   6.051   6.724   8.776 -0.6291 -0.5184 -0.1234
  174SOPE  H17R19780   6.026   6.632   8.719 -2.9325  0.0310 -0.1300
  174SOPE  H17S19781   6.157   6.732   8.808 -0.9658 -0.0523  0.8969
  174SOPE  C21819782   6.033   6.848   8.689 -0.3828  0.0358 -0.1326
  174SOPE  H18R19783   6.053   6.821   8.583 -2.4365  0.6431 -0.7208
  174SOPE  H18S19784   6.087   6.944   8.707  1.2576 -0.6560 -1.1949
  174SOPE  H18T19785   5.927   6.878   8.703 -0.2666  0.4212 -0.0562
  174SOPE   C3319786   5.951   6.133   9.924 -0.0554 -0.3700  0.7617
  174SOPE   H3X19787   5.841   6.144   9.909  0.2101  3.3781  0.8518
  174SOPE   H3Y19788   5.960   6.026   9.956  1.9484 -0.9443 -1.5065
  174SOPE   C3419789   6.007   6.166   9.790  0.1085 -0.0292  0.3505
  174SOPE   H4X19790   6.118   6.172   9.797  0.0440  1.7241  0.1665
  174SOPE   H4Y19791   5.976   6.266   9.755  0.1082 -0.2680 -0.3581
  174SOPE   C3519792   5.969   6.067   9.680  0.4221 -0.0689 -0.1746
  174SOPE   H5X19793   5.861   6.041   9.687  0.9770 -3.0492 -1.3467
  174SOPE   H5Y19794   6.022   5.973   9.703  1.7581  1.0001  1.2937
  174SOPE   C3619795   6.020   6.102   9.539 -0.3939 -0.3675 -0.0356
  174SOPE   H6X19796   6.124   6.138   9.545 -0.3589 -0.5779  0.6268
  174SOPE   H6Y19797   5.961   6.192   9.509  1.5788  1.0825  0.2153
  174SOPE   C3719798   6.015   5.988   9.440  0.4150 -0.2694  0.3493
  174SOPE   H7X19799   5.909   5.970   9.412  1.0076 -2.9751 -0.4316
  174SOPE   H7Y19800   6.063   5.894   9.473  1.5536  0.4399  0.7721
  174SOPE   C3819801   6.081   6.029   9.311  0.0576  0.3237  0.0541
  174SOPE   H8X19802   6.189   6.026   9.337 -0.0933  4.0305  1.6984
  174SOPE   H8Y19803   6.059   6.133   9.280 -1.7828  0.5223  1.7929
  174SOPE   C3919804   6.044   5.952   9.186 -0.7634 -0.7333 -0.3929
  174SOPE   H9X19805   6.115   5.992   9.109 -1.2153  0.5004 -0.1950
  174SOPE   H9Y19806   5.939   5.981   9.167 -0.8018  0.2034  1.0803
  174SOPE  C31019807   6.070   5.801   9.196 -0.1110 -0.0299  0.2257
  174SOPE  H10X19808   6.012   5.756   9.279 -0.1889 -0.0816  0.1439
  174SOPE  H10Y19809   6.176   5.777   9.215  0.3522  0.8798 -1.0683
  174SOPE  C31119810   6.044   5.720   9.073  0.6233  0.1607 -0.3199
  174SOPE  H11X19811   6.034   5.610   9.087 -1.4944  0.6343  3.1973
  174SOPE  H11Y19812   6.131   5.735   9.005  0.9890 -0.6809 -0.0494
  174SOPE  C31219813   5.906   5.753   9.002  0.0736  0.6177  0.4408
  174SOPE  H12X19814   5.912   5.862   8.979  0.9775  0.2877 -1.0250
  174SOPE  H12Y19815   5.839   5.729   9.087 -1.1437  1.4145 -0.2649
  174SOPE  C31319816   5.862   5.666   8.884  0.0134 -0.2213 -0.1517
  174SOPE  H13X19817   5.871   5.563   8.926  1.1146  0.1120  0.4662
  174SOPE  H13Y19818   5.922   5.669   8.791 -1.3859  0.3402 -1.0575
  174SOPE  C31419819   5.721   5.680   8.832  0.6229  0.3149 -0.1187
  174SOPE  H14X19820   5.703   5.789   8.815  2.1853  0.3062 -2.3781
  174SOPE  H14Y19821   5.656   5.633   8.909  1.6001 -1.4064 -0.2982
  174SOPE  C31519822   5.700   5.606   8.702 -0.6095 -0.1251  0.1449
  174SOPE  H15X19823   5.705   5.497   8.719  0.7636  0.0022  0.7280
  174SOPE  H15Y19824   5.790   5.630   8.641 -0.1122  1.2725  1.3657
  174SOPE  C31619825   5.585   5.654   8.616 -0.5663 -0.5913 -0.7976
  174SOPE  H16X19826   5.539   5.752   8.638  1.1094  0.6594 -2.5472
  174SOPE  H16Y19827   5.508   5.574   8.625 -2.1114  0.6937 -2.0825
  174SOPE  C31719828   5.619   5.670   8.468  0.0073  0.4319  0.2440
  174SOPE  H17X19829   5.659   5.575   8.425 -0.3335  0.0854  0.6834
  174SOPE  H17Y19830   5.700   5.744   8.450  0.3241  0.3082  1.1488
  174SOPE  C31819831   5.502   5.718   8.376  0.5659 -0.1502  0.4509
  174SOPE  H18X19832   5.461   5.814   8.414  0.0628 -0.3884  0.5345
  174SOPE  H18Y19833   5.427   5.636   8.371  2.3069 -1.8806  1.4445
  174SOPE  H18Z19834   5.522   5.735   8.268  0.5925 -1.0466  0.3058
  175SOPE     N19835   0.454   0.111  11.126  0.4702 -0.6098 -0.2086
  175SOPE   HN119836   0.469   0.085  11.225 -2.2250  3.3412  1.5074
  175SOPE   HN219837   0.487   0.210  11.118  0.2144 -0.5214 -0.1699
  175SOPE   HN319838   0.353   0.123  11.107  0.5828 -1.5359 -1.5307
  175SOPE   C1219839   0.512   0.015  11.031  0.2731  0.3010 -0.4606
  175SOPE  H12A19840   0.461  -0.083  11.043 -0.2832  0.5978 -0.3627
  175SOPE  H12B19841   0.619   0.007  11.057  0.1905 -0.5097 -0.3473
  175SOPE   C1119842   0.501   0.074  10.890  0.2163  0.4726  0.6504
  175SOPE  H11A19843   0.396   0.096  10.861  0.4545  1.6360  0.6141
  175SOPE  H11B19844   0.538   0.001  10.816 -0.2203  0.1586  0.7375
  175SOPE     P19845   0.719   0.231  10.847 -0.0689  0.0752 -0.2033
  175SOPE   O1319846   0.800   0.164  10.946  0.3115  0.1316  0.4926
  175SOPE   O1419847   0.734   0.379  10.839  0.4567 -0.0818  0.3703
  175SOPE   O1219848   0.568   0.204  10.887 -0.6064  0.5182 -0.0562
  175SOPE   O1119849   0.737   0.160  10.714 -0.0932  0.1663  0.0659
  175SOPE    C119850   0.675   0.216  10.595 -0.1653  0.1727  0.4117
  175SOPE    HA19851   0.702   0.322  10.578  3.4183 -0.5557  0.7773
  175SOPE    HB19852   0.564   0.206  10.601 -0.5971  3.7694  0.6733
  175SOPE    C219853   0.728   0.144  10.471  0.1734  0.2919  0.5604
  175SOPE    HS19854   0.675   0.187  10.383 -0.4815  1.0222  1.3029
  175SOPE   O2119855   0.705   0.003  10.482 -0.4255  0.0504 -0.4103
  175SOPE   C2119856   0.586  -0.030  10.455  0.4782 -0.5755  0.8670
  175SOPE   O2219857   0.496   0.042  10.414 -0.1572 -0.1625 -0.6122
  175SOPE   C2219858   0.574  -0.181  10.472 -0.7096  0.0192  0.3836
  175SOPE   H2R19859   0.603  -0.200  10.577 -0.5104 -0.0732  0.3120
  175SOPE   H2S19860   0.660  -0.217  10.412 -0.8297  0.4226 -0.0411
  175SOPE    C319861   0.877   0.172  10.449 -0.3674 -0.0920  0.5745
  175SOPE    HX19862   0.943   0.129  10.527  1.1327  3.6830  1.6024
  175SOPE    HY19863   0.909   0.277  10.462  3.1507 -0.8782 -0.5693
  175SOPE   O3119864   0.909   0.139  10.316 -0.0459  0.2383 -0.3278
  175SOPE   C3119865   0.980   0.030  10.282  0.3097 -0.0497  0.0544
  175SOPE   O3219866   1.040  -0.046  10.356 -0.0996 -0.3153 -0.6055
  175SOPE   C3219867   0.980   0.020  10.132  0.0674 -0.3837 -0.5726
  175SOPE   H2X19868   1.059   0.091  10.099  0.6399 -1.5902 -1.9040
  175SOPE   H2Y19869   0.883   0.055  10.092  0.0086 -0.3224 -0.3710
  175SOPE   C2319870   0.440  -0.237  10.419 -0.4187  0.1660 -0.1506
  175SOPE   H3R19871   0.449  -0.225  10.309  1.0840  0.8952  0.0337
  175SOPE   H3S19872   0.356  -0.170  10.448  1.9704  3.2266  0.1721
  175SOPE   C2419873   0.423  -0.382  10.446  0.3861  0.5461 -0.0468
  175SOPE   H4R19874   0.526  -0.423  10.436  0.5240  0.1927  2.2562
  175SOPE   H4S19875   0.395  -0.385  10.553 -1.2702 -2.2544 -0.4767
  175SOPE   C2519876   0.314  -0.450  10.367 -0.5168 -0.0188 -0.0907
  175SOPE   H5R19877   0.220  -0.392  10.374  0.8509  2.2628  0.2012
  175SOPE   H5S19878   0.330  -0.443  10.257 -1.0280 -0.1146 -0.1724
  175SOPE   C2619879   0.291  -0.597  10.403 -0.2371 -0.2006  0.5340
  175SOPE   H6R19880   0.380  -0.657  10.372 -1.6774 -1.1922 -1.9846
  175SOPE   H6S19881   0.292  -0.602  10.514 -1.9952 -1.0631  0.5379
  175SOPE   C2719882   0.156  -0.650  10.353 -0.3329  0.7796  0.6080
  175SOPE   H7R19883   0.140  -0.756  10.381  0.9638 -0.0801 -1.6811
  175SOPE   H7S19884   0.076  -0.580  10.387 -0.4724 -0.4586  3.0615
  175SOPE   C2819885   0.157  -0.667  10.196 -0.3231  0.5831 -0.4100
  175SOPE   H8R19886   0.186  -0.570  10.149 -1.1874  0.6781 -0.7644
  175SOPE   H8S19887   0.241  -0.736  10.177  0.9772  1.5805  1.4175
  175SOPE   C2919888   0.024  -0.710  10.139 -0.1176  0.0470 -0.4711
  175SOPE   H9119889  -0.032  -0.785  10.197 -3.4132  2.7954  0.2693
  175SOPE  C21019890  -0.025  -0.674  10.022  0.2643  0.0114 -0.2119
  175SOPE  H10119891  -0.124  -0.711   9.993  0.8280 -2.4666  0.7461
  175SOPE  C21119892   0.038  -0.586   9.912 -0.2945 -0.0503 -0.2888
  175SOPE  H11R19893   0.147  -0.573   9.927 -0.2382 -1.1345  0.3086
  175SOPE  H11S19894  -0.007  -0.484   9.920  0.2843  0.1019  1.3456
  175SOPE  C21219895   0.008  -0.639   9.769 -0.5077 -0.3255 -0.2277
  175SOPE  H12R19896  -0.103  -0.650   9.761 -0.7820  1.0436  1.3496
  175SOPE  H12S19897   0.054  -0.740   9.756 -1.8458 -0.7735 -1.9582
  175SOPE  C21319898   0.049  -0.550   9.649 -0.5776 -0.2170 -0.1891
  175SOPE  H13R19899   0.158  -0.530   9.654 -0.5590 -0.5858  1.6426
  175SOPE  H13S19900  -0.007  -0.454   9.655  1.5444  1.2263 -1.9041
  175SOPE  C21419901   0.018  -0.622   9.518  0.0921  0.3107  0.2734
  175SOPE  H14R19902  -0.091  -0.633   9.505  0.0461 -0.1510  0.9632
  175SOPE  H14S19903   0.054  -0.727   9.523 -2.1940 -0.4757  1.7839
  175SOPE  C21519904   0.075  -0.541   9.400 -0.9597 -0.4777  0.3614
  175SOPE  H15R19905   0.185  -0.530   9.413 -1.2496  0.7144  2.1965
  175SOPE  H15S19906   0.044  -0.434   9.401  0.4761  0.1076 -2.8289
  175SOPE  C21619907   0.044  -0.604   9.262  0.9151 -0.1953  0.5068
  175SOPE  H16R19908  -0.066  -0.618   9.253  0.6340  2.0048  0.0362
  175SOPE  H16S19909   0.095  -0.703   9.265  1.4676 -0.1903 -3.6215
  175SOPE  C21719910   0.096  -0.521   9.143  0.1240  0.2193  0.3700
  175SOPE  H17R19911   0.199  -0.498   9.178  0.5450 -0.2145 -0.5512
  175SOPE  H17S19912   0.035  -0.430   9.127 -0.5946 -0.7372 -3.1833
  175SOPE  C21819913   0.093  -0.598   9.010  0.3095 -0.0838 -0.1422
  175SOPE  H18R19914  -0.013  -0.617   8.985 -0.4433  2.3910  0.8373
  175SOPE  H18S19915   0.151  -0.693   9.004  0.8456  0.2168  0.1096
  175SOPE  H18T19916   0.135  -0.542   8.924  2.1218 -2.2432 -0.7564
  175SOPE   C3319917   1.013  -0.119  10.081 -0.4557  0.1292  0.2893
  175SOPE   H3X19918   1.034  -0.190  10.163 -2.0481  1.2304  1.7239
  175SOPE   H3Y19919   1.107  -0.109  10.022 -0.4985 -2.2557 -0.2688
  175SOPE   C3419920   0.892  -0.167   9.995  0.1357 -0.3534 -0.3679
  175SOPE   H4X19921   0.800  -0.149  10.054 -0.3313 -2.5187 -0.3741
  175SOPE   H4Y19922   0.894  -0.277   9.982  2.3605 -0.3241 -0.5543
  175SOPE   C3519923   0.884  -0.095   9.855  0.1076  0.5276 -0.2934
  175SOPE   H5X19924   0.899  -0.176   9.781 -0.7710 -0.1856  0.2882
  175SOPE   H5Y19925   0.969  -0.024   9.850  2.8556 -2.5017  0.2562
  175SOPE   C3619926   0.754  -0.014   9.831  0.3775 -1.1111  0.7649
  175SOPE   H6X19927   0.783   0.052   9.746 -0.8727  0.9533  1.8585
  175SOPE   H6Y19928   0.750   0.050   9.922 -1.9066 -1.5339  1.0238
  175SOPE   C3719929   0.636  -0.104   9.805 -0.1803  0.7683 -0.0685
  175SOPE   H7X19930   0.539  -0.054   9.823 -1.0085 -0.5820 -0.6289
  175SOPE   H7Y19931   0.641  -0.190   9.874  0.3126 -1.0949 -2.3015
  175SOPE   C3819932   0.634  -0.155   9.663 -0.3716  0.3789 -0.1801
  175SOPE   H8X19933   0.737  -0.168   9.624 -0.7990  0.3460 -1.3579
  175SOPE   H8Y19934   0.587  -0.078   9.597 -1.4468 -0.8113 -0.8370
  175SOPE   C3919935   0.562  -0.286   9.644 -0.2780 -0.5279  0.0186
  175SOPE   H9X19936   0.455  -0.282   9.673 -0.1387  0.0149  0.4646
  175SOPE   H9Y19937   0.620  -0.356   9.708  0.6016 -2.4150 -2.6447
  175SOPE  C31019938   0.564  -0.335   9.497 -0.0113 -0.2872 -0.5074
  175SOPE  H10X19939   0.497  -0.423   9.490 -0.9580  0.2779  0.9209
  175SOPE  H10Y19940   0.669  -0.363   9.470 -0.2914  0.1034 -2.1274
  175SOPE  C31119941   0.510  -0.221   9.404  0.4912 -0.1023  0.3981
  175SOPE  H11X19942   0.591  -0.145   9.398  0.7623 -0.4707 -1.0977
  175SOPE  H11Y19943   0.424  -0.167   9.449  1.9473  0.9026  2.0935
  175SOPE  C31219944   0.492  -0.268   9.257 -0.4173  0.7142 -0.3898
  175SOPE  H12X19945   0.474  -0.178   9.195 -2.3992 -0.9753 -2.4506
  175SOPE  H12Y19946   0.400  -0.329   9.248 -0.0415 -0.0050  0.4840
  175SOPE  C31319947   0.603  -0.364   9.210 -0.1864 -0.1574 -0.2180
  175SOPE  H13X19948   0.602  -0.467   9.250  0.7325 -1.0416 -2.3562
  175SOPE  H13Y19949   0.705  -0.328   9.236 -1.3199  1.6438  2.0924
  175SOPE  C31419950   0.600  -0.369   9.060 -0.0391 -0.3255  0.1226
  175SOPE  H14X19951   0.694  -0.406   9.014 -0.6424  0.5874 -1.9669
  175SOPE  H14Y19952   0.611  -0.263   9.029  3.0092  0.1320  2.2732
  175SOPE  C31519953   0.481  -0.431   8.979  1.0337 -0.7093  0.3760
  175SOPE  H15X19954   0.393  -0.365   8.958  1.6727 -0.3945 -1.5902
  175SOPE  H15Y19955   0.437  -0.509   9.044  1.4372 -0.3142  1.1347
  175SOPE  C31619956   0.529  -0.492   8.846 -0.1682 -0.2298  0.7808
  175SOPE  H16X19957   0.594  -0.579   8.869  0.9257  0.3354 -0.1162
  175SOPE  H16Y19958   0.601  -0.424   8.796  0.4457 -1.9683 -0.8024
  175SOPE  C31719959   0.425  -0.527   8.736  0.5399  0.2052  0.5538
  175SOPE  H17X19960   0.458  -0.501   8.633 -0.7003  1.1702  0.3698
  175SOPE  H17Y19961   0.331  -0.468   8.746  1.0435  0.9559  0.9430
  175SOPE  C31819962   0.404  -0.674   8.747 -0.2003  0.0687  0.5919
  175SOPE  H18X19963   0.373  -0.706   8.849  0.0629 -0.9009  0.3769
  175SOPE  H18Y19964   0.505  -0.710   8.717 -0.6381  0.2675 -1.2666
  175SOPE  H18Z19965   0.343  -0.712   8.662  1.6229 -0.4696 -0.5469
  176SOPE     N19966   6.157   0.156  10.994 -0.4988  0.9820  0.6560
  176SOPE   HN119967   6.089   0.125  10.921  0.9697 -0.8151 -0.0400
  176SOPE   HN219968   6.118   0.128  11.086 -1.0363 -0.0691  0.1217
  176SOPE   HN319969   6.164   0.260  10.997 -0.1945  1.0049 -0.4022
  176SOPE   C1219970   6.299   0.099  10.963 -0.4262 -0.0094 -0.1182
  176SOPE  H12A19971   6.330   0.131  10.861 -1.7329  2.5141  0.1913
  176SOPE  H12B19972   6.273  -0.008  10.964 -2.4894  0.4607  0.3286
  176SOPE   C1119973   6.403   0.161  11.067  0.3778 -0.1761 -0.5547
  176SOPE  H11A19974   6.498   0.104  11.073 -0.4667 -1.6486 -0.6991
  176SOPE  H11B19975   6.365   0.148  11.171  0.5955 -3.6754 -0.7988
  176SOPE     P19976   6.506   0.389  11.121  0.4241  0.0048  0.0992
  176SOPE   O1319977   6.597   0.305  11.200  0.0508 -0.1077  0.5223
  176SOPE   O1419978   6.416   0.476  11.200  0.2024 -0.0219  0.5750
  176SOPE   O1219979   6.421   0.299  11.035  0.5372  0.0527  0.4158
  176SOPE   O1119980   6.590   0.479  11.021  0.1511  0.4385 -0.7218
  176SOPE    C119981   6.644   0.417  10.899  0.3190 -0.1221 -0.3628
  176SOPE    HA19982   6.685   0.320  10.935  1.0681  0.9673  1.9061
  176SOPE    HB19983   6.725   0.480  10.856  1.0648  0.1429  1.3479
  176SOPE    C219984   6.542   0.401  10.786  0.4599 -0.1072 -0.4094
  176SOPE    HS19985   6.469   0.327  10.823  0.8820  0.2364  1.1984
  176SOPE   O2119986   6.604   0.349  10.669 -0.0457 -0.3825  0.0716
  176SOPE   C2119987   6.531   0.319  10.570  0.3129  0.1514 -0.9835
  176SOPE   O2219988   6.410   0.306  10.562  0.4479 -0.1829 -0.0617
  176SOPE   C2219989   6.628   0.286  10.450 -0.5056  0.1346 -0.2465
  176SOPE   H2R19990   6.597   0.182  10.424  1.1060 -0.2402 -0.7273
  176SOPE   H2S19991   6.730   0.299  10.492 -0.3739  2.4669 -1.1361
  176SOPE    C319992   6.476   0.536  10.743 -0.2031  0.2014  0.3445
  176SOPE    HX19993   6.429   0.566  10.838  1.4523  0.5871  1.0782
  176SOPE    HY19994   6.397   0.517  10.667  0.2636  0.3829 -0.1976
  176SOPE   O3119995   6.574   0.632  10.695  0.2812 -0.0438 -0.4284
  176SOPE   C3119996   6.513   0.741  10.668 -0.0363 -0.0310  0.6576
  176SOPE   O3219997   6.395   0.762  10.683  0.4841 -0.1321  1.1379
  176SOPE   C3219998   6.622   0.844  10.616 -0.8153 -0.2728  0.5892
  176SOPE   H2X19999   6.686   0.795  10.540 -1.2726 -1.6175  1.0219
  176SOPE   H2Y20000   6.687   0.868  10.703 -0.1253  0.4166 -0.0984
  176SOPE   C2320001   6.635   0.382  10.327 -0.3150  0.0369 -0.1883
  176SOPE   H3R20002   6.528   0.389  10.298 -0.2180  2.5576 -0.1895
  176SOPE   H3S20003   6.700   0.325  10.257  2.1845  1.0244  1.2155
  176SOPE   C2420004   6.693   0.509  10.368  0.1365  0.2619  0.2629
  176SOPE   H4R20005   6.637   0.536  10.461 -0.9416 -1.5502  0.1942
  176SOPE   H4S20006   6.801   0.507  10.395  0.4078 -1.1132 -0.8449
  176SOPE   C2520007   6.664   0.617  10.262  0.1123 -0.3887 -0.3078
  176SOPE   H5R20008   6.555   0.615  10.241  0.0727 -2.8443 -0.2153
  176SOPE   H5S20009   6.690   0.719  10.298  1.5880 -2.1129  4.3050
  176SOPE   C2620010   6.744   0.606  10.130 -0.5397  0.4245 -0.2910
  176SOPE   H6R20011   6.854   0.606  10.142 -0.6511  0.2398  0.8320
  176SOPE   H6S20012   6.724   0.506  10.086  1.1948 -0.1550  0.1863
  176SOPE   C2720013   6.702   0.727  10.039  0.1280 -0.4558 -0.3226
  176SOPE   H7R20014   6.610   0.775  10.078  1.9688  4.0623 -0.9786
  176SOPE   H7S20015   6.782   0.803  10.053  0.6949 -0.9143 -0.9977
  176SOPE   C2820016   6.694   0.682   9.894  0.3263 -0.0092  0.2362
  176SOPE   H8R20017   6.633   0.590   9.908  0.7164  0.1441  4.1163
  176SOPE   H8S20018   6.648   0.758   9.827 -0.1661  1.1807  1.8523
  176SOPE   C2920019   6.834   0.646   9.842 -1.1032  0.1568  0.1503
  176SOPE   H9120020   6.912   0.698   9.899  3.0640 -2.8955 -2.2639
  176SOPE  C21020021   6.876   0.562   9.746  0.5746 -0.1064  0.0270
  176SOPE  H10120022   6.982   0.537   9.728  1.1615  0.6456  2.1755
  176SOPE  C21120023   6.780   0.477   9.664  0.8680  0.1097  0.2821
  176SOPE  H11R20024   6.782   0.512   9.558 -2.4515 -2.4271 -0.7863
  176SOPE  H11S20025   6.676   0.486   9.704  0.8815 -2.0137  0.9285
  176SOPE  C21220026   6.827   0.328   9.685 -0.3698  0.2632 -0.6238
  176SOPE  H12R20027   6.764   0.261   9.623 -1.0950  0.5122 -0.1627
  176SOPE  H12S20028   6.806   0.294   9.788 -0.1220  1.0460 -0.3102
  176SOPE  C21320029   6.970   0.300   9.658  0.3579  0.3437 -0.2349
  176SOPE  H13R20030   6.976   0.189   9.647 -3.0458  0.1351 -0.8940
  176SOPE  H13S20031   7.030   0.337   9.745  1.6002  0.1780 -0.9933
  176SOPE  C21420032   7.032   0.356   9.535 -0.3309 -0.1326 -0.0891
  176SOPE  H14R20033   7.044   0.466   9.547  0.4857 -0.3771  1.5669
  176SOPE  H14S20034   6.971   0.330   9.446 -1.6153 -3.2172  1.5603
  176SOPE  C21520035   7.180   0.306   9.516  0.3015 -0.0677 -0.0466
  176SOPE  H15R20036   7.192   0.200   9.545  1.7928  0.4832  1.5404
  176SOPE  H15S20037   7.238   0.363   9.592 -1.2219  2.6702 -0.8128
  176SOPE  C21620038   7.243   0.340   9.386  0.0838  0.3222 -0.0595
  176SOPE  H16R20039   7.347   0.302   9.381  0.8802  2.4696 -0.5440
  176SOPE  H16S20040   7.252   0.450   9.385 -0.2420  0.3742  1.0894
  176SOPE  C21720041   7.163   0.283   9.266 -0.1753  0.0468  0.1621
  176SOPE  H17R20042   7.227   0.303   9.177 -0.0996  1.8167  0.5836
  176SOPE  H17S20043   7.076   0.352   9.254  0.1379  0.6589  1.2851
  176SOPE  C21820044   7.143   0.132   9.268  0.3820 -0.2451 -0.5670
  176SOPE  H18R20045   7.086   0.088   9.184 -1.2884 -1.4905  1.1494
  176SOPE  H18S20046   7.088   0.118   9.363 -0.8494  0.7782 -1.1038
  176SOPE  H18T20047   7.241   0.087   9.294  0.2756 -0.2058 -0.0896
  176SOPE   C3320048   6.563   0.970  10.545 -0.3548  0.3256  0.1436
  176SOPE   H3X20049   6.650   1.038  10.531 -0.8644  0.6201 -1.9294
  176SOPE   H3Y20050   6.491   1.003  10.623  0.4373  1.1085  0.5491
  176SOPE   C3420051   6.511   0.942  10.405  0.7724 -0.1700 -0.6990
  176SOPE   H4X20052   6.425   0.874  10.425 -1.0965  2.1676 -0.3597
  176SOPE   H4Y20053   6.575   0.885  10.335 -1.7554  0.6493 -3.9066
  176SOPE   C3520054   6.457   1.072  10.340 -1.0094 -0.0059 -0.0934
  176SOPE   H5X20055   6.397   1.124  10.418 -0.5142 -1.6631  1.4782
  176SOPE   H5Y20056   6.391   1.031  10.261 -0.5652 -0.2894 -0.3238
  176SOPE   C3620057   6.557   1.163  10.266 -0.2018 -0.1128  0.1479
  176SOPE   H6X20058   6.632   1.188  10.344  0.7476 -0.4572 -0.6339
  176SOPE   H6Y20059   6.509   1.258  10.234 -0.2165  0.5397  1.9895
  176SOPE   C3720060   6.637   1.094  10.150  0.1149  0.2701 -0.0564
  176SOPE   H7X20061   6.552   1.061  10.086 -1.0982  0.1572  1.5675
  176SOPE   H7Y20062   6.682   1.003  10.193 -1.0243  0.4171  1.5183
  176SOPE   C3820063   6.728   1.179  10.068 -0.6955 -0.1993  0.2330
  176SOPE   H8X20064   6.809   1.199  10.142 -0.0440 -1.0787 -0.2191
  176SOPE   H8Y20065   6.691   1.280  10.038 -1.8614 -1.0599 -1.3964
  176SOPE   C3920066   6.792   1.120   9.948  0.1185  0.4744 -0.0605
  176SOPE   H9X20067   6.818   1.013   9.963 -1.2052  0.5396  3.5818
  176SOPE   H9Y20068   6.890   1.169   9.926  0.5523  0.5260  1.8221
  176SOPE  C31020069   6.696   1.130   9.825  0.5855 -0.7441  0.5280
  176SOPE  H10X20070   6.673   1.239   9.823  1.0873 -0.6346  0.4342
  176SOPE  H10Y20071   6.598   1.088   9.855 -0.1659 -0.1189 -0.9316
  176SOPE  C31120072   6.756   1.068   9.700 -0.5386  0.2225  0.5164
  176SOPE  H11X20073   6.806   0.972   9.726 -0.0790  0.9197  2.4011
  176SOPE  H11Y20074   6.846   1.127   9.671 -1.3977  1.7169  0.7434
  176SOPE  C31220075   6.654   1.055   9.590  0.7517  0.2322  0.3498
  176SOPE  H12X20076   6.591   1.144   9.565 -0.6961 -1.4866 -2.7695
  176SOPE  H12Y20077   6.580   0.988   9.638  3.0230 -1.8401  1.1329
  176SOPE  C31320078   6.714   0.994   9.464 -0.5442 -0.3728 -0.1044
  176SOPE  H13X20079   6.708   0.883   9.463 -5.3895 -0.3141 -1.5214
  176SOPE  H13Y20080   6.822   1.019   9.459 -0.7150  0.1688 -2.3998
  176SOPE  C31420081   6.645   1.030   9.330  0.2647  0.4819 -0.2086
  176SOPE  H14X20082   6.643   1.137   9.299  0.2175  0.4517 -0.3093
  176SOPE  H14Y20083   6.539   1.010   9.355 -0.2441  2.2569 -0.8040
  176SOPE  C31520084   6.698   0.948   9.224  0.1516  0.3880  0.2270
  176SOPE  H15X20085   6.712   0.844   9.261  1.0627  0.8289  1.1647
  176SOPE  H15Y20086   6.801   0.980   9.198 -0.2956  1.5964 -0.1304
  176SOPE  C31620087   6.611   0.937   9.099 -0.2731 -0.5397  0.4841
  176SOPE  H16X20088   6.573   1.040   9.079 -2.4071 -1.3636  0.0243
  176SOPE  H16Y20089   6.525   0.870   9.120 -0.9208  0.3967  0.8981
  176SOPE  C31720090   6.685   0.879   8.975  0.4348 -0.1951 -0.2721
  176SOPE  H17X20091   6.728   0.778   8.991  1.8061  0.3744 -0.2512
  176SOPE  H17Y20092   6.767   0.952   8.955  1.0058 -0.4424  1.0683
  176SOPE  C31820093   6.595   0.871   8.849  0.4309  0.6597  0.2785
  176SOPE  H18X20094   6.651   0.856   8.754 -0.7382 -0.1182 -0.3128
  176SOPE  H18Y20095   6.543   0.968   8.834  0.4768  0.6273 -0.0810
  176SOPE  H18Z20096   6.525   0.785   8.856  3.4189 -1.8732  1.6275
  177SOPE     N20097   6.257   3.955  11.127  0.9161  0.3612  0.1825
  177SOPE   HN120098   6.277   3.854  11.138 -1.5147 -0.3075 -0.8908
  177SOPE   HN220099   6.219   3.954  11.030  1.9346 -1.8444 -0.2504
  177SOPE   HN320100   6.348   4.005  11.119  0.1320  1.6384 -1.4187
  177SOPE   C1220101   6.182   4.015  11.248  0.0083  0.8357 -0.4099
  177SOPE  H12A20102   6.263   4.023  11.324 -1.1263 -1.0752  1.1195
  177SOPE  H12B20103   6.110   3.936  11.278  1.4428 -0.3857  0.0076
  177SOPE   C1120104   6.118   4.157  11.236  0.0629 -0.0842 -0.6789
  177SOPE  H11A20105   6.109   4.187  11.342  0.2921  2.1167 -1.2254
  177SOPE  H11B20106   6.015   4.145  11.194 -0.1284  2.0910 -0.9501
  177SOPE     P20107   6.130   4.396  11.128  0.2289  0.3428  0.2915
  177SOPE   O1320108   6.215   4.450  11.016 -0.0903  0.0783  0.1604
  177SOPE   O1420109   6.110   4.486  11.243 -0.0476  0.2055 -0.0089
  177SOPE   O1220110   6.195   4.254  11.173  0.0912 -0.2056 -0.4588
  177SOPE   O1120111   5.990   4.357  11.082  0.6615  0.0069 -0.0405
  177SOPE    C120112   5.971   4.265  10.977  0.6518 -0.0554  0.8187
  177SOPE    HA20113   5.904   4.183  11.009 -0.5351 -0.3817 -2.1743
  177SOPE    HB20114   6.063   4.219  10.934 -2.4649 -2.5035 -4.1782
  177SOPE    C220115   5.902   4.335  10.855  0.6713  0.8362 -0.2848
  177SOPE    HS20116   5.870   4.257  10.783  1.0277 -0.7489  1.2023
  177SOPE   O2120117   5.987   4.436  10.799 -0.5048 -0.0864 -0.6483
  177SOPE   C2120118   6.049   4.407  10.692 -0.5977  0.3807  0.5941
  177SOPE   O2220119   6.036   4.301  10.624 -0.8787 -0.2566 -0.2563
  177SOPE   C2220120   6.138   4.526  10.654  0.3854  0.3850 -0.2578
  177SOPE   H2R20121   6.223   4.516  10.725 -1.1564 -0.2203  1.5812
  177SOPE   H2S20122   6.092   4.623  10.680 -0.3568  0.3690 -1.4136
  177SOPE    C320123   5.752   4.386  10.895 -0.6295 -0.4781  0.2727
  177SOPE    HX20124   5.778   4.474  10.958  1.7258 -0.6387 -0.3503
  177SOPE    HY20125   5.711   4.317  10.971  1.9208 -0.7859  1.5007
  177SOPE   O3120126   5.674   4.416  10.778 -0.2615  0.4593 -0.3284
  177SOPE   C3120127   5.700   4.530  10.714 -0.1673 -0.4580 -0.4563
  177SOPE   O3220128   5.778   4.618  10.755 -0.3736  0.5985  0.1895
  177SOPE   C3220129   5.640   4.529  10.578  0.5182 -0.3317 -0.2707
  177SOPE   H2X20130   5.590   4.627  10.564  0.6708 -0.0529  1.0328
  177SOPE   H2Y20131   5.551   4.463  10.581  1.1757 -1.2129  1.5039
  177SOPE   C2320132   6.198   4.522  10.514 -0.7081  0.5176 -0.1683
  177SOPE   H3R20133   6.138   4.488  10.427  1.2127 -1.9502 -0.6429
  177SOPE   H3S20134   6.287   4.455  10.510  0.0046  1.5000 -1.4243
  177SOPE   C2420135   6.251   4.667  10.491 -0.0265  1.0043  0.7147
  177SOPE   H4R20136   6.162   4.729  10.472 -1.3737 -1.5854 -2.2825
  177SOPE   H4S20137   6.298   4.707  10.584 -0.7340 -2.0203  2.5155
  177SOPE   C2520138   6.336   4.676  10.365  0.2112 -0.0563  0.2290
  177SOPE   H5R20139   6.390   4.773  10.368 -0.3323  0.3088 -1.0372
  177SOPE   H5S20140   6.402   4.587  10.369 -0.3466 -0.4483  1.0330
  177SOPE   C2620141   6.253   4.681  10.233  0.2219  0.6642 -0.0964
  177SOPE   H6R20142   6.181   4.597  10.238 -1.2364  1.8800 -0.0893
  177SOPE   H6S20143   6.182   4.766  10.223  1.1678  1.2782 -2.1489
  177SOPE   C2720144   6.332   4.657  10.107  0.2533 -0.2579 -0.2981
  177SOPE   H7R20145   6.400   4.745  10.101 -0.8128  0.4755 -2.3735
  177SOPE   H7S20146   6.380   4.558  10.120 -1.6621 -1.4780 -1.9470
  177SOPE   C2820147   6.253   4.656   9.972 -0.0057  0.1093  0.0003
  177SOPE   H8R20148   6.329   4.626   9.896 -1.0492  0.2224 -1.1233
  177SOPE   H8S20149   6.184   4.572   9.993  1.9840 -1.4200  0.7781
  177SOPE   C2920150   6.187   4.781   9.933  0.5457  0.3816  1.0941
  177SOPE   H9120151   6.116   4.804  10.014  1.0791  0.2348  1.6099
  177SOPE  C21020152   6.208   4.861   9.830  0.6172  0.3782 -0.2365
  177SOPE  H10120153   6.138   4.944   9.815 -0.9552 -0.5166  1.6811
  177SOPE  C21120154   6.313   4.841   9.720 -0.1384 -0.0127  0.5300
  177SOPE  H11R20155   6.364   4.743   9.738 -0.2626  0.1125  1.6090
  177SOPE  H11S20156   6.399   4.908   9.741  0.7244 -1.0051  0.2490
  177SOPE  C21220157   6.263   4.857   9.576 -0.0788  0.0974 -0.1271
  177SOPE  H12R20158   6.349   4.907   9.528  0.7782  0.9760  2.1666
  177SOPE  H12S20159   6.178   4.929   9.575  1.4812  2.0232  0.0462
  177SOPE  C21320160   6.224   4.731   9.497  0.5639 -0.0400 -0.5011
  177SOPE  H13R20161   6.143   4.760   9.427 -0.8658  2.8041  2.1193
  177SOPE  H13S20162   6.185   4.658   9.571 -0.1487 -1.3232 -2.0697
  177SOPE  C21420163   6.343   4.672   9.421 -0.7667  0.6928  0.3975
  177SOPE  H14R20164   6.323   4.568   9.390 -0.5460  0.8460 -0.2701
  177SOPE  H14S20165   6.425   4.663   9.495 -0.5183  0.4833  0.0979
  177SOPE  C21520166   6.391   4.752   9.293 -0.5150 -0.1083 -1.0369
  177SOPE  H15R20167   6.429   4.678   9.220 -1.5505  0.3559 -2.0738
  177SOPE  H15S20168   6.471   4.818   9.333 -1.2968  0.5674 -0.5568
  177SOPE  C21620169   6.280   4.827   9.223  0.0869  0.2066 -0.2901
  177SOPE  H16R20170   6.224   4.889   9.296 -1.7141 -1.0380 -0.5496
  177SOPE  H16S20171   6.199   4.754   9.205 -1.0451  0.3457  3.4001
  177SOPE  C21720172   6.320   4.912   9.104  0.4008  0.8519 -0.3949
  177SOPE  H17R20173   6.237   4.942   9.036 -1.0513  1.4357  1.5227
  177SOPE  H17S20174   6.387   4.854   9.037 -0.3806 -1.4446  0.6788
  177SOPE  C21820175   6.393   5.032   9.160 -0.5692 -0.0206  0.3860
  177SOPE  H18R20176   6.443   5.091   9.081  0.1162  1.3148  1.7782
  177SOPE  H18S20177   6.462   5.002   9.241  2.9551  0.7486 -2.0962
  177SOPE  H18T20178   6.317   5.093   9.214 -0.5770 -0.6898  1.1475
  177SOPE   C3320179   5.744   4.509  10.468  1.0432  0.2860 -0.0966
  177SOPE   H3X20180   5.775   4.403  10.477 -0.4178 -0.1015  0.6637
  177SOPE   H3Y20181   5.834   4.571  10.491  0.0829  1.7241 -0.0848
  177SOPE   C3420182   5.688   4.540  10.332  0.6732 -0.0564  0.4319
  177SOPE   H4X20183   5.642   4.641  10.339 -0.1718 -0.4741  1.2198
  177SOPE   H4Y20184   5.606   4.467  10.316  0.8480 -0.3346  0.7900
  177SOPE   C3520185   5.791   4.527  10.215 -0.2126  0.2186  0.0365
  177SOPE   H5X20186   5.807   4.417  10.208  2.7908  0.5183  1.0820
  177SOPE   H5Y20187   5.888   4.576  10.240  0.3163 -1.4165  1.3715
  177SOPE   C3620188   5.737   4.575  10.075 -0.4294 -0.1544 -0.4601
  177SOPE   H6X20189   5.705   4.681  10.087  0.5143  0.2139 -1.0652
  177SOPE   H6Y20190   5.645   4.520  10.046 -0.5036 -1.9591  2.8204
  177SOPE   C3720191   5.837   4.570   9.956 -0.3283  0.0429 -0.3539
  177SOPE   H7X20192   5.897   4.476   9.957  0.6087  0.5354 -3.0374
  177SOPE   H7Y20193   5.917   4.647   9.961 -1.4102  1.1405  0.9666
  177SOPE   C3820194   5.762   4.564   9.821  0.2176 -0.0530  0.3100
  177SOPE   H8X20195   5.714   4.664   9.810 -2.2881 -1.2222 -0.2712
  177SOPE   H8Y20196   5.674   4.496   9.823 -2.1610  2.7811  0.2382
  177SOPE   C3920197   5.860   4.533   9.703  0.3810  0.4728 -0.1303
  177SOPE   H9X20198   5.913   4.438   9.729 -1.5985 -0.4660  0.6554
  177SOPE   H9Y20199   5.940   4.607   9.680  0.5020  0.0964 -0.9462
  177SOPE  C31020200   5.782   4.498   9.573 -0.2029  0.7291 -0.4802
  177SOPE  H10X20201   5.716   4.585   9.550  0.8877  1.3469 -1.3610
  177SOPE  H10Y20202   5.728   4.404   9.595  3.1463 -1.1946  0.2523
  177SOPE  C31120203   5.861   4.476   9.446 -0.4139  0.1713 -0.2952
  177SOPE  H11X20204   5.936   4.396   9.462  0.4447  1.2213  1.1205
  177SOPE  H11Y20205   5.917   4.569   9.426  0.9914 -0.1879  1.7321
  177SOPE  C31220206   5.775   4.448   9.325 -0.0725 -0.0086 -0.3675
  177SOPE  H12X20207   5.710   4.535   9.301 -1.2435 -1.0107 -0.9744
  177SOPE  H12Y20208   5.703   4.366   9.346 -0.0772  0.5716  2.2716
  177SOPE  C31320209   5.858   4.409   9.209 -0.3364 -0.4296  1.1351
  177SOPE  H13X20210   5.909   4.312   9.220 -0.4827 -1.0604 -2.4325
  177SOPE  H13Y20211   5.944   4.477   9.191  0.2482 -1.7559 -1.5872
  177SOPE  C31420212   5.781   4.395   9.076 -0.1941  0.0651 -0.7780
  177SOPE  H14X20213   5.850   4.360   8.996  0.0489 -0.3917 -0.3757
  177SOPE  H14Y20214   5.747   4.496   9.043  0.9073  0.8929  0.4720
  177SOPE  C31520215   5.659   4.313   9.079 -1.0681 -0.1458 -1.1402
  177SOPE  H15X20216   5.577   4.375   9.120 -0.5452 -0.9304  1.2551
  177SOPE  H15Y20217   5.688   4.234   9.151 -0.9212  0.1572 -0.8664
  177SOPE  C31620218   5.606   4.242   8.960  0.7644  0.2313 -0.1973
  177SOPE  H16X20219   5.664   4.152   8.931 -0.6882 -0.2426 -1.7545
  177SOPE  H16Y20220   5.594   4.311   8.873 -2.6096  1.6627  1.2273
  177SOPE  C31720221   5.455   4.190   8.987 -0.5817 -0.6497 -0.3515
  177SOPE  H17X20222   5.423   4.150   8.888  0.2700  0.4868 -1.1161
  177SOPE  H17Y20223   5.389   4.277   9.004  0.1152 -0.2861  0.5551
  177SOPE  C31820224   5.441   4.086   9.107 -0.3257 -0.5569  1.0881
  177SOPE  H18X20225   5.493   3.992   9.078 -1.2063 -0.6917 -0.1705
  177SOPE  H18Y20226   5.331   4.067   9.110 -0.4618 -1.3045 -2.7632
  177SOPE  H18Z20227   5.480   4.125   9.203 -1.8038  0.1364  1.4395
  178SOPE     N20228   2.979   2.184  10.803  0.2022  0.0610 -0.8362
  178SOPE   HN120229   2.933   2.272  10.832  1.3097  0.9017 -1.5779
  178SOPE   HN220230   2.916   2.113  10.760 -0.0650 -0.4741  0.3806
  178SOPE   HN320231   3.035   2.138  10.878 -0.0250  0.2942 -0.5202
  178SOPE   C1220232   3.061   2.235  10.691  0.2051 -0.0005  0.4753
  178SOPE  H12A20233   3.063   2.168  10.603 -1.0183  1.2189 -0.5238
  178SOPE  H12B20234   3.165   2.253  10.726  0.8448 -1.1843 -0.7669
  178SOPE   C1120235   3.009   2.374  10.638  0.4085  1.1040 -0.7056
  178SOPE  H11A20236   2.911   2.344  10.597  0.3782 -1.2810  0.9275
  178SOPE  H11B20237   3.066   2.399  10.545  1.6651 -0.1036 -0.2922
  178SOPE     P20238   3.099   2.568  10.770 -0.2460  0.2930 -0.1378
  178SOPE   O1320239   3.224   2.491  10.766 -0.2758 -0.6969 -0.4943
  178SOPE   O1420240   3.067   2.651  10.889 -0.6127 -0.1701  0.3023
  178SOPE   O1220241   2.983   2.470  10.738  0.0253 -0.5038 -0.1302
  178SOPE   O1120242   3.111   2.666  10.650  0.0173  0.2532 -0.0586
  178SOPE    C120243   3.019   2.772  10.627 -0.8854  0.0793 -0.7557
  178SOPE    HA20244   3.082   2.864  10.629  0.0696 -0.5549  1.2045
  178SOPE    HB20245   2.934   2.781  10.697 -0.0277 -0.3413  0.3774
  178SOPE    C220246   2.957   2.762  10.488  0.5364  0.1066  0.8256
  178SOPE    HS20247   2.898   2.852  10.464  0.6507 -0.4163 -1.6075
  178SOPE   O2120248   2.875   2.642  10.475  0.0590 -0.1549 -0.0215
  178SOPE   C2120249   2.768   2.647  10.552 -0.4707 -0.0918 -0.5411
  178SOPE   O2220250   2.723   2.746  10.607 -0.0112 -0.4171 -0.4202
  178SOPE   C2220251   2.689   2.515  10.549 -0.3909 -0.1292 -0.1117
  178SOPE   H2R20252   2.701   2.463  10.646  0.6372 -1.0842 -0.7320
  178SOPE   H2S20253   2.738   2.447  10.476  1.7579 -2.5008  3.2921
  178SOPE    C320254   3.071   2.762  10.387  0.1595 -0.1552 -0.1548
  178SOPE    HX20255   3.126   2.666  10.398 -0.9258 -0.7756  0.0017
  178SOPE    HY20256   3.139   2.844  10.418 -0.7984 -0.0601  1.7943
  178SOPE   O3120257   3.021   2.784  10.254 -0.1274  0.2176 -0.1108
  178SOPE   C3120258   3.112   2.810  10.161 -0.0207 -0.7810  0.3163
  178SOPE   O3220259   3.228   2.838  10.182  0.4087  0.5174  0.2647
  178SOPE   C3220260   3.038   2.816  10.026 -0.1345  0.7938 -0.8488
  178SOPE   H2X20261   2.957   2.891  10.039  0.1545  0.8040  1.0936
  178SOPE   H2Y20262   2.987   2.717  10.015  1.0371 -0.0178  0.7377
  178SOPE   C2320263   2.535   2.535  10.518  0.0385  0.1857 -0.3147
  178SOPE   H3R20264   2.496   2.623  10.574  0.3694  1.1046 -1.4868
  178SOPE   H3S20265   2.476   2.444  10.543 -3.3094  1.3783 -2.9964
  178SOPE   C2420266   2.515   2.567  10.368 -0.0061 -0.3609  0.6956
  178SOPE   H4R20267   2.546   2.672  10.347 -0.8803 -0.2721 -0.2244
  178SOPE   H4S20268   2.576   2.492  10.313 -0.0496  0.1951 -0.1352
  178SOPE   C2520269   2.362   2.564  10.334  0.1749  0.3508  0.6520
  178SOPE   H5R20270   2.308   2.622  10.412  1.7633  1.1962  1.1682
  178SOPE   H5S20271   2.362   2.615  10.235  0.0146 -0.8872 -0.0002
  178SOPE   C2620272   2.308   2.418  10.326  0.3033  0.4677 -0.8040
  178SOPE   H6R20273   2.328   2.366  10.422 -1.2754 -1.8872 -1.6653
  178SOPE   H6S20274   2.197   2.424  10.329  0.2053 -0.3888 -2.0833
  178SOPE   C2720275   2.376   2.330  10.220  0.4615 -0.1676 -0.3504
  178SOPE   H7R20276   2.364   2.375  10.120  0.9118  1.1184  0.1597
  178SOPE   H7S20277   2.485   2.332  10.243  0.3107 -1.3125  0.5536
  178SOPE   C2820278   2.322   2.185  10.217 -0.6073 -0.0174  0.3364
  178SOPE   H8R20279   2.315   2.150  10.322  5.5621 -1.1921  0.7134
  178SOPE   H8S20280   2.217   2.193  10.181 -0.3462  1.2940 -0.1796
  178SOPE   C2920281   2.393   2.090  10.122 -0.9133 -0.2558  0.2840
  178SOPE   H9120282   2.486   2.044  10.156 -0.5423  0.6880  0.5958
  178SOPE  C21020283   2.360   2.060   9.993  0.8095 -0.2514 -0.2276
  178SOPE  H10120284   2.427   1.991   9.941  2.0302 -0.0233  0.9593
  178SOPE  C21120285   2.249   2.131   9.912  0.7723  0.1877 -0.1951
  178SOPE  H11R20286   2.171   2.174   9.978  0.3693 -0.0020 -0.5423
  178SOPE  H11S20287   2.191   2.059   9.850  0.4203 -0.3693  0.7623
  178SOPE  C21220288   2.299   2.231   9.811  0.1568  0.9415  0.1885
  178SOPE  H12R20289   2.359   2.168   9.742 -0.2908 -1.3818  1.7889
  178SOPE  H12S20290   2.368   2.307   9.853  0.2400  0.7575  0.3824
  178SOPE  C21320291   2.183   2.308   9.743  0.3299  0.1203  0.2904
  178SOPE  H13R20292   2.133   2.377   9.815  0.7867 -0.4621  1.1801
  178SOPE  H13S20293   2.108   2.227   9.734  0.3683 -0.0984  1.6448
  178SOPE  C21420294   2.226   2.381   9.620  0.9230 -0.1833 -0.0557
  178SOPE  H14R20295   2.326   2.425   9.643  1.2021 -1.7688  2.0509
  178SOPE  H14S20296   2.146   2.456   9.602 -1.3478 -2.5047 -0.1141
  178SOPE  C21520297   2.246   2.297   9.499 -0.2847  0.4003 -0.0576
  178SOPE  H15R20298   2.164   2.224   9.485  0.6616 -1.1372  1.9786
  178SOPE  H15S20299   2.327   2.224   9.521 -0.3280  0.6066  0.7970
  178SOPE  C21620300   2.276   2.376   9.367  0.2242 -0.2460  0.3853
  178SOPE  H16R20301   2.350   2.458   9.379  0.8054 -0.6209 -0.5282
  178SOPE  H16S20302   2.178   2.418   9.336  0.9762  0.5497 -0.9964
  178SOPE  C21720303   2.337   2.289   9.250  0.5944 -0.2483 -0.0866
  178SOPE  H17R20304   2.283   2.192   9.240  1.9367 -0.9371 -0.8220
  178SOPE  H17S20305   2.440   2.258   9.275  0.4876  1.3710  2.7640
  178SOPE  C21820306   2.328   2.362   9.110 -0.6690 -0.1728 -0.4289
  178SOPE  H18R20307   2.418   2.424   9.093 -2.3262  2.8108  0.7818
  178SOPE  H18S20308   2.238   2.428   9.116  0.5335  1.4430  0.8566
  178SOPE  H18T20309   2.312   2.286   9.031  2.8877 -0.1030 -1.3792
  178SOPE   C3320310   3.133   2.831   9.899 -0.0838 -0.2224  0.4836
  178SOPE   H3X20311   3.233   2.786   9.919  1.4910  2.8033  0.1246
  178SOPE   H3Y20312   3.145   2.941   9.887 -1.9692  0.4188  3.4585
  178SOPE   C3420313   3.056   2.777   9.775 -0.3835 -0.2197 -0.0888
  178SOPE   H4X20314   2.958   2.826   9.755  0.4884  1.1411 -1.2546
  178SOPE   H4Y20315   3.034   2.670   9.797 -2.9615 -0.3176 -2.4858
  178SOPE   C3520316   3.145   2.790   9.645 -0.2674 -0.2061  0.1916
  178SOPE   H5X20317   3.251   2.808   9.671 -0.5299  1.3117  0.2524
  178SOPE   H5Y20318   3.114   2.871   9.576  1.3127 -1.6104 -2.3405
  178SOPE   C3620319   3.132   2.660   9.557 -0.4998 -0.2741 -0.7043
  178SOPE   H6X20320   3.028   2.624   9.568 -0.8365  0.1944 -2.1110
  178SOPE   H6Y20321   3.194   2.581   9.604 -0.4385 -0.3587 -0.9232
  178SOPE   C3720322   3.153   2.685   9.412 -0.3939 -0.1800 -0.8916
  178SOPE   H7X20323   3.243   2.743   9.383  0.9705 -1.5538  0.4444
  178SOPE   H7Y20324   3.071   2.756   9.389 -0.1566  0.4567  0.1766
  178SOPE   C3820325   3.136   2.557   9.323  0.3587 -0.0995 -0.3033
  178SOPE   H8X20326   3.031   2.525   9.307 -0.3156  1.1628  1.2465
  178SOPE   H8Y20327   3.197   2.480   9.376  1.0610  0.3560 -0.4398
  178SOPE   C3920328   3.200   2.555   9.183  0.2605 -0.0740 -0.4106
  178SOPE   H9X20329   3.208   2.448   9.153  1.1765  0.1640 -1.0894
  178SOPE   H9Y20330   3.301   2.601   9.175  0.4575 -0.5570 -0.7432
  178SOPE  C31020331   3.110   2.626   9.082 -0.4116  0.2955  0.3437
  178SOPE  H10X20332   3.128   2.734   9.102 -0.1423  0.1189  1.0881
  178SOPE  H10Y20333   3.007   2.587   9.099 -0.2851  0.6197  2.0217
  178SOPE  C31120334   3.155   2.592   8.940 -0.7536 -0.3754  0.5385
  178SOPE  H11X20335   3.132   2.486   8.918 -1.2627 -0.3093  0.7190
  178SOPE  H11Y20336   3.265   2.607   8.936 -0.3792 -3.0766 -1.1353
  178SOPE  C31220337   3.094   2.686   8.835 -0.3941  0.2364 -0.7596
  178SOPE  H12X20338   3.114   2.792   8.862 -0.1711 -0.3238  1.5279
  178SOPE  H12Y20339   2.983   2.674   8.832 -0.3576 -0.5730  0.3594
  178SOPE  C31320340   3.125   2.651   8.687  0.2725  0.2768 -0.0360
  178SOPE  H13X20341   3.120   2.540   8.688 -1.6127  0.3282 -0.2005
  178SOPE  H13Y20342   3.225   2.690   8.659  0.8285 -0.8113  0.3827
  178SOPE  C31420343   3.021   2.703   8.584  0.2295 -0.6122  0.0927
  178SOPE  H14X20344   2.921   2.654   8.585  0.0987 -0.3563 -0.3043
  178SOPE  H14Y20345   3.057   2.674   8.482 -0.5627  1.1837 -0.7372
  178SOPE  C31520346   3.009   2.854   8.589 -0.0200 -0.2396 -0.3329
  178SOPE  H15X20347   3.112   2.888   8.565 -0.0382 -1.4886 -2.3936
  178SOPE  H15Y20348   2.987   2.895   8.690 -1.4546  0.7782 -1.0122
  178SOPE  C31620349   2.918   2.919   8.484  0.3259  0.3296 -0.3073
  178SOPE  H16X20350   2.924   3.028   8.504  0.7181  0.0204  1.4385
  178SOPE  H16Y20351   2.814   2.886   8.507  0.6464 -1.6545 -1.4299
  178SOPE  C31720352   2.956   2.894   8.337 -0.3276 -0.2574 -0.3748
  178SOPE  H17X20353   2.972   2.787   8.309 -2.0865 -0.6621  0.0161
  178SOPE  H17Y20354   3.052   2.946   8.318  0.2070 -1.3351 -0.7015
  178SOPE  C31820355   2.848   2.947   8.234  0.1072  0.8324 -0.4073
  178SOPE  H18X20356   2.750   2.916   8.274  1.1192 -0.1996  1.4390
  178SOPE  H18Y20357   2.867   2.888   8.142  2.5600 -0.1681  0.6517
  178SOPE  H18Z20358   2.847   3.057   8.219  1.0371  0.8693 -0.2660
  179SOPE     N20359   6.376   3.302   6.195 -0.3349  0.3999  0.7410
  179SOPE   HN120360   6.384   3.368   6.114  2.0900  0.5274  1.0011
  179SOPE   HN220361   6.435   3.347   6.268 -0.7251 -0.6385  1.7178
  179SOPE   HN320362   6.425   3.213   6.174 -0.8013 -0.1231  1.8211
  179SOPE   C1220363   6.236   3.282   6.243  0.7941  0.0142 -0.1895
  179SOPE  H12A20364   6.236   3.205   6.323 -4.0026 -0.6574 -0.5507
  179SOPE  H12B20365   6.179   3.243   6.157  0.3126  2.2615 -0.9511
  179SOPE   C1120366   6.190   3.412   6.303  1.3112  0.0628 -0.9804
  179SOPE  H11A20367   6.084   3.400   6.334  1.6331 -0.5050 -0.0597
  179SOPE  H11B20368   6.189   3.488   6.221  0.7173  1.8851  0.6232
  179SOPE     P20369   6.253   3.421   6.562  0.0133 -0.1274  0.3609
  179SOPE   O1320370   6.371   3.472   6.639 -0.1608 -0.0920  0.1199
  179SOPE   O1420371   6.220   3.276   6.572  1.1756  0.1118  0.1691
  179SOPE   O1220372   6.273   3.458   6.411 -1.0300  0.4976 -0.1032
  179SOPE   O1120373   6.120   3.508   6.595  0.3731 -0.7487  0.4797
  179SOPE    C120374   6.129   3.652   6.625 -0.1040  0.3722  0.0736
  179SOPE    HA20375   6.069   3.709   6.550 -0.2354 -0.6753 -0.6495
  179SOPE    HB20376   6.229   3.699   6.612 -0.9999  2.8091  1.4933
  179SOPE    C220377   6.088   3.682   6.773  0.3200 -0.0171  0.0802
  179SOPE    HS20378   6.092   3.793   6.781 -2.5770  0.0574  2.4652
  179SOPE   O2120379   6.174   3.620   6.865 -0.1460 -0.7412  0.0230
  179SOPE   C2120380   6.296   3.665   6.864  0.4293 -0.8092  0.3215
  179SOPE   O2220381   6.347   3.762   6.814 -0.0263  0.1866 -0.5503
  179SOPE   C2220382   6.378   3.570   6.944  0.2409  0.1455  0.5897
  179SOPE   H2R20383   6.443   3.521   6.868 -0.1960 -0.0630  0.3452
  179SOPE   H2S20384   6.309   3.499   6.993  1.2513 -0.8437  0.6375
  179SOPE    C320385   5.949   3.634   6.813  0.1246 -0.0552  0.0803
  179SOPE    HX20386   5.944   3.528   6.781  2.3099  0.3821 -2.0240
  179SOPE    HY20387   5.870   3.683   6.752  1.1057  1.1529 -0.2772
  179SOPE   O3120388   5.920   3.645   6.950  0.2460 -0.2333  0.0858
  179SOPE   C3120389   5.907   3.774   6.997  0.1237  0.4488  0.6417
  179SOPE   O3220390   5.914   3.873   6.929 -0.0426 -0.2377 -0.1821
  179SOPE   C3220391   5.871   3.767   7.143 -0.0429 -0.4755 -0.8658
  179SOPE   H2X20392   5.884   3.662   7.179  0.0791 -0.0307  0.4459
  179SOPE   H2Y20393   5.764   3.794   7.143 -0.1269 -0.5915 -3.3103
  179SOPE   C2320394   6.470   3.639   7.047 -0.3575  0.1046 -0.2194
  179SOPE   H3R20395   6.549   3.688   6.985 -0.6578 -0.5017 -1.1014
  179SOPE   H3S20396   6.523   3.559   7.101  0.4517  0.8267  0.0848
  179SOPE   C2420397   6.393   3.742   7.129  0.4314  0.5208  0.2901
  179SOPE   H4R20398   6.433   3.845   7.117  1.1997  0.1927  0.0113
  179SOPE   H4S20399   6.286   3.751   7.101  0.4722  1.2384  0.3367
  179SOPE   C2520400   6.405   3.702   7.275 -0.7045 -0.5247  0.2752
  179SOPE   H5R20401   6.363   3.599   7.281 -0.5439 -0.5336  1.6520
  179SOPE   H5S20402   6.514   3.694   7.295 -0.7083 -1.6236 -0.0576
  179SOPE   C2620403   6.341   3.800   7.381  0.1179  0.5249  0.5079
  179SOPE   H6R20404   6.232   3.799   7.359  0.1306 -0.9497  0.4622
  179SOPE   H6S20405   6.364   3.737   7.469 -1.4435 -0.6813  0.0945
  179SOPE   C2720406   6.419   3.935   7.388  0.0546 -1.2960  0.1332
  179SOPE   H7R20407   6.526   3.906   7.393 -0.0544 -1.7390 -0.0682
  179SOPE   H7S20408   6.395   3.988   7.293  2.5435 -0.5467 -0.1457
  179SOPE   C2820409   6.358   4.016   7.503 -0.4502 -0.2083 -0.0895
  179SOPE   H8R20410   6.247   4.021   7.497 -0.3915  2.6344 -0.4148
  179SOPE   H8S20411   6.393   3.953   7.588  1.0917  1.1241  0.3162
  179SOPE   C2920412   6.420   4.153   7.527 -0.3327  0.2124  0.5277
  179SOPE   H9120413   6.396   4.227   7.449 -1.9758  0.6341  1.3916
  179SOPE  C21020414   6.503   4.192   7.627 -0.7694  1.0051 -0.5120
  179SOPE  H10120415   6.539   4.296   7.623 -1.6643  1.4291  1.3623
  179SOPE  C21120416   6.563   4.113   7.746 -0.2392 -0.8967 -0.1771
  179SOPE  H11R20417   6.640   4.179   7.792  1.3312 -1.2467 -2.1753
  179SOPE  H11S20418   6.612   4.016   7.721  2.5267  0.3654 -0.1062
  179SOPE  C21220419   6.462   4.084   7.859  0.1203 -0.0011  0.6998
  179SOPE  H12R20420   6.408   3.992   7.827  0.1476  0.3242 -0.3110
  179SOPE  H12S20421   6.390   4.168   7.874 -0.1052  0.3241 -1.7447
  179SOPE  C21320422   6.525   4.045   7.993  0.3409 -0.0055  0.4632
  179SOPE  H13R20423   6.585   3.952   7.991 -0.4297 -0.5139  0.5391
  179SOPE  H13S20424   6.443   4.034   8.067 -1.6450  0.4025 -1.5613
  179SOPE  C21420425   6.603   4.171   8.044 -0.0394  0.2105 -0.2946
  179SOPE  H14R20426   6.549   4.268   8.042  1.6899  1.1969 -1.0683
  179SOPE  H14S20427   6.690   4.188   7.977  0.5136 -0.0196  0.3572
  179SOPE  C21520428   6.659   4.146   8.184 -0.3157  0.0823  0.0299
  179SOPE  H15R20429   6.741   4.220   8.201  0.6036 -0.5603 -1.4551
  179SOPE  H15S20430   6.706   4.046   8.183 -0.4161  0.0370 -0.1317
  179SOPE  C21620431   6.549   4.153   8.295 -0.5569  0.2140  0.3482
  179SOPE  H16R20432   6.499   4.057   8.320  1.9101 -1.1094  0.4928
  179SOPE  H16S20433   6.477   4.225   8.250 -0.2104  0.7306  0.6058
  179SOPE  C21720434   6.597   4.221   8.427  0.0991  0.5282  0.7330
  179SOPE  H17R20435   6.668   4.299   8.391  1.3305 -1.0974 -0.4856
  179SOPE  H17S20436   6.654   4.139   8.476 -0.1472 -0.6578 -0.9185
  179SOPE  C21820437   6.484   4.271   8.506 -0.3807  0.1354 -0.6236
  179SOPE  H18R20438   6.511   4.271   8.614  0.4308 -2.8352 -0.7431
  179SOPE  H18S20439   6.399   4.200   8.501 -0.2111 -0.1666  0.5342
  179SOPE  H18T20440   6.448   4.370   8.470 -1.7946 -0.4048 -0.7662
  179SOPE   C3320441   5.974   3.859   7.224  0.3444  0.2981 -0.7059
  179SOPE   H3X20442   5.960   3.957   7.173 -0.4528  1.0915  0.9539
  179SOPE   H3Y20443   6.073   3.810   7.214  1.0502  1.4472  0.3455
  179SOPE   C3420444   5.927   3.888   7.368  0.0750  0.5284 -0.3388
  179SOPE   H4X20445   6.007   3.941   7.425 -1.6426  0.2860  2.5138
  179SOPE   H4Y20446   5.918   3.785   7.410  1.6394 -0.5189 -2.3815
  179SOPE   C3520447   5.796   3.966   7.379 -0.1041 -0.3152  0.2652
  179SOPE   H5X20448   5.727   3.922   7.304 -0.9072 -1.3181  1.5294
  179SOPE   H5Y20449   5.817   4.071   7.349 -0.3422 -0.2087  0.4622
  179SOPE   C3620450   5.727   3.978   7.515  0.4314 -0.3183 -0.2559
  179SOPE   H6X20451   5.790   4.039   7.583 -0.3152 -0.6884  0.7966
  179SOPE   H6Y20452   5.693   3.877   7.548  1.3978 -0.9296 -1.0653
  179SOPE   C3720453   5.602   4.067   7.495 -1.1819  0.1744 -0.6796
  179SOPE   H7X20454   5.556   4.014   7.408 -0.8703 -0.2030 -0.6150
  179SOPE   H7Y20455   5.630   4.170   7.464  1.2858 -0.4313 -0.6621
  179SOPE   C3820456   5.515   4.080   7.625 -0.1008  0.3888  0.8675
  179SOPE   H8X20457   5.506   3.972   7.648  0.4124  0.2306  0.3624
  179SOPE   H8Y20458   5.419   4.130   7.602  0.9717  1.3105 -2.0260
  179SOPE   C3920459   5.591   4.152   7.730  0.9291  0.2952 -0.1442
  179SOPE   H9X20460   5.628   4.246   7.684 -0.3210  0.3052 -1.1934
  179SOPE   H9Y20461   5.675   4.090   7.767  0.9014 -0.3361 -1.1218
  179SOPE  C31020462   5.500   4.172   7.854 -0.4965 -0.0592  0.9508
  179SOPE  H10X20463   5.482   4.069   7.891 -1.3867 -0.0917  0.4710
  179SOPE  H10Y20464   5.401   4.202   7.813 -1.0018 -0.3687  1.9193
  179SOPE  C31120465   5.549   4.272   7.962  0.1795  0.8616 -0.6379
  179SOPE  H11X20466   5.544   4.371   7.912  0.7945  0.3840 -1.6948
  179SOPE  H11Y20467   5.653   4.257   7.997 -0.7878  0.2252  2.2547
  179SOPE  C31220468   5.450   4.264   8.077  0.1740 -0.0233 -0.4187
  179SOPE  H12X20469   5.448   4.160   8.115  2.1201  0.1544  0.2933
  179SOPE  H12Y20470   5.348   4.278   8.037 -0.8516 -3.2006  0.7669
  179SOPE  C31320471   5.484   4.362   8.190 -0.3906 -0.3672  0.4354
  179SOPE  H13X20472   5.477   4.467   8.152 -0.4521 -1.5072 -3.0161
  179SOPE  H13Y20473   5.589   4.356   8.225 -0.0117 -1.6264 -0.8237
  179SOPE  C31420474   5.380   4.336   8.299 -0.7935 -0.0688 -0.5607
  179SOPE  H14X20475   5.390   4.233   8.339 -0.8186  0.2677  0.3249
  179SOPE  H14Y20476   5.278   4.335   8.255 -0.4572 -1.1110 -1.3516
  179SOPE  C31520477   5.386   4.436   8.411 -0.7299 -0.2539 -0.1720
  179SOPE  H15X20478   5.367   4.540   8.375 -0.3698  0.8506  2.5772
  179SOPE  H15Y20479   5.489   4.443   8.453  0.0689 -1.9539 -1.7328
  179SOPE  C31620480   5.275   4.398   8.511 -0.0977  0.0227 -0.1043
  179SOPE  H16X20481   5.278   4.287   8.523  0.7172  0.1449  0.9707
  179SOPE  H16Y20482   5.184   4.444   8.467  0.3823  0.9776 -0.1304
  179SOPE  C31720483   5.298   4.466   8.645 -0.1584  0.2260 -0.6833
  179SOPE  H17X20484   5.391   4.432   8.697 -0.7892 -0.3213  0.1155
  179SOPE  H17Y20485   5.232   4.428   8.726  0.1130  2.5619  0.7444
  179SOPE  C31820486   5.314   4.617   8.641 -0.0297  0.5202 -0.0305
  179SOPE  H18X20487   5.234   4.666   8.581  0.3544 -0.7914 -1.6893
  179SOPE  H18Y20488   5.406   4.653   8.590  0.8637 -3.3988 -1.5502
  179SOPE  H18Z20489   5.308   4.648   8.747  1.2135 -2.0646  0.8767
  180SOPE     N20490   4.284   1.135   6.157  0.7003 -0.1724 -0.3508
  180SOPE   HN120491   4.373   1.159   6.205 -1.0788  1.3921  2.4738
  180SOPE   HN220492   4.295   1.065   6.081 -0.2309  1.5900 -2.2234
  180SOPE   HN320493   4.242   1.222   6.118  2.1912  0.3513 -0.8453
  180SOPE   C1220494   4.186   1.074   6.253  0.3216 -0.0587  0.3547
  180SOPE  H12A20495   4.226   1.004   6.329 -2.0255 -1.0618  0.7274
  180SOPE  H12B20496   4.110   1.023   6.190 -0.8159  2.3257 -0.3124
  180SOPE   C1120497   4.121   1.185   6.337  0.8769  0.3957  0.3264
  180SOPE  H11A20498   4.212   1.223   6.389  0.4315  1.9868 -0.0154
  180SOPE  H11B20499   4.052   1.130   6.404  0.8446  0.1135  0.0631
  180SOPE     P20500   3.982   1.399   6.337  0.0862  0.3099  0.1122
  180SOPE   O1320501   3.888   1.466   6.244  0.1026  0.6805  0.4286
  180SOPE   O1420502   4.088   1.485   6.393  0.3367 -0.2622 -0.0604
  180SOPE   O1220503   4.051   1.284   6.260 -0.7625 -0.0577  0.7759
  180SOPE   O1120504   3.888   1.328   6.448  0.4606 -0.0671 -0.3926
  180SOPE    C120505   3.914   1.358   6.590 -0.0123 -0.2882  0.1622
  180SOPE    HA20506   3.859   1.448   6.627  2.6923  0.5731  2.4769
  180SOPE    HB20507   4.021   1.385   6.606  0.6079 -2.4069 -0.0500
  180SOPE    C220508   3.888   1.242   6.686  0.3039  0.2507  0.2613
  180SOPE    HS20509   3.922   1.147   6.641 -1.5441 -0.6410  0.6536
  180SOPE   O2120510   3.740   1.233   6.693 -0.7901 -0.2442  0.1571
  180SOPE   C2120511   3.685   1.122   6.737  0.0027  0.2322  0.0243
  180SOPE   O2220512   3.746   1.022   6.766 -0.5939  0.1414 -0.4228
  180SOPE   C2220513   3.534   1.151   6.750  0.2406  0.1860  0.9522
  180SOPE   H2R20514   3.510   1.187   6.648  0.0233  0.5213  1.1196
  180SOPE   H2S20515   3.537   1.245   6.809  0.6437 -0.5035  2.0718
  180SOPE    C320516   3.947   1.255   6.826 -0.2017  0.1948 -0.2579
  180SOPE    HX20517   4.058   1.252   6.833 -0.0967  0.4562 -1.5554
  180SOPE    HY20518   3.907   1.174   6.890  0.5082  2.1042  2.8092
  180SOPE   O3120519   3.919   1.388   6.872 -0.3144 -0.3150  0.2198
  180SOPE   C3120520   3.840   1.403   6.970 -0.3589  0.0857 -0.0629
  180SOPE   O3220521   3.798   1.308   7.042 -0.3298  0.4290  0.0625
  180SOPE   C3220522   3.833   1.555   6.986  0.3796  0.1068 -0.9896
  180SOPE   H2X20523   3.766   1.596   6.908 -0.9637 -1.6195 -0.8154
  180SOPE   H2Y20524   3.935   1.597   6.977  0.6487  0.4829  2.4277
  180SOPE   C2320525   3.453   1.039   6.801 -0.5266 -0.7944 -0.0948
  180SOPE   H3R20526   3.451   1.051   6.911  1.2412  1.3846 -0.2035
  180SOPE   H3S20527   3.500   0.944   6.769 -0.1077  0.1864 -2.6064
  180SOPE   C2420528   3.320   1.050   6.741  0.1026 -0.3445  0.6732
  180SOPE   H4R20529   3.284   1.154   6.731 -0.8997 -0.7285  0.0971
  180SOPE   H4S20530   3.334   1.009   6.639  1.4481  1.1912  0.2139
  180SOPE   C2520531   3.210   0.976   6.810 -0.3728 -0.8617  0.0147
  180SOPE   H5R20532   3.115   0.978   6.753 -0.4184 -2.1950  0.0030
  180SOPE   H5S20533   3.240   0.869   6.813 -0.5963 -0.9059  1.2041
  180SOPE   C2620534   3.177   1.038   6.943 -0.5281 -0.1152 -0.5410
  180SOPE   H6R20535   3.211   0.960   7.015 -2.3645 -0.8349 -0.3825
  180SOPE   H6S20536   3.238   1.128   6.964 -0.2993  0.0713 -1.9114
  180SOPE   C2720537   3.025   1.075   6.963  0.2537 -0.2760 -0.1222
  180SOPE   H7R20538   3.019   1.171   6.907 -0.8572  0.3199  0.9580
  180SOPE   H7S20539   2.966   0.997   6.911 -1.0442 -0.8628  2.0691
  180SOPE   C2820540   2.970   1.080   7.108  0.2201 -0.6014  0.5385
  180SOPE   H8R20541   3.036   1.140   7.174 -0.2106 -2.5055  2.8351
  180SOPE   H8S20542   2.876   1.140   7.104  1.2538  1.0590  0.1295
  180SOPE   C2920543   2.945   0.944   7.167 -0.9213  0.2576  0.3624
  180SOPE   H9120544   3.030   0.877   7.145 -0.8835  0.7207 -0.9999
  180SOPE  C21020545   2.830   0.905   7.233  0.6113 -0.5467  0.0765
  180SOPE  H10120546   2.814   0.804   7.273 -3.1351 -0.1433 -0.0976
  180SOPE  C21120547   2.706   0.985   7.261  0.6518 -0.2638 -0.2208
  180SOPE  H11R20548   2.639   0.980   7.173  0.2072  0.0459  0.0933
  180SOPE  H11S20549   2.713   1.092   7.290 -4.9662  0.2440  0.4305
  180SOPE  C21220550   2.625   0.914   7.373 -0.1459  0.1862 -1.0255
  180SOPE  H12R20551   2.594   0.813   7.338  0.6575 -0.1787 -0.7012
  180SOPE  H12S20552   2.537   0.977   7.397 -0.6571 -0.4253 -1.2613
  180SOPE  C21320553   2.699   0.906   7.507 -0.3029  0.2283 -0.2334
  180SOPE  H13R20554   2.720   1.013   7.527  1.1768 -0.0694 -0.0671
  180SOPE  H13S20555   2.793   0.848   7.501 -1.1196 -1.2832  1.0657
  180SOPE  C21420556   2.609   0.860   7.615  0.9305 -0.4614  0.0238
  180SOPE  H14R20557   2.599   0.750   7.616 -0.2457 -0.3735  0.8651
  180SOPE  H14S20558   2.503   0.893   7.604  0.8256  0.4912  2.9852
  180SOPE  C21520559   2.650   0.898   7.753 -0.1191  0.4972  0.2734
  180SOPE  H15R20560   2.630   1.007   7.760  2.2035  1.0986 -1.0661
  180SOPE  H15S20561   2.756   0.873   7.778  0.3440  0.8672 -1.1815
  180SOPE  C21620562   2.565   0.838   7.857 -0.3635  0.3289 -0.0478
  180SOPE  H16R20563   2.548   0.732   7.830  0.8386  0.6129 -2.1160
  180SOPE  H16S20564   2.465   0.886   7.841 -0.4326 -0.5128 -2.5193
  180SOPE  C21720565   2.613   0.852   7.995  0.1928 -0.0672  0.3865
  180SOPE  H17R20566   2.650   0.956   8.006 -1.1142  0.5358 -0.7215
  180SOPE  H17S20567   2.699   0.781   8.000  0.1436 -0.2288 -0.8663
  180SOPE  C21820568   2.513   0.806   8.101  0.5503  0.2473 -0.4812
  180SOPE  H18R20569   2.552   0.830   8.202  1.1845 -0.4409 -0.5572
  180SOPE  H18S20570   2.494   0.697   8.091 -1.0617  0.2355  1.8477
  180SOPE  H18T20571   2.419   0.866   8.101  1.4590  1.8106  1.4235
  180SOPE   C3320572   3.777   1.596   7.124 -0.1357 -1.3344 -0.0164
  180SOPE   H3X20573   3.829   1.562   7.216  0.2161 -0.4781  0.1042
  180SOPE   H3Y20574   3.678   1.545   7.134  0.6396 -2.5510  2.5336
  180SOPE   C3420575   3.758   1.751   7.134  0.0273  0.4991  0.8307
  180SOPE   H4X20576   3.713   1.791   7.040 -1.8756 -2.0092  0.5503
  180SOPE   H4Y20577   3.857   1.790   7.164 -0.4930 -0.5512  4.3783
  180SOPE   C3520578   3.675   1.791   7.255 -0.2036 -0.3391 -0.5193
  180SOPE   H5X20579   3.574   1.744   7.246 -1.3178  1.3540  1.8506
  180SOPE   H5Y20580   3.673   1.902   7.249  0.6236 -0.1406  1.7226
  180SOPE   C3620581   3.731   1.751   7.390  0.1540  0.1502 -0.2994
  180SOPE   H6X20582   3.839   1.775   7.397  0.2304  0.0649 -1.0703
  180SOPE   H6Y20583   3.732   1.640   7.394 -1.1571  0.0873 -0.9949
  180SOPE   C3720584   3.662   1.802   7.511 -0.0321  0.2149  0.1622
  180SOPE   H7X20585   3.555   1.773   7.512 -0.2325  0.9250  0.1840
  180SOPE   H7Y20586   3.658   1.912   7.528  0.4170  0.1677  0.5942
  180SOPE   C3820587   3.728   1.746   7.644  0.0851  0.2730  0.8422
  180SOPE   H8X20588   3.835   1.775   7.655  0.4066 -0.5092 -0.0552
  180SOPE   H8Y20589   3.720   1.635   7.648  2.4255  0.0457  0.7122
  180SOPE   C3920590   3.664   1.792   7.769  0.6018 -0.1877 -0.6552
  180SOPE   H9X20591   3.559   1.756   7.777  0.9494 -1.0706  0.1456
  180SOPE   H9Y20592   3.661   1.904   7.769 -0.8540 -0.2059 -0.8134
  180SOPE  C31020593   3.751   1.752   7.885  0.3911  0.5015  0.4597
  180SOPE  H10X20594   3.857   1.783   7.870  1.6473 -2.1623  2.7768
  180SOPE  H10Y20595   3.764   1.642   7.897 -0.6063  0.3642  0.3900
  180SOPE  C31120596   3.715   1.821   8.017 -0.4793  0.8284 -0.1164
  180SOPE  H11X20597   3.615   1.775   8.031 -0.2124  0.2651 -0.0551
  180SOPE  H11Y20598   3.711   1.932   8.016 -0.6587  0.8201 -0.9067
  180SOPE  C31220599   3.815   1.777   8.141  0.0287  0.1003  0.6037
  180SOPE  H12X20600   3.791   1.845   8.226 -2.8780 -0.9384  0.7406
  180SOPE  H12Y20601   3.920   1.783   8.106 -0.0455 -0.3715  0.2943
  180SOPE  C31320602   3.791   1.633   8.193  0.4057  0.8240  0.6833
  180SOPE  H13X20603   3.822   1.554   8.122  2.2428  1.6004  0.5684
  180SOPE  H13Y20604   3.681   1.617   8.202  0.2784 -0.3108 -2.0483
  180SOPE  C31420605   3.862   1.604   8.324 -0.1949 -0.0380 -0.2324
  180SOPE  H14X20606   3.865   1.692   8.392  0.5241  0.3288 -0.7232
  180SOPE  H14Y20607   3.966   1.596   8.287 -0.1716  0.5538 -0.3192
  180SOPE  C31520608   3.818   1.478   8.399 -0.0654  0.4254 -0.6206
  180SOPE  H15X20609   3.827   1.391   8.330  0.8609  0.6605 -0.8058
  180SOPE  H15Y20610   3.708   1.481   8.416 -0.4918 -3.4479 -1.7440
  180SOPE  C31620611   3.876   1.456   8.538  0.2298 -0.5422 -0.2814
  180SOPE  H16X20612   3.835   1.539   8.600 -1.7186 -1.3180 -0.4510
  180SOPE  H16Y20613   3.987   1.462   8.538  0.1907  0.3690 -0.2655
  180SOPE  C31720614   3.826   1.322   8.596  0.3298  0.1939 -0.1536
  180SOPE  H17X20615   3.872   1.230   8.554  0.2196 -0.7335  1.6377
  180SOPE  H17Y20616   3.721   1.315   8.562  0.1624 -0.5516  0.4644
  180SOPE  C31820617   3.834   1.313   8.750 -0.2210  0.3553 -0.7423
  180SOPE  H18X20618   3.838   1.204   8.774 -2.6911  0.3965  0.0800
  180SOPE  H18Y20619   3.745   1.356   8.799 -0.1214  0.2818 -0.4933
  180SOPE  H18Z20620   3.923   1.367   8.788 -0.6812 -0.8226  2.2882
  181SOPE     N20621   0.062   1.385   6.324  0.0144  0.2825  0.7962
  181SOPE   HN120622   0.082   1.357   6.422  1.4480 -0.1499  0.3936
  181SOPE   HN220623   0.047   1.487   6.313 -1.3078  0.2015  1.6260
  181SOPE   HN320624  -0.034   1.345   6.313  0.3695 -0.0246 -1.7886
  181SOPE   C1220625   0.156   1.334   6.219  0.0897 -0.4114  0.6802
  181SOPE  H12A20626   0.251   1.392   6.222  1.2947 -2.1056 -1.1924
  181SOPE  H12B20627   0.113   1.354   6.119  1.7370 -1.4834 -0.2996
  181SOPE   C1120628   0.183   1.183   6.250  0.2241  0.4604  0.2414
  181SOPE  H11A20629   0.232   1.127   6.167  0.0517 -1.7474  1.5380
  181SOPE  H11B20630   0.081   1.143   6.263  0.5140 -0.3550  0.0564
  181SOPE     P20631   0.405   1.146   6.370 -0.0880  0.1129 -0.3558
  181SOPE   O1320632   0.468   1.280   6.355 -0.0990  0.5222  0.2181
  181SOPE   O1420633   0.431   1.038   6.267  0.5249 -0.1468 -0.1179
  181SOPE   O1220634   0.251   1.172   6.377  0.7845  0.6152  0.7581
  181SOPE   O1120635   0.442   1.089   6.519 -0.0401  0.0536  1.1571
  181SOPE    C120636   0.375   0.985   6.584 -0.2354  0.5386  0.0597
  181SOPE    HA20637   0.445   0.916   6.636 -1.1993 -0.4260  0.1175
  181SOPE    HB20638   0.311   0.931   6.511 -0.7948  1.1061  0.1272
  181SOPE    C220639   0.272   1.039   6.691  0.3924 -0.5479 -0.5419
  181SOPE    HS20640   0.210   1.117   6.643 -1.8328 -2.3352 -0.7361
  181SOPE   O2120641   0.356   1.083   6.795 -0.1506  0.1880  0.0984
  181SOPE   C2120642   0.319   1.184   6.864  0.3261  0.0532  0.0686
  181SOPE   O2220643   0.218   1.242   6.845 -0.4452  0.0344  0.1638
  181SOPE   C2220644   0.428   1.219   6.971  0.9368 -0.7190  0.5690
  181SOPE   H2R20645   0.532   1.202   6.934  0.3304  0.3222 -1.7794
  181SOPE   H2S20646   0.420   1.144   7.052 -2.2956 -0.8416  0.2603
  181SOPE    C320647   0.184   0.933   6.749  0.2605  0.5813  0.0896
  181SOPE    HX20648   0.118   0.894   6.668  1.5961  0.6000 -1.0469
  181SOPE    HY20649   0.117   0.985   6.821 -0.8835  1.2885 -1.4221
  181SOPE   O3120650   0.260   0.821   6.794  0.2223 -0.3089 -0.1873
  181SOPE   C3120651   0.294   0.820   6.926  0.0373 -1.6271  0.2846
  181SOPE   O3220652   0.261   0.912   7.000  0.1681 -0.1780 -0.1544
  181SOPE   C3220653   0.354   0.691   6.964 -0.2982 -0.1699 -0.0661
  181SOPE   H2X20654   0.315   0.603   6.910 -1.1519 -0.7468  1.4183
  181SOPE   H2Y20655   0.343   0.678   7.074 -0.6426 -0.5468 -0.1423
  181SOPE   C2320656   0.417   1.367   7.016  0.4441 -0.3224 -0.4142
  181SOPE   H3R20657   0.310   1.393   7.034  0.8797  0.1306  2.0053
  181SOPE   H3S20658   0.462   1.434   6.940 -1.5722  0.6423 -0.8287
  181SOPE   C2420659   0.475   1.391   7.159  0.3200  0.0324 -0.6454
  181SOPE   H4R20660   0.583   1.367   7.171  0.1211 -0.8596 -0.5613
  181SOPE   H4S20661   0.459   1.498   7.183 -3.5601 -0.8398  1.5292
  181SOPE   C2520662   0.399   1.316   7.269  0.0365 -0.2519  0.7948
  181SOPE   H5R20663   0.293   1.350   7.273 -0.4037 -1.1323 -1.4391
  181SOPE   H5S20664   0.400   1.208   7.244  0.5288 -0.6599  2.5052
  181SOPE   C2620665   0.467   1.333   7.401 -0.5009  0.4954 -0.2590
  181SOPE   H6R20666   0.534   1.246   7.416 -0.7922 -0.0132 -1.7041
  181SOPE   H6S20667   0.534   1.420   7.384 -1.5506  1.2299 -0.7142
  181SOPE   C2720668   0.370   1.338   7.515 -0.1759 -0.7098  0.2626
  181SOPE   H7R20669   0.310   1.430   7.497  0.9020 -0.3339 -1.5561
  181SOPE   H7S20670   0.310   1.244   7.524  0.7983 -1.2085  2.1453
  181SOPE   C2820671   0.447   1.357   7.645 -0.6681  0.0895 -0.0391
  181SOPE   H8R20672   0.516   1.276   7.675 -1.6871 -1.4283 -1.5829
  181SOPE   H8S20673   0.504   1.452   7.645 -1.4528  0.6558  3.1023
  181SOPE   C2920674   0.355   1.404   7.750 -0.0979  0.1120  0.7399
  181SOPE   H9120675   0.325   1.509   7.745 -0.8074 -0.0248  1.8434
  181SOPE  C21020676   0.308   1.341   7.856  0.7647  1.0166  0.6313
  181SOPE  H10120677   0.247   1.404   7.923  0.4485  2.1187 -0.6344
  181SOPE  C21120678   0.332   1.201   7.899 -0.3042  0.1100  0.1249
  181SOPE  H11R20679   0.391   1.146   7.823 -1.4811 -1.5357  0.3502
  181SOPE  H11S20680   0.237   1.143   7.906 -0.8628  1.1819  2.0473
  181SOPE  C21220681   0.403   1.193   8.041 -0.1482  0.4752 -0.6727
  181SOPE  H12R20682   0.501   1.244   8.033  0.3381 -0.5719 -1.4908
  181SOPE  H12S20683   0.432   1.088   8.061  0.3772  0.8493  0.6754
  181SOPE  C21320684   0.328   1.249   8.160 -0.3288  0.3136 -0.6382
  181SOPE  H13R20685   0.224   1.212   8.153 -0.3970  0.1764  0.9202
  181SOPE  H13S20686   0.311   1.358   8.147  1.5565  0.7277  0.1165
  181SOPE  C21420687   0.395   1.212   8.294  0.1508 -0.3844 -0.5142
  181SOPE  H14R20688   0.491   1.267   8.300  1.2506 -2.3308  1.6553
  181SOPE  H14S20689   0.403   1.101   8.301 -0.3986 -0.3352  1.4707
  181SOPE  C21520690   0.309   1.268   8.406 -0.0601  0.4093  0.5300
  181SOPE  H15R20691   0.211   1.216   8.395 -0.5070  1.5736 -1.7246
  181SOPE  H15S20692   0.310   1.378   8.385 -0.2330 -0.0896 -2.6233
  181SOPE  C21620693   0.368   1.230   8.542  0.6112 -0.2029  0.0144
  181SOPE  H16R20694   0.375   1.120   8.555  0.5233 -0.1622  0.4470
  181SOPE  H16S20695   0.298   1.264   8.621  1.8253 -1.7977  1.8893
  181SOPE  C21720696   0.499   1.299   8.584  0.5886 -0.3630 -0.3336
  181SOPE  H17R20697   0.488   1.408   8.562  0.1909  0.0598  1.7892
  181SOPE  H17S20698   0.578   1.250   8.522  0.9151  1.7387 -1.6952
  181SOPE  C21820699   0.523   1.275   8.735 -0.4303  0.1714  0.2404
  181SOPE  H18R20700   0.447   1.335   8.789  0.0320  0.1075  0.9628
  181SOPE  H18S20701   0.615   1.325   8.772  0.8462 -0.7464 -1.5234
  181SOPE  H18T20702   0.519   1.168   8.765 -2.2576 -0.1438 -0.9491
  181SOPE   C3320703   0.508   0.703   6.951  0.1855 -0.1221  0.5079
  181SOPE   H3X20704   0.527   0.717   6.842  0.0479  1.2382  0.6466
  181SOPE   H3Y20705   0.562   0.608   6.974  0.8472  0.1893  0.2712
  181SOPE   C3420706   0.586   0.814   7.027  0.3254 -0.1385  0.2772
  181SOPE   H4X20707   0.529   0.908   7.008  0.8237  0.3037  0.9444
  181SOPE   H4Y20708   0.680   0.833   6.971 -0.1761 -0.9832 -0.8866
  181SOPE   C3520709   0.600   0.797   7.172  0.6822 -0.3064 -0.6002
  181SOPE   H5X20710   0.647   0.699   7.197  0.8493 -0.9665 -3.2733
  181SOPE   H5Y20711   0.504   0.823   7.221 -0.1441 -0.8052 -1.9010
  181SOPE   C3620712   0.697   0.920   7.228  0.3840 -0.0993  0.2042
  181SOPE   H6X20713   0.643   1.016   7.215 -2.4859 -1.8309 -1.6168
  181SOPE   H6Y20714   0.784   0.922   7.159 -0.3483 -0.0387 -0.7267
  181SOPE   C3720715   0.735   0.911   7.381 -0.1131  0.2319  0.1696
  181SOPE   H7X20716   0.805   0.989   7.418  1.9404 -1.8341  0.9454
  181SOPE   H7Y20717   0.790   0.814   7.385 -0.3925 -0.0195 -1.4936
  181SOPE   C3820718   0.612   0.901   7.464  0.0578 -0.2148 -0.7859
  181SOPE   H8X20719   0.549   0.814   7.437 -1.2132  1.2363 -2.7966
  181SOPE   H8Y20720   0.555   0.996   7.451  0.1622 -0.2043 -1.1577
  181SOPE   C3920721   0.647   0.896   7.617 -0.2103  0.5772  0.5903
  181SOPE   H9X20722   0.687   0.993   7.653 -0.7244  0.1711  2.3427
  181SOPE   H9Y20723   0.721   0.814   7.625 -0.6509 -0.5663 -3.9421
  181SOPE  C31020724   0.525   0.865   7.699  0.2823  0.2527  0.1677
  181SOPE  H10X20725   0.479   0.768   7.669 -3.2758  2.5030 -2.4602
  181SOPE  H10Y20726   0.445   0.941   7.685  1.0097  1.1653  0.7765
  181SOPE  C31120727   0.568   0.865   7.847  0.1532  0.4948 -0.4537
  181SOPE  H11X20728   0.623   0.957   7.877 -2.3328  2.1398 -0.6974
  181SOPE  H11Y20729   0.643   0.783   7.842  0.6020  0.8746 -0.1010
  181SOPE  C31220730   0.459   0.834   7.949  0.6602 -0.0735 -0.4533
  181SOPE  H12X20731   0.412   0.734   7.937 -1.6533  0.7071  1.3712
  181SOPE  H12Y20732   0.383   0.914   7.935 -0.1974 -0.9522 -0.9524
  181SOPE  C31320733   0.508   0.825   8.091  0.0862  0.5808 -0.0184
  181SOPE  H13X20734   0.555   0.921   8.121 -0.2584  1.1622 -1.2754
  181SOPE  H13Y20735   0.597   0.759   8.088 -0.9521 -0.8826  0.4955
  181SOPE  C31420736   0.398   0.769   8.188 -0.2254 -0.0095 -0.0004
  181SOPE  H14X20737   0.372   0.669   8.149  1.0603 -1.0119  1.5795
  181SOPE  H14Y20738   0.304   0.827   8.179 -0.8511 -1.2377 -2.1055
  181SOPE  C31520739   0.440   0.769   8.334  0.6595  0.9359 -0.2655
  181SOPE  H15X20740   0.371   0.699   8.388  1.7988 -0.3059 -0.3657
  181SOPE  H15Y20741   0.419   0.860   8.393 -0.3510  0.2677  0.4486
  181SOPE  C31620742   0.579   0.719   8.358 -0.6945 -0.4172  0.3009
  181SOPE  H16X20743   0.652   0.791   8.314 -0.1089 -2.1250 -1.6629
  181SOPE  H16Y20744   0.600   0.621   8.310  1.4081  1.1356 -2.2430
  181SOPE  C31720745   0.611   0.712   8.512  0.6814  0.1548  0.3941
  181SOPE  H17X20746   0.718   0.681   8.520  0.3310 -1.1683  0.2374
  181SOPE  H17Y20747   0.541   0.641   8.562  0.5245  0.1157  0.1186
  181SOPE  C31820748   0.610   0.851   8.569  0.0662  0.4731  0.7724
  181SOPE  H18X20749   0.624   0.831   8.678 -1.0804 -0.7894  0.7131
  181SOPE  H18Y20750   0.524   0.919   8.552  1.5992  1.6823 -3.2528
  181SOPE  H18Z20751   0.697   0.907   8.528 -1.6734  1.2950 -2.0671
  182SOPE     N20752   0.868   0.312   6.178  0.0518 -0.0501  0.0106
  182SOPE   HN120753   0.811   0.302   6.091 -0.8088  0.9252  0.4437
  182SOPE   HN220754   0.930   0.231   6.200  1.4202  0.8588 -0.3512
  182SOPE   HN320755   0.818   0.336   6.266  0.4002 -2.0867  0.8315
  182SOPE   C1220756   0.968   0.423   6.157 -0.1702  0.7423  0.1509
  182SOPE  H12A20757   0.915   0.521   6.161 -0.1325  0.9055 -2.0738
  182SOPE  H12B20758   1.009   0.411   6.054  1.6812  0.8389  0.8399
  182SOPE   C1120759   1.092   0.421   6.245  1.3292 -0.1394 -0.8337
  182SOPE  H11A20760   1.060   0.457   6.345  1.0912  1.1523 -1.3497
  182SOPE  H11B20761   1.159   0.498   6.202 -0.0544  1.7822  0.2603
  182SOPE     P20762   1.203   0.215   6.371  0.0106 -0.2441 -0.1231
  182SOPE   O1320763   1.302   0.114   6.328 -0.7109  0.0215  0.6129
  182SOPE   O1420764   1.088   0.160   6.441 -0.0628 -0.4115 -0.2981
  182SOPE   O1220765   1.150   0.292   6.239 -0.6974  0.4411 -0.4943
  182SOPE   O1120766   1.268   0.328   6.461 -0.2594 -0.7821 -0.3682
  182SOPE    C120767   1.390   0.388   6.418 -0.2820  0.2221  0.3404
  182SOPE    HA20768   1.390   0.418   6.312 -0.2658  0.0931  0.3035
  182SOPE    HB20769   1.462   0.303   6.418 -0.9392 -0.3415 -0.1524
  182SOPE    C220770   1.438   0.507   6.498 -0.7793 -0.4675  0.1759
  182SOPE    HS20771   1.531   0.553   6.458 -0.1126 -0.2285  1.9264
  182SOPE   O2120772   1.463   0.476   6.638 -0.0419  0.5461 -0.3130
  182SOPE   C2120773   1.567   0.409   6.668  0.2782  0.5167 -0.9078
  182SOPE   O2220774   1.658   0.381   6.588  0.2008  0.1211 -0.1310
  182SOPE   C2220775   1.571   0.394   6.815 -0.2207 -0.5906 -0.7474
  182SOPE   H2R20776   1.509   0.303   6.831 -0.2695 -0.1557  2.0888
  182SOPE   H2S20777   1.522   0.484   6.859  1.1009  0.6811 -1.7878
  182SOPE    C320778   1.327   0.616   6.510 -0.0053  1.1681 -0.0841
  182SOPE    HX20779   1.240   0.559   6.550  0.1674 -0.9377 -2.4732
  182SOPE    HY20780   1.301   0.632   6.403 -0.7349  0.2090 -0.0620
  182SOPE   O3120781   1.350   0.736   6.587  0.1519 -0.4608 -0.4406
  182SOPE   C3120782   1.250   0.819   6.597  0.2426 -0.0332 -0.3228
  182SOPE   O3220783   1.140   0.802   6.547  0.2059  0.0366  0.3620
  182SOPE   C3220784   1.302   0.948   6.663 -0.3142  0.3787  0.3975
  182SOPE   H2X20785   1.312   1.016   6.576  0.9737  0.5973  0.6948
  182SOPE   H2Y20786   1.405   0.932   6.700  0.2525  1.7383 -0.5157
  182SOPE   C2320787   1.712   0.380   6.871  0.0330  0.0908 -0.7207
  182SOPE   H3R20788   1.791   0.437   6.818 -0.4627  2.6574  1.0862
  182SOPE   H3S20789   1.739   0.273   6.870 -0.5464 -0.0816  0.1625
  182SOPE   C2420790   1.724   0.440   7.020 -0.3922  0.8200  0.2553
  182SOPE   H4R20791   1.825   0.415   7.060 -1.1012  0.9214  2.2370
  182SOPE   H4S20792   1.710   0.550   7.021  0.8257  1.0050 -0.8164
  182SOPE   C2520793   1.614   0.388   7.116  0.3471 -0.3754 -0.2680
  182SOPE   H5R20794   1.516   0.440   7.110  0.4631 -0.0657  0.3533
  182SOPE   H5S20795   1.584   0.289   7.078 -0.6423 -0.7468  1.3657
  182SOPE   C2620796   1.653   0.390   7.268 -0.3878 -0.2588  0.1496
  182SOPE   H6R20797   1.589   0.322   7.328 -0.3459 -0.5985 -0.1835
  182SOPE   H6S20798   1.757   0.353   7.285 -0.3692  0.0145  0.6307
  182SOPE   C2720799   1.652   0.540   7.329 -0.3877 -0.2525  0.6784
  182SOPE   H7R20800   1.712   0.593   7.252 -0.7360  1.0231  1.2470
  182SOPE   H7S20801   1.549   0.581   7.319 -0.7498 -0.8611  1.7141
  182SOPE   C2820802   1.722   0.557   7.462  0.4157  0.1700  0.1302
  182SOPE   H8R20803   1.826   0.519   7.461  0.4954  0.3844 -0.6456
  182SOPE   H8S20804   1.733   0.666   7.478 -0.0787 -0.2060  4.1266
  182SOPE   C2920805   1.641   0.482   7.565 -0.1024 -0.2079  0.3919
  182SOPE   H9120806   1.642   0.375   7.541 -0.5571  0.2067 -1.6478
  182SOPE  C21020807   1.594   0.539   7.677 -0.1305 -0.0324  0.0987
  182SOPE  H10120808   1.537   0.478   7.748  3.6381 -1.5117  2.1666
  182SOPE  C21120809   1.614   0.686   7.716  0.9026  0.6851 -0.5738
  182SOPE  H11R20810   1.524   0.744   7.684  2.2591  2.7953 -0.7692
  182SOPE  H11S20811   1.711   0.721   7.674 -0.0098  0.7348 -2.7528
  182SOPE  C21220812   1.603   0.708   7.870  0.0429 -0.2495 -0.0139
  182SOPE  H12R20813   1.701   0.691   7.919  0.1795 -0.9377 -0.5069
  182SOPE  H12S20814   1.541   0.624   7.909  0.1769 -1.0864 -1.5154
  182SOPE  C21320815   1.541   0.838   7.917 -0.0917  0.1123  0.7149
  182SOPE  H13R20816   1.448   0.861   7.861  1.8755 -0.0128 -2.9166
  182SOPE  H13S20817   1.618   0.917   7.902  0.2685 -0.2514  0.6311
  182SOPE  C21420818   1.500   0.846   8.066  0.2052  0.5842 -0.5492
  182SOPE  H14R20819   1.583   0.828   8.138  0.1300 -1.1251 -0.8334
  182SOPE  H14S20820   1.436   0.758   8.088  2.4110 -1.3880 -1.5471
  182SOPE  C21520821   1.432   0.979   8.101 -0.2236  0.0708 -0.5314
  182SOPE  H15R20822   1.334   0.997   8.051 -0.6824  0.6100  0.5469
  182SOPE  H15S20823   1.498   1.060   8.062  1.1372 -0.3635  0.8081
  182SOPE  C21620824   1.378   1.007   8.246  0.0109  0.3530 -0.0564
  182SOPE  H16R20825   1.373   1.117   8.254 -0.4851  0.2825  0.6912
  182SOPE  H16S20826   1.455   0.974   8.320 -1.6793 -0.0259  1.6071
  182SOPE  C21720827   1.248   0.933   8.292 -0.0532 -0.6057 -0.3146
  182SOPE  H17R20828   1.273   0.828   8.267  0.0915 -1.3576  2.6837
  182SOPE  H17S20829   1.166   0.977   8.230  0.9772  1.8012 -0.0697
  182SOPE  C21820830   1.207   0.956   8.438 -0.0108  0.0033  0.3278
  182SOPE  H18R20831   1.288   0.910   8.499  2.9768  1.3814 -2.3352
  182SOPE  H18S20832   1.119   0.892   8.460  0.3608 -0.6578 -0.0811
  182SOPE  H18T20833   1.193   1.062   8.468  2.3355 -0.0840  2.0246
  182SOPE   C3320834   1.196   0.983   6.767  0.3342 -0.5129 -0.4953
  182SOPE   H3X20835   1.090   0.976   6.732 -0.1185 -0.9812  0.8751
  182SOPE   H3Y20836   1.224   1.085   6.800  0.6269  0.0614 -2.4129
  182SOPE   C3420837   1.202   0.893   6.890 -0.8142  0.7988 -0.0644
  182SOPE   H4X20838   1.307   0.887   6.928 -0.6944  1.2963 -0.3123
  182SOPE   H4Y20839   1.178   0.785   6.874  2.1436  0.0846 -0.2652
  182SOPE   C3520840   1.141   0.955   7.019 -0.6631  0.2450  0.2200
  182SOPE   H5X20841   1.036   0.993   7.016 -0.4928  0.6754 -0.6777
  182SOPE   H5Y20842   1.195   1.051   7.032 -0.0389 -0.0575 -0.1226
  182SOPE   C3620843   1.164   0.867   7.142  0.3524  0.0921 -0.8245
  182SOPE   H6X20844   1.265   0.823   7.146  0.1864 -0.3634 -1.3822
  182SOPE   H6Y20845   1.079   0.794   7.149 -0.6126  1.3532  2.3719
  182SOPE   C3720846   1.160   0.950   7.274  0.2218 -0.1058  0.2843
  182SOPE   H7X20847   1.068   1.012   7.275 -0.1699 -0.6853  1.6612
  182SOPE   H7Y20848   1.256   1.003   7.289 -0.0455  0.3917  0.2596
  182SOPE   C3820849   1.139   0.860   7.395  0.1593  0.2399 -0.3253
  182SOPE   H8X20850   1.199   0.767   7.390  1.2464  0.8397  1.0552
  182SOPE   H8Y20851   1.030   0.837   7.393  0.5372 -1.7773  0.4419
  182SOPE   C3920852   1.169   0.927   7.532 -0.6045  0.2241 -0.3299
  182SOPE   H9X20853   1.135   1.032   7.541 -0.9821  0.0477  0.4338
  182SOPE   H9Y20854   1.276   0.912   7.560 -0.7506 -1.8849 -0.7030
  182SOPE  C31020855   1.088   0.861   7.652 -0.2981  0.2437  0.1951
  182SOPE  H10X20856   1.106   0.752   7.662  1.6685  0.5876  0.9379
  182SOPE  H10Y20857   0.980   0.877   7.632 -0.7045 -0.0625  1.9612
  182SOPE  C31120858   1.114   0.934   7.788  0.2809 -0.4015 -0.2103
  182SOPE  H11X20859   1.055   1.028   7.789  1.5073  0.4502  3.0621
  182SOPE  H11Y20860   1.221   0.962   7.798  0.3905 -1.1526  0.8655
  182SOPE  C31220861   1.075   0.864   7.917 -0.1568 -0.1706  0.3414
  182SOPE  H12X20862   1.070   0.929   8.007 -0.9041  1.2007 -0.6612
  182SOPE  H12Y20863   1.153   0.786   7.932  0.6139  0.5312  0.0262
  182SOPE  C31320864   0.939   0.794   7.908  0.1977 -0.6650 -0.6927
  182SOPE  H13X20865   0.933   0.737   7.813  0.9823 -2.7397  0.4272
  182SOPE  H13Y20866   0.861   0.872   7.906 -0.1685 -0.9350  1.0430
  182SOPE  C31420867   0.925   0.693   8.024  0.0050  0.0551  0.4562
  182SOPE  H14X20868   1.005   0.617   8.008  0.0827  0.4791 -1.3106
  182SOPE  H14Y20869   0.826   0.649   8.001  0.6374 -0.4655 -1.4723
  182SOPE  C31520870   0.936   0.749   8.166  0.4941  0.5610 -0.0401
  182SOPE  H15X20871   0.835   0.789   8.188 -0.1076 -0.5495 -0.7231
  182SOPE  H15Y20872   1.011   0.831   8.174 -1.5521  2.3762  1.9063
  182SOPE  C31620873   0.991   0.650   8.270 -0.1060 -0.7394 -0.5968
  182SOPE  H16X20874   0.999   0.714   8.361 -1.6094 -0.8953 -0.3299
  182SOPE  H16Y20875   1.086   0.606   8.234 -0.0980 -1.8278  0.6525
  182SOPE  C31720876   0.896   0.536   8.297 -0.9634 -0.1686 -0.5667
  182SOPE  H17X20877   0.805   0.550   8.235 -0.5783 -2.3505 -1.7306
  182SOPE  H17Y20878   0.848   0.531   8.397 -2.6774 -1.4599 -1.4061
  182SOPE  C31820879   0.953   0.400   8.280  0.2161 -0.3222  0.4074
  182SOPE  H18X20880   1.058   0.392   8.313  0.4443 -2.8280 -0.6610
  182SOPE  H18Y20881   0.968   0.374   8.173  2.2693 -0.0218  0.5963
  182SOPE  H18Z20882   0.911   0.314   8.338  0.2299 -0.3687  0.3495
  183SOPE     N20883   5.636   1.405   6.068  0.2839 -0.2755  0.0240
  183SOPE   HN120884   5.609   1.500   6.036 -1.0438 -1.0299 -1.2504
  183SOPE   HN220885   5.729   1.384   6.025  0.2797  0.2236 -0.2438
  183SOPE   HN320886   5.568   1.337   6.028 -0.7830  0.6938  0.1473
  183SOPE   C1220887   5.618   1.385   6.213  0.7032 -0.8391 -0.6527
  183SOPE  H12A20888   5.522   1.428   6.247  0.6443 -1.8594  0.5738
  183SOPE  H12B20889   5.695   1.455   6.252 -0.1260 -1.1076  1.6074
  183SOPE   C1120890   5.636   1.242   6.254  0.1680  0.0765 -0.6467
  183SOPE  H11A20891   5.548   1.187   6.213 -0.1341 -0.4300  0.6088
  183SOPE  H11B20892   5.634   1.238   6.365 -0.5547 -1.0496 -0.6842
  183SOPE     P20893   5.778   1.030   6.227 -0.2766  0.3319  0.2504
  183SOPE   O1320894   5.918   0.992   6.205  0.1837  0.1574 -0.3770
  183SOPE   O1420895   5.688   0.964   6.126 -0.4126 -0.4188 -0.3363
  183SOPE   O1220896   5.760   1.190   6.210  0.6915  0.2361 -1.0036
  183SOPE   O1120897   5.726   1.000   6.370 -0.0398 -0.0839  0.1565
  183SOPE    C120898   5.791   0.898   6.444 -1.0241 -0.2136 -0.4021
  183SOPE    HA20899   5.881   0.936   6.497 -2.1469  0.3279  1.2135
  183SOPE    HB20900   5.825   0.813   6.382  2.7454 -1.5175  2.9958
  183SOPE    C220901   5.696   0.825   6.543 -0.5150 -0.3188  0.1640
  183SOPE    HS20902   5.600   0.803   6.491 -0.3766  0.3084 -0.3681
  183SOPE   O2120903   5.681   0.917   6.656 -0.7365 -0.3916  0.1506
  183SOPE   C2120904   5.559   0.970   6.673  0.0497  0.0444  0.3486
  183SOPE   O2220905   5.465   0.944   6.603 -0.3884  0.0765  0.2822
  183SOPE   C2220906   5.555   1.076   6.778 -0.0105  0.7940  0.2744
  183SOPE   H2R20907   5.586   1.172   6.731 -2.8552  1.1036 -1.1779
  183SOPE   H2S20908   5.629   1.037   6.852  1.4939  2.8950 -0.0071
  183SOPE    C320909   5.735   0.687   6.598  0.3394  0.5977  0.1304
  183SOPE    HX20910   5.763   0.621   6.514 -3.0545 -1.2508  0.2657
  183SOPE    HY20911   5.643   0.633   6.629 -1.1913  3.9268  1.9398
  183SOPE   O3120912   5.833   0.691   6.697 -0.7573  0.2682 -0.1595
  183SOPE   C3120913   5.829   0.594   6.787  1.5253 -0.3077 -0.4408
  183SOPE   O3220914   5.744   0.504   6.787  0.3787 -0.1585  0.1152
  183SOPE   C3220915   5.946   0.611   6.881  0.0344  0.9025 -0.2998
  183SOPE   H2X20916   5.934   0.704   6.941 -0.2388  0.1994  0.7490
  183SOPE   H2Y20917   6.043   0.618   6.827  0.1312  0.7039 -0.1516
  183SOPE   C2320918   5.424   1.089   6.862 -0.0431 -0.3109  0.2910
  183SOPE   H3R20919   5.329   1.102   6.806 -0.6235 -0.0471  1.3069
  183SOPE   H3S20920   5.430   1.174   6.933 -0.4745 -0.5063  0.5664
  183SOPE   C2420921   5.399   0.968   6.954 -0.1926 -0.1397 -0.3649
  183SOPE   H4R20922   5.361   0.890   6.883 -0.6717  0.0249 -0.2904
  183SOPE   H4S20923   5.488   0.934   7.010 -1.0063  1.0140  1.6986
  183SOPE   C2520924   5.279   0.987   7.057 -0.6634 -0.6082 -0.0040
  183SOPE   H5R20925   5.190   1.026   7.004 -0.8321 -1.7544 -0.5925
  183SOPE   H5S20926   5.256   0.886   7.098 -0.1088 -0.1525  1.4931
  183SOPE   C2620927   5.319   1.083   7.174  0.5718 -0.2674  0.4186
  183SOPE   H6R20928   5.401   1.050   7.242  1.0379  0.7232  0.3485
  183SOPE   H6S20929   5.348   1.174   7.118 -0.2132  0.3555  1.0173
  183SOPE   C2720930   5.202   1.121   7.264 -0.3860  0.0499 -0.8004
  183SOPE   H7R20931   5.147   1.206   7.217 -0.7606 -0.1837 -0.7815
  183SOPE   H7S20932   5.129   1.042   7.292  0.4331 -0.0220  1.3415
  183SOPE   C2820933   5.240   1.179   7.400  0.2928 -0.6009 -0.3573
  183SOPE   H8R20934   5.287   1.280   7.394 -1.9508  0.5260 -0.0891
  183SOPE   H8S20935   5.152   1.210   7.460 -3.1034  0.7141 -5.3707
  183SOPE   C2920936   5.329   1.099   7.485  0.3660 -0.0706  0.8672
  183SOPE   H9120937   5.351   1.000   7.442 -0.1358  0.2881 -0.2525
  183SOPE  C21020938   5.381   1.125   7.601 -0.0549 -0.1530  0.3758
  183SOPE  H10120939   5.456   1.051   7.632 -0.8774 -1.5939 -0.9114
  183SOPE  C21120940   5.371   1.252   7.681  0.3407 -0.4221 -0.4129
  183SOPE  H11R20941   5.307   1.328   7.630  1.0197  0.0832 -0.5264
  183SOPE  H11S20942   5.468   1.306   7.683  0.4494 -0.4643 -2.4120
  183SOPE  C21220943   5.316   1.234   7.827  0.0006  0.8626 -0.4275
  183SOPE  H12R20944   5.327   1.333   7.876  1.4618  1.6201 -2.1439
  183SOPE  H12S20945   5.371   1.153   7.880  0.3592  0.2618 -1.6914
  183SOPE  C21320946   5.170   1.193   7.830  0.3380  0.6017 -0.0443
  183SOPE  H13R20947   5.151   1.088   7.801 -3.4059  1.3053 -0.5734
  183SOPE  H13S20948   5.115   1.243   7.747  2.0754  0.1022 -1.5837
  183SOPE  C21420949   5.097   1.212   7.965  0.7627  0.0947  0.2363
  183SOPE  H14R20950   4.991   1.181   7.954  0.8785  0.0330 -0.8746
  183SOPE  H14S20951   5.102   1.323   7.977 -0.9730  0.0323  2.0263
  183SOPE  C21520952   5.157   1.136   8.082 -0.3346 -0.0279  0.3978
  183SOPE  H15R20953   5.104   1.177   8.171  0.0455 -0.3419  0.7712
  183SOPE  H15S20954   5.262   1.170   8.094  0.1981 -1.0443 -1.1308
  183SOPE  C21620955   5.141   0.989   8.074 -0.4026 -0.0364  0.0843
  183SOPE  H16R20956   5.171   0.950   7.974  1.4409  2.6009 -0.4919
  183SOPE  H16S20957   5.036   0.953   8.084  0.2955 -1.7223  2.2489
  183SOPE  C21720958   5.221   0.917   8.185 -0.1430 -0.3136  0.0592
  183SOPE  H17R20959   5.331   0.931   8.184 -0.2029  0.1917 -1.1051
  183SOPE  H17S20960   5.221   0.806   8.175 -2.3661 -0.4385  0.9097
  183SOPE  C21820961   5.163   0.961   8.315  0.0452 -0.6362  0.5998
  183SOPE  H18R20962   5.203   0.932   8.414  0.4313  1.0669  0.9853
  183SOPE  H18S20963   5.055   0.934   8.318 -0.4347  0.8292 -1.3311
  183SOPE  H18T20964   5.159   1.072   8.318  1.8080 -0.5516  0.3871
  183SOPE   C3320965   5.952   0.488   6.975 -0.1092  0.2022 -0.2655
  183SOPE   H3X20966   5.943   0.405   6.901 -1.8787  0.3002 -0.2119
  183SOPE   H3Y20967   5.857   0.491   7.033 -0.3723 -0.4631 -0.6514
  183SOPE   C3420968   6.077   0.506   7.066 -0.0205 -0.0246 -0.3201
  183SOPE   H4X20969   6.148   0.559   6.998 -0.0728  0.4443 -0.0111
  183SOPE   H4Y20970   6.124   0.411   7.098 -0.8108 -1.4858 -3.1207
  183SOPE   C3520971   6.049   0.586   7.192 -0.2722 -0.4759  0.2490
  183SOPE   H5X20972   6.004   0.684   7.167 -0.1081 -0.6379 -0.7303
  183SOPE   H5Y20973   6.143   0.600   7.249  0.0646  1.3784 -0.6978
  183SOPE   C3620974   5.963   0.504   7.282 -0.2631 -0.0060 -0.3301
  183SOPE   H6X20975   6.008   0.403   7.265  1.4253  0.8166 -1.0243
  183SOPE   H6Y20976   5.855   0.506   7.259 -0.2570  0.7600 -0.3221
  183SOPE   C3720977   5.975   0.536   7.432  0.0320 -0.0665 -0.2282
  183SOPE   H7X20978   5.927   0.636   7.441  0.8822  0.9940 -4.6907
  183SOPE   H7Y20979   6.082   0.552   7.456 -0.1140  1.5068 -0.5178
  183SOPE   C3820980   5.920   0.435   7.534 -0.7044  0.3400  0.0954
  183SOPE   H8X20981   5.986   0.346   7.524 -0.9395  0.1509  0.2265
  183SOPE   H8Y20982   5.818   0.399   7.509  0.0731 -3.2087  1.4278
  183SOPE   C3920983   5.927   0.491   7.683  0.2359  0.1076 -0.2503
  183SOPE   H9X20984   5.841   0.562   7.679  0.7768  0.7521 -0.5148
  183SOPE   H9Y20985   6.028   0.533   7.698  0.8468 -0.8795 -1.4105
  183SOPE  C31020986   5.911   0.379   7.785  0.2452 -0.2566  0.3424
  183SOPE  H10X20987   5.983   0.296   7.771  0.5708 -0.4447  2.6726
  183SOPE  H10Y20988   5.809   0.341   7.767 -0.2186  1.3075 -0.5318
  183SOPE  C31120989   5.936   0.439   7.925 -0.0025 -0.3349 -0.2336
  183SOPE  H11X20990   6.028   0.501   7.927 -0.0780 -0.2189 -0.3564
  183SOPE  H11Y20991   5.946   0.347   7.987 -0.0617  0.2283  0.6337
  183SOPE  C31220992   5.821   0.525   7.984  0.2994  0.4764  0.3106
  183SOPE  H12X20993   5.719   0.483   7.971 -0.4495  2.1444  0.6032
  183SOPE  H12Y20994   5.828   0.616   7.921  0.6357  1.1996  1.3671
  183SOPE  C31320995   5.842   0.560   8.131  0.5364 -0.1715  0.3712
  183SOPE  H13X20996   5.785   0.655   8.138  1.8082  0.5474  1.3608
  183SOPE  H13Y20997   5.945   0.595   8.153  1.1300 -1.8272  0.3312
  183SOPE  C31420998   5.816   0.455   8.243  0.4419  0.6054 -0.5008
  183SOPE  H14X20999   5.905   0.392   8.261 -0.2556  0.2587  2.1852
  183SOPE  H14Y21000   5.728   0.405   8.197 -0.6681  2.5834 -0.6460
  183SOPE  C31521001   5.767   0.524   8.371  0.2829  0.1972 -0.1137
  183SOPE  H15X21002   5.686   0.594   8.342 -0.9279 -1.4526 -0.8739
  183SOPE  H15Y21003   5.860   0.567   8.415  0.1830 -1.6648  2.1210
  183SOPE  C31621004   5.710   0.427   8.475  0.8733 -0.1109  0.1297
  183SOPE  H16X21005   5.774   0.336   8.466 -0.2706 -0.7740 -2.1805
  183SOPE  H16Y21006   5.612   0.384   8.444  0.5923  0.6910 -0.1095
  183SOPE  C31721007   5.692   0.493   8.610 -0.2230 -0.3133 -0.4735
  183SOPE  H17X21008   5.787   0.541   8.645  0.7382 -1.9011 -0.8262
  183SOPE  H17Y21009   5.696   0.414   8.688  2.0244  0.1082 -0.0675
  183SOPE  C31821010   5.568   0.584   8.618 -0.6716 -0.0273 -0.2001
  183SOPE  H18X21011   5.479   0.546   8.672  0.9540 -2.4800  0.9878
  183SOPE  H18Y21012   5.536   0.615   8.516  0.9751  0.7844 -0.5110
  183SOPE  H18Z21013   5.596   0.682   8.662 -1.4536  0.5906 -1.0383
  184SOPE     N21014   5.571   2.411   6.346 -0.1865 -0.3618  0.2159
  184SOPE   HN121015   5.557   2.319   6.392 -0.4900 -0.2106  0.4343
  184SOPE   HN221016   5.565   2.488   6.416  3.2221  1.5297 -1.3396
  184SOPE   HN321017   5.491   2.427   6.281  0.5746  0.3953 -0.5561
  184SOPE   C1221018   5.703   2.440   6.277  0.2205 -0.9493 -0.0780
  184SOPE  H12A21019   5.767   2.490   6.353 -1.4725 -0.0923  0.8446
  184SOPE  H12B21020   5.677   2.508   6.193  0.0497  0.7177  1.2808
  184SOPE   C1121021   5.760   2.301   6.231 -0.3601 -1.0265  1.1183
  184SOPE  H11A21022   5.861   2.322   6.189 -0.5765  0.4772  1.3249
  184SOPE  H11B21023   5.692   2.277   6.146  0.8171  0.4460 -0.2979
  184SOPE     P21024   5.876   2.201   6.432  0.1876  0.1363 -0.1532
  184SOPE   O1321025   5.992   2.279   6.392 -0.2131 -0.3946 -0.1598
  184SOPE   O1421026   5.905   2.057   6.462  0.2083 -0.2506 -0.2081
  184SOPE   O1221027   5.753   2.207   6.333  0.7174  0.4139  0.3035
  184SOPE   O1121028   5.815   2.270   6.558  0.5329 -0.1243 -0.2778
  184SOPE    C121029   5.696   2.215   6.625 -0.0608  0.2576  0.5009
  184SOPE    HA21030   5.645   2.132   6.571  1.5388 -0.5682  0.1921
  184SOPE    HB21031   5.627   2.302   6.631  0.6167  0.9637 -1.3414
  184SOPE    C221032   5.723   2.158   6.772  0.6882  0.9789 -0.2239
  184SOPE    HS21033   5.628   2.133   6.823  2.4807 -0.7241  2.5637
  184SOPE   O2121034   5.811   2.250   6.842  0.1278 -0.5838 -0.3293
  184SOPE   C2121035   5.740   2.343   6.904 -0.2212 -0.1765  0.5882
  184SOPE   O2221036   5.622   2.364   6.897 -0.0901  0.4092  0.6342
  184SOPE   C2221037   5.843   2.429   6.987  0.3828 -0.4464  0.4099
  184SOPE   H2R21038   5.786   2.494   7.056  2.6553  1.5357  0.5639
  184SOPE   H2S21039   5.892   2.484   6.904  2.1346 -0.5606  1.3134
  184SOPE    C321040   5.783   2.017   6.762  0.4600 -0.3811  0.3497
  184SOPE    HX21041   5.888   2.028   6.726  1.1297 -1.4137  1.8488
  184SOPE    HY21042   5.719   1.957   6.694 -0.7787  0.6468  0.5779
  184SOPE   O3121043   5.773   1.949   6.886 -0.2410  0.5342  0.1362
  184SOPE   C3121044   5.872   1.959   6.973 -0.2192 -0.8098  0.3025
  184SOPE   O3221045   5.981   2.009   6.952  0.3728  0.4739  0.2842
  184SOPE   C3221046   5.846   1.870   7.094 -0.1156  0.1832 -0.0277
  184SOPE   H2X21047   5.835   1.764   7.063  0.7932 -0.5257  1.8804
  184SOPE   H2Y21048   5.746   1.896   7.135 -0.5887 -1.5869  0.0148
  184SOPE   C2321049   5.950   2.345   7.061 -0.3959  0.1850 -0.3873
  184SOPE   H3R21050   5.997   2.275   6.989 -0.8143 -1.2435  0.6832
  184SOPE   H3S21051   5.904   2.285   7.143  2.4203 -3.0772 -0.9681
  184SOPE   C2421052   6.065   2.431   7.125  1.0394  0.4623 -0.3336
  184SOPE   H4R21053   6.103   2.497   7.044 -1.1248  0.1876 -1.6525
  184SOPE   H4S21054   6.033   2.503   7.203  2.6314  1.4613 -0.5736
  184SOPE   C2521055   6.168   2.340   7.183 -0.3177 -0.1585 -0.5758
  184SOPE   H5R21056   6.126   2.254   7.239 -4.1458  1.5562 -0.4465
  184SOPE   H5S21057   6.224   2.291   7.100  0.2609 -0.0527 -0.2496
  184SOPE   C2621058   6.282   2.409   7.256 -0.1615 -0.6526 -0.9284
  184SOPE   H6R21059   6.364   2.337   7.275 -1.3044 -1.9886 -0.9321
  184SOPE   H6S21060   6.321   2.496   7.198 -0.0991  0.3763  0.5937
  184SOPE   C2721061   6.233   2.457   7.399 -0.6799  0.2144  0.3004
  184SOPE   H7R21062   6.165   2.545   7.387 -0.8800  0.1106  0.6526
  184SOPE   H7S21063   6.165   2.376   7.434  1.1305 -0.7893  1.6136
  184SOPE   C2821064   6.339   2.485   7.503 -0.2597  0.2820  0.3135
  184SOPE   H8R21065   6.284   2.531   7.588 -2.8955 -0.2539 -0.9954
  184SOPE   H8S21066   6.384   2.389   7.536  0.6388  0.0885 -1.3596
  184SOPE   C2921067   6.445   2.563   7.438 -0.1654 -0.6448  0.0254
  184SOPE   H9121068   6.511   2.496   7.381  0.6869 -0.7697  1.1332
  184SOPE  C21021069   6.469   2.691   7.446 -0.1650 -0.3445 -0.0842
  184SOPE  H10121070   6.561   2.733   7.403 -0.2677  0.7925  0.7671
  184SOPE  C21121071   6.386   2.785   7.526  0.3913 -0.4410  0.6106
  184SOPE  H11R21072   6.298   2.732   7.568  1.0730 -1.8541  0.3379
  184SOPE  H11S21073   6.353   2.874   7.468  1.3620 -0.4281  0.0540
  184SOPE  C21221074   6.465   2.849   7.645 -0.2551  0.1192 -0.1105
  184SOPE  H12R21075   6.510   2.945   7.611 -0.9077 -0.6787 -3.6705
  184SOPE  H12S21076   6.544   2.781   7.684  0.6057  0.6560 -0.8803
  184SOPE  C21321077   6.372   2.902   7.755  0.0806  1.0418  0.3858
  184SOPE  H13R21078   6.374   2.829   7.839 -0.7189  0.5593 -0.0003
  184SOPE  H13S21079   6.269   2.907   7.712  0.8594 -0.9007 -1.9143
  184SOPE  C21421080   6.406   3.046   7.797 -0.4204 -0.6113 -0.1461
  184SOPE  H14R21081   6.324   3.084   7.861  2.2207 -0.0403  3.1835
  184SOPE  H14S21082   6.418   3.111   7.708 -0.2938 -1.4393 -0.7441
  184SOPE  C21521083   6.531   3.046   7.891  0.6137  0.3604 -0.4466
  184SOPE  H15R21084   6.624   3.027   7.833  2.9101 -0.1782  3.0812
  184SOPE  H15S21085   6.530   2.967   7.969 -1.3588 -0.1176 -0.9041
  184SOPE  C21621086   6.555   3.180   7.970 -0.3170  0.1548 -0.2141
  184SOPE  H16R21087   6.459   3.199   8.023  0.3496  0.1962  1.0063
  184SOPE  H16S21088   6.593   3.262   7.905  0.5462  0.5346  0.7385
  184SOPE  C21721089   6.656   3.162   8.087  0.6562 -0.5230  0.0113
  184SOPE  H17R21090   6.624   3.096   8.170  0.8804 -1.3910 -0.5806
  184SOPE  H17S21091   6.652   3.264   8.132 -2.8651  0.7422 -2.6191
  184SOPE  C21821092   6.799   3.114   8.056  0.6726  0.4023  0.2115
  184SOPE  H18R21093   6.840   3.184   7.981  0.9377  0.4092  0.3597
  184SOPE  H18S21094   6.794   3.015   8.004 -2.3177 -0.1235  1.3224
  184SOPE  H18T21095   6.853   3.115   8.153 -2.2836  0.0275  1.9730
  184SOPE   C3321096   5.953   1.886   7.205  0.4377  0.5391 -0.1226
  184SOPE   H3X21097   5.951   1.990   7.242 -2.5827  0.3799  0.3436
  184SOPE   H3Y21098   6.056   1.865   7.168  0.3788  2.2037 -1.3781
  184SOPE   C3421099   5.909   1.792   7.317  0.3183  0.3685 -0.2518
  184SOPE   H4X21100   5.930   1.685   7.297 -1.8271 -0.3099  0.8212
  184SOPE   H4Y21101   5.799   1.797   7.327  0.3878  0.0064  0.8691
  184SOPE   C3521102   5.971   1.839   7.451  0.6362  0.6015 -0.0347
  184SOPE   H5X21103   5.970   1.950   7.456 -0.5163  0.6252 -0.5296
  184SOPE   H5Y21104   6.076   1.801   7.450  0.5214  0.2603 -1.0959
  184SOPE   C3621105   5.891   1.780   7.578 -0.3700 -0.0457 -0.4294
  184SOPE   H6X21106   5.864   1.673   7.564  1.3159 -0.6760  0.8277
  184SOPE   H6Y21107   5.795   1.836   7.588 -0.0406  0.6599 -1.1442
  184SOPE   C3721108   5.974   1.779   7.704  0.1647 -0.2739 -0.3406
  184SOPE   H7X21109   6.002   1.883   7.730  0.0079 -0.1777 -0.5490
  184SOPE   H7Y21110   6.060   1.709   7.701 -0.8829 -1.6511  0.3681
  184SOPE   C3821111   5.891   1.714   7.816 -0.2149  0.1987 -0.5151
  184SOPE   H8X21112   5.861   1.611   7.785 -2.3381  1.3280 -2.4374
  184SOPE   H8Y21113   5.793   1.765   7.813 -0.2547  0.2830  1.1307
  184SOPE   C3921114   5.952   1.710   7.956  0.2801  0.4934  0.5205
  184SOPE   H9X21115   5.976   1.809   8.000 -0.0873  0.5357  0.6315
  184SOPE   H9Y21116   6.044   1.647   7.949 -0.9048 -1.1828 -1.2738
  184SOPE  C31021117   5.858   1.637   8.058  0.0258  0.1454  0.8561
  184SOPE  H10X21118   5.814   1.552   8.003  1.3883  1.2727 -2.2809
  184SOPE  H10Y21119   5.773   1.706   8.077  0.5336  1.5758 -1.5021
  184SOPE  C31121120   5.927   1.600   8.189 -0.5887 -0.1426  0.3025
  184SOPE  H11X21121   6.007   1.525   8.174 -0.0841 -0.0430  2.2020
  184SOPE  H11Y21122   5.854   1.546   8.253 -2.1129  0.7069 -0.6439
  184SOPE  C31221123   5.985   1.719   8.264  0.5263  0.3826 -0.7078
  184SOPE  H12X21124   5.898   1.774   8.307  0.8798 -0.5466  1.3453
  184SOPE  H12Y21125   6.051   1.783   8.202 -0.5697  0.6277 -1.6544
  184SOPE  C31321126   6.065   1.673   8.387 -0.2750 -0.3365  0.5252
  184SOPE  H13X21127   6.012   1.589   8.435 -1.7509  0.7255  0.8142
  184SOPE  H13Y21128   6.079   1.762   8.452 -0.2219  1.3910 -1.7021
  184SOPE  C31421129   6.209   1.641   8.341 -0.3152 -0.2434  0.4813
  184SOPE  H14X21130   6.238   1.724   8.273 -0.9997 -0.5560 -0.2070
  184SOPE  H14Y21131   6.208   1.544   8.286  4.8033 -0.1893 -0.2207
  184SOPE  C31521132   6.312   1.631   8.453  0.4635  0.7928 -0.9004
  184SOPE  H15X21133   6.290   1.550   8.526 -0.2703 -0.1414 -2.1235
  184SOPE  H15Y21134   6.287   1.732   8.494  0.1414  0.4958 -0.3457
  184SOPE  C31621135   6.461   1.621   8.415  0.5347 -0.0639  0.5067
  184SOPE  H16X21136   6.515   1.618   8.511  0.7316  1.1271  0.4489
  184SOPE  H16Y21137   6.484   1.713   8.357 -0.7797 -1.6649 -2.8174
  184SOPE  C31721138   6.485   1.501   8.326  0.0451 -0.1097  0.6924
  184SOPE  H17X21139   6.412   1.487   8.244 -1.5529  2.2104  1.5926
  184SOPE  H17Y21140   6.486   1.410   8.391  2.6676 -1.1098 -0.6259
  184SOPE  C31821141   6.631   1.496   8.281 -0.2240 -0.2343 -0.0755
  184SOPE  H18X21142   6.660   1.397   8.241  1.2431 -0.5142  1.5501
  184SOPE  H18Y21143   6.693   1.518   8.371 -0.1509 -0.0130 -0.1794
  184SOPE  H18Z21144   6.650   1.574   8.205 -0.4585  0.0473  0.1495
  185SAPI   C1221145   6.652   6.444  11.080 -0.2997 -0.3567  0.3695
  185SAPI    H221146   6.698   6.424  10.981  0.2138 -1.3169  0.7903
  185SAPI    O221147   6.539   6.532  11.053 -0.5531 -0.2780 -0.1755
  185SAPI   HO221148   6.571   6.622  11.040  4.2577 -1.4980  1.1268
  185SAPI   C1321149   6.606   6.316  11.143 -0.1212 -0.3610  0.1418
  185SAPI    H321150   6.701   6.259  11.153  1.4836  2.3218  1.0423
  185SAPI    O321151   6.513   6.237  11.068  1.0740 -0.1083  0.2430
  185SAPI   HO321152   6.458   6.300  11.021  2.4307 -0.6536 -2.2485
  185SAPI   C1421153   6.559   6.340  11.282  0.1813 -0.4061 -0.7041
  185SAPI    H421154   6.463   6.396  11.282  1.7282  2.4610  0.2311
  185SAPI    O421155   6.526   6.212  11.345 -0.1736 -0.4758  0.2237
  185SAPI   HO421156   6.430   6.205  11.348 -0.4051  1.9006  2.7321
  185SAPI   C1521157   6.650   6.416  11.363 -0.3201  0.0499 -0.7025
  185SAPI    H521158   6.747   6.362  11.353  0.5773  1.1317  1.4439
  185SAPI    O521159   6.621   6.411  11.502 -0.2590 -0.3843 -0.4079
  185SAPI   HO521160   6.702   6.441  11.545 -0.2194 -1.5477  0.3727
  185SAPI   C1621161   6.684   6.555  11.310  0.3642 -0.4623  0.0904
  185SAPI    H621162   6.596   6.622  11.305  0.3004 -0.2076  2.9088
  185SAPI    O621163   6.781   6.631  11.393  0.1361 -0.0597  0.2597
  185SAPI   HO621164   6.735   6.714  11.410  1.6206  1.5064 -2.6482
  185SAPI   C1121165   6.747   6.532  11.171 -0.2854  0.4018 -0.0214
  185SAPI    H121166   6.839   6.470  11.178 -1.7839 -2.0397 -0.6916
  185SAPI     P21167   6.903   6.678  11.004  0.0010 -0.1747  0.0676
  185SAPI   O1321168   7.000   6.568  11.027 -0.2333  0.4493  0.2188
  185SAPI   O1421169   6.946   6.819  11.001 -0.3999 -0.0871 -0.0141
  185SAPI   O1221170   6.768   6.664  11.104 -0.5328  0.3651 -0.5378
  185SAPI   O1121171   6.838   6.653  10.864  0.0294 -0.9096  0.5827
  185SAPI    C121172   6.758   6.762  10.814 -1.0524  0.5522  0.2181
  185SAPI    HA21173   6.672   6.773  10.883 -1.0333 -2.1033  0.7781
  185SAPI    HB21174   6.821   6.853  10.802 -0.0113 -0.2383 -0.5150
  185SAPI    C221175   6.703   6.734  10.664 -1.3513 -0.2182  0.0826
  185SAPI    HS21176   6.645   6.824  10.635  0.2252 -0.1140 -3.1816
  185SAPI   O2121177   6.630   6.615  10.656 -0.5407  0.2701 -0.5082
  185SAPI   C2121178   6.511   6.613  10.724  0.0632 -0.5406 -0.3739
  185SAPI   O2221179   6.461   6.702  10.793  0.5340 -0.2367  0.2774
  185SAPI   C2221180   6.456   6.470  10.713  0.5162 -0.3973 -0.3150
  185SAPI   H2R21181   6.508   6.420  10.629  1.6207 -0.2184  0.2497
  185SAPI   H2S21182   6.476   6.424  10.812 -2.1059  0.1195  0.5325
  185SAPI    C321183   6.816   6.725  10.563  0.3105  0.0107 -0.1644
  185SAPI    HX21184   6.878   6.639  10.596 -1.4066 -1.4815 -0.7144
  185SAPI    HY21185   6.864   6.823  10.585 -1.2840  0.5844  0.9488
  185SAPI   O3121186   6.773   6.717  10.430 -0.4049 -0.5181  0.5304
  185SAPI   C3121187   6.760   6.598  10.383  0.2795 -0.2179 -0.0442
  185SAPI   O3221188   6.764   6.498  10.449  0.8705 -0.0384 -0.1661
  185SAPI   C3221189   6.745   6.606  10.230  0.3607 -0.6089  0.0233
  185SAPI   H2X21190   6.794   6.698  10.193  0.5112 -1.1844 -1.2617
  185SAPI   H2Y21191   6.635   6.613  10.211  0.5444 -1.2246 -1.4061
  185SAPI   C2321192   6.306   6.484  10.700 -0.3766  0.4826 -0.3124
  185SAPI   H3R21193   6.263   6.563  10.766  0.2950  0.2914  0.3571
  185SAPI   H3S21194   6.258   6.389  10.732 -0.0918  0.6897  0.7736
  185SAPI   C2421195   6.253   6.507  10.562  0.3195 -0.0891 -0.4971
  185SAPI   H4R21196   6.143   6.527  10.560  0.3304  0.0629  0.0774
  185SAPI   H4S21197   6.251   6.413  10.503  1.1879  0.3967 -1.3300
  185SAPI   C2521198   6.332   6.612  10.488  0.2408  0.4288  0.2550
  185SAPI   H5R21199   6.353   6.695  10.557  0.3941  0.6872 -0.0950
  185SAPI   C2621200   6.384   6.609  10.365  0.7819  0.0049  0.3131
  185SAPI   H6R21201   6.451   6.694  10.348 -1.0666  2.2035  3.0903
  185SAPI   C2721202   6.366   6.511  10.250  0.0086  0.3714 -0.5266
  185SAPI   H7R21203   6.356   6.409  10.293 -0.7112  0.5091 -0.3489
  185SAPI   H7S21204   6.457   6.499  10.187  0.3072  1.5233 -0.3202
  185SAPI   C2821205   6.247   6.535  10.162  0.1402  0.3164 -0.1864
  185SAPI   H8R21206   6.155   6.537  10.223  1.2547  0.9611  1.5576
  185SAPI   C2921207   6.242   6.539  10.027 -0.0995  0.0817  0.7535
  185SAPI   H9R21208   6.144   6.560   9.982  0.2691  1.1873  0.4376
  185SAPI  C21021209   6.359   6.535   9.931 -0.3497  0.1859  0.0739
  185SAPI  H10R21210   6.428   6.619   9.955 -0.0606  0.4047 -1.4626
  185SAPI  H10S21211   6.311   6.557   9.833  1.9314  0.8927 -0.9433
  185SAPI  C21121212   6.437   6.409   9.936 -0.4345 -0.2440  0.4409
  185SAPI  H11R21213   6.488   6.391  10.032 -0.5547  0.9261  0.7362
  185SAPI  C21221214   6.459   6.326   9.832 -0.2699 -0.1806 -0.0616
  185SAPI  H12R21215   6.524   6.243   9.861  0.3115  1.0285  2.4648
  185SAPI  C21321216   6.401   6.338   9.693 -0.8314 -0.5536 -0.4133
  185SAPI  H13R21217   6.291   6.353   9.694 -0.8746 -0.8506 -0.8206
  185SAPI  H13S21218   6.404   6.236   9.649  0.4581 -0.6603 -0.1298
  185SAPI  C21421219   6.473   6.441   9.616  0.2963  0.1041  0.0782
  185SAPI  H14R21220   6.512   6.534   9.661 -0.2829  1.4692 -2.1120
  185SAPI  C21521221   6.475   6.433   9.483  0.0192  0.4641 -0.0946
  185SAPI  H15R21222   6.520   6.519   9.431 -2.7621  2.0233 -0.0819
  185SAPI  C21621223   6.430   6.312   9.396 -0.5266 -1.2059  0.3987
  185SAPI  H16R21224   6.384   6.239   9.466  1.8637 -0.8811  2.4589
  185SAPI  H16S21225   6.514   6.249   9.360 -2.1198 -3.2855  0.1373
  185SAPI  C21721226   6.345   6.350   9.264 -0.1090 -0.2343  0.0868
  185SAPI  H17R21227   6.251   6.390   9.306  1.6435  1.8399  2.3033
  185SAPI  H17S21228   6.329   6.251   9.215  1.0877 -2.8648  4.4724
  185SAPI  C21821229   6.412   6.445   9.169  0.4227 -0.3203 -0.3373
  185SAPI  H18R21230   6.522   6.429   9.168  0.3479 -0.9238 -2.1586
  185SAPI  H18S21231   6.385   6.547   9.204  0.5923 -0.4531  0.2000
  185SAPI  C21921232   6.364   6.435   9.025 -0.6577 -0.0060  0.1015
  185SAPI  H19R21233   6.256   6.458   9.029  0.0176  4.0745 -1.0010
  185SAPI  H19S21234   6.389   6.333   8.989  1.2163  0.8737 -1.2691
  185SAPI  C22021235   6.433   6.534   8.935  0.5559  0.7981 -0.3722
  185SAPI  H20R21236   6.544   6.540   8.938  0.7414  0.9313 -3.4445
  185SAPI  H20S21237   6.389   6.634   8.958  0.3573  0.4159  0.9904
  185SAPI  H20T21238   6.408   6.508   8.830  0.4276 -1.3526  0.1414
  185SAPI   C3321239   6.802   6.482  10.161 -0.7711 -0.4755 -0.5247
  185SAPI   H3X21240   6.737   6.440  10.081 -0.3991 -1.5705 -0.2722
  185SAPI   H3Y21241   6.825   6.406  10.239 -0.3667  1.7308  1.6444
  185SAPI   C3421242   6.941   6.518  10.098 -0.7454  0.0890  0.4341
  185SAPI   H4X21243   7.002   6.428  10.072  1.7782  2.3300 -2.1255
  185SAPI   H4Y21244   7.001   6.578  10.170  2.9186 -1.6418 -0.8974
  185SAPI   C3521245   6.930   6.609   9.977  0.0462 -0.4508 -0.6760
  185SAPI   H5X21246   7.036   6.640   9.964  0.3387 -0.4872  1.3253
  185SAPI   H5Y21247   6.879   6.706   9.996  0.4760 -0.7054  2.3109
  185SAPI   C3621248   6.868   6.546   9.851 -0.3872 -0.2287 -0.7228
  185SAPI   H6X21249   6.762   6.515   9.867  0.3541 -1.9709  1.1723
  185SAPI   H6Y21250   6.930   6.457   9.828  0.0151 -0.0201 -0.4480
  185SAPI   C3721251   6.866   6.652   9.737 -0.0569  0.1832 -0.2223
  185SAPI   H7X21252   6.968   6.697   9.739  0.6792 -1.2663 -2.2021
  185SAPI   H7Y21253   6.787   6.727   9.759  1.5017  1.2598  2.2054
  185SAPI   C3821254   6.843   6.592   9.597 -0.7167  0.2551 -0.5093
  185SAPI   H8X21255   6.750   6.532   9.596  0.5799 -1.8989  0.7102
  185SAPI   H8Y21256   6.931   6.527   9.576 -1.9916 -1.8047  0.2671
  185SAPI   C3921257   6.847   6.703   9.489  0.0067  0.3036  0.2096
  185SAPI   H9X21258   6.948   6.744   9.511  0.6755  0.6266 -2.9218
  185SAPI   H9Y21259   6.776   6.789   9.493 -0.0626  0.3037 -0.7500
  185SAPI  C31021260   6.857   6.638   9.349  0.0433 -0.0210 -0.1403
  185SAPI  H10X21261   6.799   6.543   9.346 -0.7716  0.4810 -0.8872
  185SAPI  H10Y21262   6.965   6.617   9.335  0.8839  2.0437  2.5085
  185SAPI  C31121263   6.778   6.714   9.235 -0.1554 -0.0914 -0.6235
  185SAPI  H11X21264   6.834   6.810   9.230 -0.1115 -0.0869 -0.1256
  185SAPI  H11Y21265   6.676   6.727   9.275  0.2155  0.4509  0.1705
  185SAPI  C31221266   6.762   6.646   9.101  0.7966  0.1793 -0.3295
  185SAPI  H12X21267   6.677   6.705   9.063  1.1590  1.4058  0.6710
  185SAPI  H12Y21268   6.727   6.542   9.087 -0.2011  0.4226  0.2697
  185SAPI  C31321269   6.876   6.683   8.999 -0.6762  0.7541  0.0747
  185SAPI  H13X21270   6.963   6.704   9.065 -1.4588 -0.0970  1.4137
  185SAPI  H13Y21271   6.834   6.774   8.950 -2.2562 -0.2513 -0.5383
  185SAPI  C31421272   6.902   6.575   8.896  0.5677 -0.3152  0.6338
  185SAPI  H14X21273   6.808   6.540   8.847  0.6991  1.4170 -0.9713
  185SAPI  H14Y21274   6.955   6.487   8.938 -2.0876 -1.3061  2.1461
  185SAPI  C31521275   6.975   6.636   8.776  0.2005  0.3946 -0.2071
  185SAPI  H15X21276   6.917   6.728   8.751 -1.9296 -1.0789 -1.0171
  185SAPI  H15Y21277   6.983   6.569   8.688  0.8154  1.1390 -0.7221
  185SAPI  C31621278   7.123   6.678   8.815  0.8896 -0.3290  0.1254
  185SAPI  H16X21279   7.145   6.617   8.905 -1.2301 -0.5950  0.5081
  185SAPI  H16Y21280   7.112   6.784   8.847  1.3648  0.0833 -1.0185
  185SAPI  C31721281   7.222   6.653   8.701 -0.6468 -0.0278  0.3857
  185SAPI  H17X21282   7.219   6.546   8.671  3.9147 -0.1312 -0.3468
  185SAPI  H17Y21283   7.324   6.658   8.744 -0.2725 -2.4942 -0.1084
  185SAPI  C31821284   7.211   6.745   8.582 -0.1040 -0.3939  0.5811
  185SAPI  H18X21285   7.270   6.712   8.494 -2.0797  2.0439 -1.8437
  185SAPI  H18Y21286   7.239   6.849   8.606  0.1086 -0.5165  0.8628
  185SAPI  H18Z21287   7.106   6.741   8.545  0.0315 -1.9029  0.2803
  186SAPI   C1221288   6.528   2.529  11.234 -0.3890 -0.2606 -0.3206
  186SAPI    H221289   6.457   2.522  11.149 -1.1137  4.7566 -0.4003
  186SAPI    O221290   6.458   2.597  11.344  0.3074  0.2279 -0.7121
  186SAPI   HO221291   6.452   2.691  11.328  0.3294  0.4319  0.4355
  186SAPI   C1321292   6.576   2.391  11.277 -0.6141 -0.9061 -0.3523
  186SAPI    H321293   6.628   2.342  11.192  0.0754  0.9269 -1.0106
  186SAPI    O321294   6.469   2.301  11.312  0.0224 -0.4664  0.2334
  186SAPI   HO321295   6.453   2.259  11.227  0.7524  0.3272 -0.3110
  186SAPI   C1421296   6.684   2.398  11.390 -0.0855 -0.7287  0.6721
  186SAPI    H421297   6.641   2.441  11.483 -0.2973  0.4350  0.0669
  186SAPI    O421298   6.721   2.265  11.432  0.3488  0.2939  0.3806
  186SAPI   HO421299   6.784   2.230  11.368  1.3423 -0.0998  1.5453
  186SAPI   C1521300   6.800   2.488  11.357  0.2014  0.1253 -0.4265
  186SAPI    H521301   6.853   2.448  11.268  2.1850  0.2940  0.6247
  186SAPI    O521302   6.907   2.494  11.447 -0.0745  0.7897  0.1379
  186SAPI   HO521303   6.979   2.538  11.401  0.0027  1.1288  0.5774
  186SAPI   C1621304   6.748   2.623  11.308  0.4349 -0.3455  0.6944
  186SAPI    H621305   6.698   2.676  11.392 -0.6222  0.7306 -0.5757
  186SAPI    O621306   6.853   2.713  11.273 -0.4637  0.0747  0.4309
  186SAPI   HO621307   6.833   2.746  11.185 -1.3853 -1.7283 -0.0912
  186SAPI   C1121308   6.649   2.616  11.192  0.2402  0.0958 -0.3956
  186SAPI    H121309   6.696   2.566  11.105  0.3583 -1.4912  0.5232
  186SAPI     P21310   6.644   2.811  11.011  0.1830 -0.3773  0.0661
  186SAPI   O1321311   6.593   2.948  10.998 -0.1172  0.5167  0.0762
  186SAPI   O1421312   6.599   2.719  10.905  0.6558  0.5657 -0.4997
  186SAPI   O1221313   6.596   2.751  11.161 -0.0396 -0.2664  0.1522
  186SAPI   O1121314   6.799   2.805  11.014 -0.1075 -0.5238 -0.3319
  186SAPI    C121315   6.887   2.921  11.046  0.3709  1.1243 -0.0493
  186SAPI    HA21316   6.832   3.017  11.055  2.0546  2.1842 -0.5673
  186SAPI    HB21317   6.940   2.908  11.142 -0.3643 -2.5658  0.0005
  186SAPI    C221318   6.985   2.935  10.922 -0.1765 -0.6508  0.1963
  186SAPI    HS21319   7.047   3.026  10.937  1.5204 -1.7595  0.1568
  186SAPI   O2121320   6.908   2.943  10.797 -0.6408 -0.4539  0.2419
  186SAPI   C2121321   6.850   3.061  10.775 -0.9317  1.0410  0.1736
  186SAPI   O2221322   6.851   3.162  10.841  0.1533  0.0367  0.4899
  186SAPI   C2221323   6.763   3.046  10.645  0.3143 -0.2881 -0.3336
  186SAPI   H2R21324   6.725   2.942  10.650 -0.1347 -0.0697  2.0186
  186SAPI   H2S21325   6.668   3.103  10.653  0.5638 -0.0351  1.1254
  186SAPI    C321326   7.078   2.809  10.921 -0.1746 -0.4754  0.3570
  186SAPI    HX21327   7.017   2.724  10.957  0.8789 -1.8432 -0.9339
  186SAPI    HY21328   7.148   2.824  11.006 -0.6302 -0.1682  0.6811
  186SAPI   O3121329   7.130   2.780  10.794 -0.0042 -0.1077 -0.8679
  186SAPI   C3121330   7.225   2.864  10.756 -0.1546  0.0952  0.1310
  186SAPI   O3221331   7.271   2.954  10.826  0.4866  1.0469  0.7695
  186SAPI   C3221332   7.271   2.823  10.621 -1.0152 -0.0258  0.4071
  186SAPI   H2X21333   7.208   2.741  10.580 -0.6654 -0.8709  1.5159
  186SAPI   H2Y21334   7.378   2.792  10.625 -0.6197  1.3400  1.0624
  186SAPI   C2321335   6.847   3.078  10.520  0.1465  0.0066 -0.3364
  186SAPI   H3R21336   6.948   3.032  10.520  0.4965  0.7385 -0.9996
  186SAPI   H3S21337   6.868   3.187  10.521  0.3225  0.0382  2.8158
  186SAPI   C2421338   6.777   3.044  10.387  0.0289  0.2478  0.1544
  186SAPI   H4R21339   6.818   3.105  10.304  3.5651  1.5638  2.6007
  186SAPI   H4S21340   6.671   3.065  10.412 -0.4795 -0.8431 -0.9933
  186SAPI   C2521341   6.781   2.897  10.354 -0.5217  0.1259  0.2208
  186SAPI   H5R21342   6.738   2.831  10.431  1.7645  0.3231  1.7915
  186SAPI   C2621343   6.819   2.844  10.234  0.1258 -0.6385  0.2273
  186SAPI   H6R21344   6.823   2.734  10.225  0.0296 -0.4986 -2.1679
  186SAPI   C2721345   6.868   2.921  10.106 -0.2824  0.6864 -0.9305
  186SAPI   H7R21346   6.853   3.029  10.124 -2.5111  0.2622  0.1220
  186SAPI   H7S21347   6.792   2.907  10.026 -1.5039  2.8019 -0.1933
  186SAPI   C2821348   7.012   2.881  10.069  0.5426 -0.0033 -0.7894
  186SAPI   H8R21349   7.083   2.851  10.148  0.8558  0.3297 -0.9432
  186SAPI   C2921350   7.052   2.870   9.939  0.3048 -0.7926 -0.5881
  186SAPI   H9R21351   7.160   2.859   9.917  0.7161 -0.0260  0.9176
  186SAPI  C21021352   6.959   2.902   9.822  0.0665 -0.2503  0.5361
  186SAPI  H10R21353   6.898   2.992   9.845  2.1015  1.1575  0.6252
  186SAPI  H10S21354   6.888   2.816   9.824 -0.4931  0.2078  0.9051
  186SAPI  C21121355   7.018   2.918   9.686 -0.3709  0.0519  0.3540
  186SAPI  H11R21356   7.085   3.004   9.669 -2.7235  1.6997 -1.3245
  186SAPI  C21221357   6.997   2.834   9.580  0.2746 -0.7658 -0.3954
  186SAPI  H12R21358   7.049   2.850   9.485 -0.0309  2.2861 -0.1226
  186SAPI  C21321359   6.906   2.709   9.582  0.4600 -0.6406  0.1038
  186SAPI  H13R21360   6.914   2.665   9.683 -0.9145  1.1376  1.0430
  186SAPI  H13S21361   6.934   2.627   9.513  0.2371 -1.2010  0.6712
  186SAPI  C21421362   6.766   2.747   9.552 -0.1831 -0.3213  0.1050
  186SAPI  H14R21363   6.770   2.833   9.484 -0.5138  0.0956  0.6113
  186SAPI  C21521364   6.655   2.711   9.613 -0.0136  0.7141  0.0178
  186SAPI  H15R21365   6.556   2.754   9.592 -1.2522 -1.2171  1.6200
  186SAPI  C21621366   6.637   2.609   9.726 -0.0498  0.3684  0.0974
  186SAPI  H16R21367   6.732   2.557   9.749  0.6388  0.5773 -2.0485
  186SAPI  H16S21368   6.560   2.531   9.705  1.1418 -0.4687 -1.3334
  186SAPI  C21721369   6.587   2.681   9.853  0.6026 -0.2515  1.1532
  186SAPI  H17R21370   6.482   2.715   9.836  1.5579  1.5596 -1.8796
  186SAPI  H17S21371   6.630   2.781   9.876 -2.2251  0.6887  2.8199
  186SAPI  C21821372   6.600   2.598   9.982  0.1257  0.1156  0.3487
  186SAPI  H18R21373   6.710   2.596   9.994  0.6126 -0.5333 -3.0997
  186SAPI  H18S21374   6.570   2.495   9.951 -1.8923  1.5489 -3.0089
  186SAPI  C21921375   6.525   2.654  10.103  0.8460 -0.7529  0.4521
  186SAPI  H19R21376   6.425   2.682  10.062  1.8160  1.1900 -0.6989
  186SAPI  H19S21377   6.567   2.747  10.147 -0.3272  0.8538 -1.6436
  186SAPI  C22021378   6.517   2.546  10.213 -0.5491  0.0162 -0.3356
  186SAPI  H20R21379   6.467   2.581  10.306  0.4651 -0.6747  0.5022
  186SAPI  H20S21380   6.622   2.530  10.246  0.3424  2.4878 -1.6835
  186SAPI  H20T21381   6.473   2.452  10.173 -1.4770  0.3116 -0.0327
  186SAPI   C3321382   7.257   2.947  10.523  0.2055 -0.3678 -0.2780
  186SAPI   H3X21383   7.302   3.043  10.558  0.3824  0.1199 -1.7515
  186SAPI   H3Y21384   7.150   2.972  10.508  0.5965  1.5174 -0.2542
  186SAPI   C3421385   7.314   2.919  10.389 -0.0473 -0.2295  0.3934
  186SAPI   H4X21386   7.270   2.830  10.339  1.8234 -0.6919 -0.5187
  186SAPI   H4Y21387   7.418   2.886  10.412 -0.2115 -0.7669  0.3825
  186SAPI   C3521388   7.312   3.041  10.291 -0.3801 -1.2495 -0.6984
  186SAPI   H5X21389   7.362   3.132  10.330  0.1653 -0.7218 -2.5373
  186SAPI   H5Y21390   7.209   3.085  10.287 -0.0221 -0.3356 -0.2876
  186SAPI   C3621391   7.386   3.023  10.161  0.4215 -0.0726  0.2969
  186SAPI   H6X21392   7.348   2.936  10.104  2.0266  0.5004 -1.8049
  186SAPI   H6Y21393   7.495   3.007  10.179  0.8609  1.9699 -0.2247
  186SAPI   C3721394   7.374   3.146  10.066  0.9148 -0.3383 -0.3249
  186SAPI   H7X21395   7.428   3.238  10.099  2.0730 -1.0949 -0.0828
  186SAPI   H7Y21396   7.268   3.180  10.069  1.2957  0.8742  1.1251
  186SAPI   C3821397   7.399   3.114   9.923 -1.5324 -0.2756  0.7460
  186SAPI   H8X21398   7.338   3.025   9.898 -1.3825 -0.8375  2.2902
  186SAPI   H8Y21399   7.508   3.095   9.912 -1.2017  2.1339 -0.9752
  186SAPI   C3921400   7.377   3.235   9.830 -0.2680 -0.8832 -0.4526
  186SAPI   H9X21401   7.424   3.326   9.872 -2.4700  0.2829 -0.3736
  186SAPI   H9Y21402   7.268   3.255   9.823 -0.1451 -0.2943 -0.6947
  186SAPI  C31021403   7.432   3.194   9.692  0.4936  0.0982  0.2423
  186SAPI  H10X21404   7.385   3.097   9.665 -0.6647  0.7822 -0.3217
  186SAPI  H10Y21405   7.541   3.176   9.696  0.5096 -0.0870 -0.7620
  186SAPI  C31121406   7.400   3.288   9.579 -0.4177 -0.3339 -0.5776
  186SAPI  H11X21407   7.457   3.382   9.590 -1.0024  0.1950 -1.8942
  186SAPI  H11Y21408   7.292   3.311   9.577 -0.6545 -1.3574 -0.3123
  186SAPI  C31221409   7.452   3.224   9.447 -0.5520  0.0465 -0.0584
  186SAPI  H12X21410   7.436   3.114   9.450 -3.3291  0.3472 -1.1657
  186SAPI  H12Y21411   7.562   3.240   9.454 -0.3147 -1.1172 -0.8994
  186SAPI  C31321412   7.398   3.304   9.332  0.1926  0.8867 -0.2622
  186SAPI  H13X21413   7.433   3.409   9.339  1.1631  0.5313  0.5924
  186SAPI  H13Y21414   7.288   3.306   9.349  0.4742 -1.7212  2.7574
  186SAPI  C31421415   7.435   3.246   9.194 -0.0249  0.7825 -0.5449
  186SAPI  H14X21416   7.421   3.137   9.203 -2.0163  0.9753 -0.7912
  186SAPI  H14Y21417   7.539   3.274   9.164 -0.1686  1.3185 -0.5534
  186SAPI  C31521418   7.347   3.309   9.089  0.5082 -0.6245 -0.1239
  186SAPI  H15X21419   7.375   3.416   9.085  2.4971 -1.0350  1.2050
  186SAPI  H15Y21420   7.243   3.308   9.128  0.9723  0.6253  1.1984
  186SAPI  C31621421   7.372   3.250   8.947 -0.3489 -0.3006  0.1977
  186SAPI  H16X21422   7.335   3.145   8.937 -2.2549  0.1823  1.6337
  186SAPI  H16Y21423   7.480   3.252   8.919 -0.5101 -0.8927 -0.5095
  186SAPI  C31721424   7.296   3.335   8.839  0.0592 -0.3072 -0.4291
  186SAPI  H17X21425   7.327   3.440   8.859 -0.9284  0.0602 -0.7777
  186SAPI  H17Y21426   7.187   3.341   8.857  0.1955  2.5101 -0.0645
  186SAPI  C31821427   7.329   3.305   8.690 -0.1322 -0.5517  0.9179
  186SAPI  H18X21428   7.423   3.357   8.662  0.2948  0.2663  3.5828
  186SAPI  H18Y21429   7.251   3.324   8.614  2.2919  0.1668 -1.5468
  186SAPI  H18Z21430   7.363   3.201   8.670  2.6064  0.3448  0.5598
  187SAPI   C1221431   0.514   3.917   6.308 -0.5969 -0.4604 -0.4192
  187SAPI    H221432   0.588   3.842   6.274 -0.0461 -0.3190  0.4519
  187SAPI    O221433   0.587   3.984   6.411 -0.2405 -0.0788 -0.3066
  187SAPI   HO221434   0.620   3.915   6.469  1.0543 -0.0950 -1.0195
  187SAPI   C1321435   0.477   4.020   6.194 -0.5384  0.1891 -0.8124
  187SAPI    H321436   0.439   3.950   6.117 -2.2548 -0.8639  0.9146
  187SAPI    O321437   0.601   4.077   6.150 -0.2218 -0.5148 -0.5214
  187SAPI   HO321438   0.584   4.124   6.068  1.0380  0.3755 -0.3093
  187SAPI   C1421439   0.369   4.120   6.236 -0.8430  0.1449 -0.8353
  187SAPI    H421440   0.403   4.175   6.327  1.2656 -1.8663 -0.3213
  187SAPI    O421441   0.338   4.204   6.130 -0.2117  0.4490  0.0971
  187SAPI   HO421442   0.351   4.297   6.151 -1.1814  0.6941 -0.2913
  187SAPI   C1521443   0.244   4.044   6.287 -0.6948  0.6611  0.2218
  187SAPI    H521444   0.212   3.977   6.204 -0.3670  0.6390  0.1124
  187SAPI    O521445   0.143   4.140   6.330  0.1808 -0.1508  0.5569
  187SAPI   HO521446   0.162   4.174   6.418  0.2095 -0.2144  0.5750
  187SAPI   C1621447   0.277   3.948   6.398  0.6812  0.1578  0.4701
  187SAPI    H621448   0.304   4.009   6.487  0.4662  1.0789 -0.0847
  187SAPI    O621449   0.157   3.875   6.434  0.1995  0.0629  0.0598
  187SAPI   HO621450   0.188   3.787   6.458 -1.7622 -0.2700  1.5933
  187SAPI   C1121451   0.386   3.852   6.350  0.0965 -0.6503 -0.0003
  187SAPI    H121452   0.336   3.801   6.265 -1.7692 -0.0241  0.6602
  187SAPI     P21453   0.394   3.597   6.443  0.0457  0.0656  0.1691
  187SAPI   O1321454   0.457   3.533   6.560 -0.2528  0.6308 -0.2240
  187SAPI   O1421455   0.447   3.564   6.311  0.7762 -0.6878  0.1003
  187SAPI   O1221456   0.412   3.764   6.452  0.2204  0.2036 -0.6283
  187SAPI   O1121457   0.239   3.584   6.439 -0.5180 -0.5829  0.0399
  187SAPI    C121458   0.159   3.512   6.532  0.2499 -0.0795 -0.2641
  187SAPI    HA21459   0.087   3.456   6.469  1.2840 -0.8352 -0.7876
  187SAPI    HB21460   0.216   3.435   6.588 -2.1022 -0.6514  1.5221
  187SAPI    C221461   0.092   3.603   6.637 -0.1656 -0.1677 -0.7746
  187SAPI    HS21462   0.018   3.670   6.588 -0.1831 -0.0989 -0.6538
  187SAPI   O2121463   0.197   3.691   6.676  0.0925 -0.2498 -0.3252
  187SAPI   C2121464   0.163   3.800   6.752  0.0014  0.2155 -0.4733
  187SAPI   O2221465   0.046   3.835   6.768 -0.4651  0.1748  0.4841
  187SAPI   C2221466   0.282   3.864   6.806 -0.6314 -0.0848  0.0491
  187SAPI   H2R21467   0.308   3.813   6.901  0.5876  1.1030  0.3798
  187SAPI   H2S21468   0.368   3.857   6.736  0.7994 -0.4560  1.7801
  187SAPI    C321469   0.013   3.529   6.747 -0.3879 -0.7899 -0.2586
  187SAPI    HX21470  -0.070   3.488   6.686 -2.0180  1.2091  0.4986
  187SAPI    HY21471  -0.036   3.598   6.820 -0.2322 -1.4083  0.4361
  187SAPI   O3121472   0.090   3.425   6.809 -0.3317  0.2722  0.1298
  187SAPI   C3121473   0.035   3.355   6.912  0.0948  1.0711  0.0839
  187SAPI   O3221474  -0.083   3.351   6.941 -0.3832  0.1049 -0.1492
  187SAPI   C3221475   0.145   3.273   6.966  0.0976 -0.1553 -0.0090
  187SAPI   H2X21476   0.242   3.312   6.928  0.0242  1.6019  1.4335
  187SAPI   H2Y21477   0.136   3.166   6.940  0.1803 -0.1180 -0.1931
  187SAPI   C2321478   0.263   4.014   6.827 -0.2036  0.2903  0.3301
  187SAPI   H3R21479   0.186   4.025   6.906  0.6117  0.4383  1.1179
  187SAPI   H3S21480   0.236   4.060   6.729 -0.5007 -0.1901  0.1850
  187SAPI   C2421481   0.395   4.083   6.880  0.5273  0.0269  0.2753
  187SAPI   H4R21482   0.486   4.071   6.818  0.9829  1.0039  0.7447
  187SAPI   H4S21483   0.425   4.025   6.970 -0.5372 -0.7939  0.1356
  187SAPI   C2521484   0.360   4.228   6.906  0.2873  0.2401  0.3966
  187SAPI   H5R21485   0.317   4.284   6.822  0.9002 -0.3609 -0.3276
  187SAPI   C2621486   0.380   4.298   7.017  0.2241  0.6732 -0.6348
  187SAPI   H6R21487   0.364   4.406   7.020  0.4804  0.6984 -0.0681
  187SAPI   C2721488   0.451   4.238   7.138  0.0021  0.3836  0.7260
  187SAPI   H7R21489   0.432   4.130   7.156  1.5947  0.0484  0.5328
  187SAPI   H7S21490   0.421   4.296   7.227 -2.0032  2.0501 -0.9176
  187SAPI   C2821491   0.600   4.245   7.126  0.4184  0.6294 -0.9959
  187SAPI   H8R21492   0.631   4.250   7.021 -0.8764 -0.1599 -1.4366
  187SAPI   C2921493   0.684   4.249   7.233 -0.0377  0.5305 -0.1574
  187SAPI   H9R21494   0.793   4.243   7.220 -0.0650 -3.4346  0.1654
  187SAPI  C21021495   0.649   4.221   7.375 -0.8543 -0.2288  0.5395
  187SAPI  H10R21496   0.666   4.115   7.404 -3.1598 -0.6260  0.6769
  187SAPI  H10S21497   0.539   4.230   7.389 -0.7275 -0.6991  2.0151
  187SAPI  C21121498   0.723   4.314   7.463 -0.6619  0.1547  0.1446
  187SAPI  H11R21499   0.734   4.420   7.436  1.2003  0.0579  0.3788
  187SAPI  C21221500   0.778   4.272   7.584  0.6337 -0.4853  0.3449
  187SAPI  H12R21501   0.847   4.338   7.638  0.1768 -0.0086  0.3480
  187SAPI  C21321502   0.770   4.135   7.647  0.2590  0.4735  0.1225
  187SAPI  H13R21503   0.861   4.128   7.710  1.5874  1.5704 -1.5712
  187SAPI  H13S21504   0.783   4.056   7.570  1.2070  0.8191 -0.0813
  187SAPI  C21421505   0.640   4.129   7.721  0.1887 -0.2344  0.0581
  187SAPI  H14R21506   0.552   4.159   7.663 -0.0786  1.8136  1.3975
  187SAPI  C21521507   0.613   4.080   7.847  0.4572 -0.0982  0.0921
  187SAPI  H15R21508   0.510   4.084   7.885  0.4020 -0.1956 -0.0436
  187SAPI  C21621509   0.710   4.022   7.946  0.0801  0.3007 -0.3210
  187SAPI  H16R21510   0.813   4.052   7.915  1.2995 -1.9932  1.2265
  187SAPI  H16S21511   0.718   3.911   7.946 -0.3865  0.1823  2.5738
  187SAPI  C21721512   0.696   4.054   8.099 -0.5193 -0.0440  0.3980
  187SAPI  H17R21513   0.643   3.966   8.140 -1.3293  0.2712  0.0499
  187SAPI  H17S21514   0.632   4.143   8.118 -2.3323 -1.4826  1.3189
  187SAPI  C21821515   0.836   4.072   8.157  0.8204 -0.1384 -0.0564
  187SAPI  H18R21516   0.879   4.159   8.103  0.7768 -0.7268 -1.0666
  187SAPI  H18S21517   0.900   3.988   8.123  1.8093  1.0855 -1.3289
  187SAPI  C21921518   0.846   4.094   8.303  0.8107  0.2113 -0.2903
  187SAPI  H19R21519   0.951   4.122   8.326  0.0181  2.0606  1.3156
  187SAPI  H19S21520   0.830   3.998   8.357 -2.0486 -0.0303 -1.3788
  187SAPI  C22021521   0.747   4.192   8.368 -0.1983 -0.1634  0.3474
  187SAPI  H20R21522   0.765   4.191   8.478 -1.3375  0.6515  0.5614
  187SAPI  H20S21523   0.640   4.169   8.351 -0.2140  0.2847 -0.1991
  187SAPI  H20T21524   0.753   4.297   8.332  1.4102 -0.1681  0.5275
  187SAPI   C3321525   0.140   3.284   7.119 -0.0882 -0.4958  0.0500
  187SAPI   H3X21526   0.234   3.235   7.154 -0.4820 -1.5913 -0.4130
  187SAPI   H3Y21527   0.049   3.232   7.157 -1.2136  3.0382  2.7841
  187SAPI   C3421528   0.150   3.423   7.177  0.0580 -0.7379 -0.5096
  187SAPI   H4X21529   0.170   3.412   7.286  1.1630 -3.8992 -0.9377
  187SAPI   H4Y21530   0.048   3.468   7.171  0.5636  0.6515  0.6936
  187SAPI   C3521531   0.247   3.533   7.117  0.2847  0.4350 -0.0023
  187SAPI   H5X21532   0.231   3.554   7.010  0.5257  0.8430  0.0381
  187SAPI   H5Y21533   0.356   3.516   7.129  0.3126 -1.0341 -1.8741
  187SAPI   C3621534   0.212   3.672   7.177  0.4264 -0.2042 -0.0268
  187SAPI   H6X21535   0.106   3.704   7.167  0.2788 -0.6544  0.0773
  187SAPI   H6Y21536   0.263   3.739   7.105  0.8892  0.8332  1.2312
  187SAPI   C3721537   0.267   3.711   7.311 -0.0551  0.7530 -0.3510
  187SAPI   H7X21538   0.308   3.814   7.300 -1.4183  1.1697 -1.9477
  187SAPI   H7Y21539   0.345   3.640   7.348  0.1716  1.3099  0.2558
  187SAPI   C3821540   0.156   3.728   7.417 -0.4659  0.6227 -0.5656
  187SAPI   H8X21541   0.111   3.633   7.454  0.6207  0.6350  0.8743
  187SAPI   H8Y21542   0.076   3.786   7.367  0.2739  2.8752  0.7163
  187SAPI   C3921543   0.208   3.808   7.536 -0.3935 -0.3472 -0.2535
  187SAPI   H9X21544   0.114   3.831   7.591  0.4048  0.5989  0.7381
  187SAPI   H9Y21545   0.256   3.902   7.503 -0.8093 -0.8463 -2.4652
  187SAPI  C31021546   0.293   3.733   7.644 -0.2384  0.0344  1.1558
  187SAPI  H10X21547   0.384   3.697   7.592  0.9082  2.3840  1.3788
  187SAPI  H10Y21548   0.241   3.643   7.682 -0.1110  0.1228  1.5434
  187SAPI  C31121549   0.349   3.829   7.754  0.4054 -0.2483 -0.1541
  187SAPI  H11X21550   0.407   3.910   7.705  1.4974  0.1091  1.6261
  187SAPI  H11Y21551   0.419   3.776   7.823 -1.2618  1.5183  3.1562
  187SAPI  C31221552   0.238   3.897   7.838  0.7998  0.0697  0.0003
  187SAPI  H12X21553   0.177   3.968   7.779  2.1372 -0.3024 -1.8974
  187SAPI  H12Y21554   0.295   3.955   7.914 -0.7211 -0.9327  2.0065
  187SAPI  C31321555   0.133   3.797   7.912 -0.1275 -0.0437  0.0490
  187SAPI  H13X21556   0.075   3.754   7.828  1.4355  0.7015 -1.4587
  187SAPI  H13Y21557   0.071   3.857   7.982 -1.9280 -0.2748 -1.2863
  187SAPI  C31421558   0.217   3.692   7.983 -0.7614  0.2010  0.0178
  187SAPI  H14X21559   0.303   3.745   8.028 -0.2219 -0.1835 -0.5358
  187SAPI  H14Y21560   0.246   3.616   7.908 -2.3948  1.0277 -1.5299
  187SAPI  C31521561   0.142   3.627   8.099 -0.1328  0.6188  0.5250
  187SAPI  H15X21562   0.059   3.560   8.069  1.9568 -3.0189  2.1665
  187SAPI  H15Y21563   0.118   3.714   8.164 -0.6480  0.5237  0.4623
  187SAPI  C31621564   0.232   3.531   8.178 -0.0267  0.3715 -0.3693
  187SAPI  H16X21565   0.307   3.607   8.206  0.1026  0.7231 -1.6188
  187SAPI  H16Y21566   0.275   3.458   8.106 -0.6736  0.1197 -0.5086
  187SAPI  C31721567   0.164   3.463   8.294 -0.0037 -0.0616 -0.3086
  187SAPI  H17X21568   0.111   3.374   8.256 -1.0484  0.4178  0.0019
  187SAPI  H17Y21569   0.091   3.526   8.349  0.3049 -0.6803  0.8643
  187SAPI  C31821570   0.270   3.425   8.396 -0.3958  0.2924 -0.1936
  187SAPI  H18X21571   0.331   3.513   8.423 -1.3919  0.9535 -0.0812
  187SAPI  H18Y21572   0.341   3.351   8.353 -3.5461 -1.9108 -2.0289
  187SAPI  H18Z21573   0.219   3.377   8.482 -1.1319 -0.5876 -1.0910
  188SAPI   C1221574   6.748   6.279   6.030  0.2183 -0.0125  0.1575
  188SAPI    H221575   6.674   6.197   6.015  0.8953 -0.3570 -1.5878
  188SAPI    O221576   6.868   6.214   6.004 -0.3351 -0.4255  0.5594
  188SAPI   HO221577   6.890   6.168   6.085  0.5119  2.4358  2.0940
  188SAPI   C1321578   6.708   6.391   5.934 -0.4017  0.0917  0.0205
  188SAPI    H321579   6.602   6.414   5.957 -1.0951 -2.9910  0.4505
  188SAPI    O321580   6.698   6.350   5.799  0.0058 -0.2712  0.4897
  188SAPI   HO321581   6.624   6.293   5.777  1.3719 -1.8494 -0.1976
  188SAPI   C1421582   6.794   6.511   5.954  0.0689  1.0476  0.5610
  188SAPI    H421583   6.897   6.476   5.932 -1.2320 -1.2419 -2.7938
  188SAPI    O421584   6.754   6.618   5.863  0.1693  0.7306 -0.7139
  188SAPI   HO421585   6.784   6.585   5.778 -0.6243 -2.6826  0.1944
  188SAPI   C1521586   6.804   6.554   6.105 -0.2812 -0.5718 -0.1128
  188SAPI    H521587   6.702   6.591   6.127 -0.6463  1.0587 -3.7479
  188SAPI    O521588   6.887   6.666   6.112 -0.4924 -0.3084  0.2588
  188SAPI   HO521589   6.840   6.746   6.088 -0.7069  0.1943  2.1870
  188SAPI   C1621590   6.841   6.435   6.197 -0.0089  0.0640 -0.1717
  188SAPI    H621591   6.942   6.401   6.163 -0.0612  1.7056 -2.1768
  188SAPI    O621592   6.842   6.475   6.332 -0.1712  0.3044 -0.1361
  188SAPI   HO621593   6.841   6.389   6.374  1.3131  0.2311 -0.2014
  188SAPI   C1121594   6.740   6.329   6.176 -0.6947 -1.0367 -0.2415
  188SAPI    H121595   6.638   6.372   6.191 -0.1272 -0.5818  3.0868
  188SAPI     P21596   6.711   6.181   6.400  0.0311  0.4405  0.2569
  188SAPI   O1321597   6.733   6.036   6.427 -0.1178  0.3186  0.5590
  188SAPI   O1421598   6.578   6.229   6.425 -0.5807 -0.0313 -0.8971
  188SAPI   O1221599   6.765   6.216   6.253 -0.1665  0.1580  0.3148
  188SAPI   O1121600   6.802   6.267   6.501 -0.2362  0.0678 -0.2160
  188SAPI    C121601   6.928   6.210   6.527 -0.5602  0.4058 -0.2851
  188SAPI    HA21602   6.971   6.136   6.456  3.5442 -0.1588  2.3922
  188SAPI    HB21603   6.999   6.292   6.552 -0.1868 -0.6057  2.3410
  188SAPI    C221604   6.928   6.127   6.664  0.5098  0.1640  0.6749
  188SAPI    HS21605   6.841   6.059   6.657 -0.1656  1.1332 -0.6804
  188SAPI   O2121606   6.935   6.217   6.776  0.4219 -0.3739  0.1738
  188SAPI   C2121607   6.873   6.180   6.882  0.2005 -0.0443 -1.0188
  188SAPI   O2221608   6.806   6.080   6.893  0.4007 -0.1225  0.6834
  188SAPI   C2221609   6.880   6.285   6.996 -0.3435 -0.6689  0.3803
  188SAPI   H2R21610   6.948   6.365   6.958 -0.3577  0.5369  2.6860
  188SAPI   H2S21611   6.779   6.324   7.021  0.1031  0.3009  0.7432
  188SAPI    C321612   7.048   6.033   6.670 -0.2560 -0.5706 -0.3050
  188SAPI    HX21613   7.132   6.106   6.660 -0.8304 -0.1355 -2.3966
  188SAPI    HY21614   7.044   5.978   6.573 -1.2780  1.9897 -1.8266
  188SAPI   O3121615   7.072   5.958   6.789 -0.0703 -0.0670  0.0696
  188SAPI   C3121616   7.000   5.849   6.795  0.4110  0.4872 -0.5640
  188SAPI   O3221617   6.930   5.809   6.703  0.2242  0.0745 -0.4133
  188SAPI   C3221618   7.024   5.781   6.932  0.1585 -0.1320  0.4350
  188SAPI   H2X21619   7.132   5.756   6.940  0.1494 -0.3396 -0.0372
  188SAPI   H2Y21620   6.957   5.692   6.936  0.9297 -0.6555  2.4809
  188SAPI   C2321621   6.963   6.219   7.111 -0.5040 -0.8875  0.0637
  188SAPI   H3R21622   7.063   6.194   7.069  0.4624 -0.3162  1.9166
  188SAPI   H3S21623   6.920   6.124   7.149  2.3163 -1.4517  2.1279
  188SAPI   C2421624   6.975   6.316   7.233  0.5444  0.2712  0.0811
  188SAPI   H4R21625   6.891   6.282   7.298  0.6556 -0.9176 -0.3745
  188SAPI   H4S21626   6.953   6.420   7.200  0.3107  0.1209 -0.2462
  188SAPI   C2521627   7.112   6.302   7.291 -0.8599 -0.4858  0.5045
  188SAPI   H5R21628   7.193   6.366   7.254 -0.8402 -0.2239  0.9922
  188SAPI   C2621629   7.134   6.221   7.396 -0.6089 -0.4103  0.1286
  188SAPI   H6R21630   7.242   6.210   7.414 -0.0884  0.0101 -2.4245
  188SAPI   C2721631   7.045   6.135   7.470  0.2788  0.5029 -0.1591
  188SAPI   H7R21632   7.101   6.045   7.501  0.8378  0.9276  0.0765
  188SAPI   H7S21633   6.963   6.092   7.407  0.4406 -0.6892  0.4281
  188SAPI   C2821634   6.974   6.212   7.580 -0.8343  0.3189 -0.4049
  188SAPI   H8R21635   6.875   6.250   7.553 -0.1666  2.4596  0.0225
  188SAPI   C2921636   7.017   6.209   7.706  0.0164 -0.2713 -0.0984
  188SAPI   H9R21637   6.955   6.262   7.780 -1.0157 -1.3380 -0.1686
  188SAPI  C21021638   7.146   6.142   7.750  0.2706 -0.6526  0.1696
  188SAPI  H10R21639   7.191   6.203   7.831 -0.7383 -0.3491  0.5248
  188SAPI  H10S21640   7.220   6.149   7.668  1.1585  0.1960  1.0096
  188SAPI  C21121641   7.132   5.994   7.790  0.1075  0.4556 -0.5587
  188SAPI  H11R21642   7.164   5.923   7.712 -1.8788  0.0456 -1.0637
  188SAPI  C21221643   7.107   5.947   7.916 -0.4431 -0.5888 -0.1217
  188SAPI  H12R21644   7.093   5.840   7.938 -2.8837 -0.6328 -1.4235
  188SAPI  C21321645   7.072   6.042   8.033 -0.4287 -0.3698 -0.4367
  188SAPI  H13R21646   6.966   6.037   8.066 -0.2966 -0.4320 -0.0181
  188SAPI  H13S21647   7.097   6.146   8.001 -0.5217 -1.0067 -2.7627
  188SAPI  C21421648   7.167   6.009   8.150 -1.2088 -0.0759 -0.5162
  188SAPI  H14R21649   7.234   5.922   8.137 -0.1001  0.6892 -0.0330
  188SAPI  C21521650   7.187   6.085   8.257  0.4797 -0.1491  0.2959
  188SAPI  H15R21651   7.256   6.061   8.339  1.7736  1.0379 -0.3955
  188SAPI  C21621652   7.108   6.211   8.287  0.5730 -0.2615  0.2560
  188SAPI  H16R21653   7.045   6.237   8.199 -1.6962 -1.0294  1.5584
  188SAPI  H16S21654   7.188   6.285   8.305  1.3080 -0.5576 -1.5686
  188SAPI  C21721655   7.001   6.200   8.400  0.2707 -0.2207 -0.4532
  188SAPI  H17R21656   7.058   6.164   8.489  1.5003 -1.4745 -1.6987
  188SAPI  H17S21657   6.915   6.135   8.375 -0.7469  0.0454  2.1016
  188SAPI  C21821658   6.942   6.329   8.446 -0.9145 -0.3735  0.3141
  188SAPI  H18R21659   6.894   6.390   8.367  1.2226 -0.7155 -1.3515
  188SAPI  H18S21660   7.034   6.389   8.462  0.1717 -0.7415 -3.5262
  188SAPI  C21921661   6.860   6.320   8.572  0.4270 -0.3841 -0.3141
  188SAPI  H19R21662   6.843   6.427   8.599 -0.4762 -0.4531 -0.5514
  188SAPI  H19S21663   6.922   6.270   8.649  1.1683  2.5798  1.1844
  188SAPI  C22021664   6.724   6.255   8.539  0.2163 -0.4914 -0.1420
  188SAPI  H20R21665   6.668   6.211   8.624 -0.2448 -0.7127 -0.5602
  188SAPI  H20S21666   6.748   6.159   8.488  1.9978 -1.6168  2.5734
  188SAPI  H20T21667   6.656   6.314   8.474 -0.1561 -0.1233  0.5751
  188SAPI   C3321668   6.993   5.887   7.042 -0.4574 -0.2774 -0.5982
  188SAPI   H3X21669   6.884   5.905   7.033 -0.3724  0.1876 -0.7431
  188SAPI   H3Y21670   7.046   5.982   7.017  1.4813 -1.4898 -1.3760
  188SAPI   C3421671   7.050   5.847   7.174 -0.0811 -0.0611 -0.1456
  188SAPI   H4X21672   7.062   5.940   7.234 -1.4808 -0.2613  0.4867
  188SAPI   H4Y21673   7.148   5.800   7.153 -0.2070 -1.8127  2.6168
  188SAPI   C3521674   6.954   5.746   7.240 -0.8421  0.2738  0.9952
  188SAPI   H5X21675   6.966   5.652   7.182  0.1802  1.1956 -0.3382
  188SAPI   H5Y21676   6.851   5.786   7.235 -1.5723 -1.6080 -0.0212
  188SAPI   C3621677   6.985   5.723   7.384 -0.1820 -0.2455  0.2510
  188SAPI   H6X21678   6.901   5.658   7.416  0.2436 -0.9968 -0.1491
  188SAPI   H6Y21679   6.961   5.814   7.444 -1.4960  0.6283 -1.4964
  188SAPI   C3721680   7.122   5.670   7.433 -0.4080  0.0907 -0.2946
  188SAPI   H7X21681   7.192   5.749   7.467  1.0273 -0.8810 -0.8637
  188SAPI   H7Y21682   7.176   5.616   7.352  1.7120 -0.1652  1.1969
  188SAPI   C3821683   7.107   5.574   7.559  0.1416 -0.5267  0.2209
  188SAPI   H8X21684   7.064   5.475   7.536  1.2710 -0.9685 -0.0761
  188SAPI   H8Y21685   7.039   5.643   7.613 -0.0806  1.6163 -2.5575
  188SAPI   C3921686   7.240   5.551   7.624 -0.1272 -0.3392 -0.7693
  188SAPI   H9X21687   7.302   5.641   7.644  0.5959 -1.0544  0.3731
  188SAPI   H9Y21688   7.305   5.480   7.569  0.6101 -0.8305  0.6584
  188SAPI  C31021689   7.217   5.492   7.769  0.2831 -0.1348 -0.0478
  188SAPI  H10X21690   7.313   5.453   7.810  0.1999 -0.5769 -0.2674
  188SAPI  H10Y21691   7.139   5.413   7.766 -1.0876  1.2235 -1.8524
  188SAPI  C31121692   7.162   5.597   7.863 -0.1517 -0.5955 -0.1575
  188SAPI  H11X21693   7.065   5.632   7.822 -0.9661 -0.8058  1.5189
  188SAPI  H11Y21694   7.240   5.676   7.854 -0.7699  0.1035  0.5377
  188SAPI  C31221695   7.143   5.550   8.010 -0.3294  0.4157 -0.0155
  188SAPI  H12X21696   7.059   5.476   8.012  0.5406 -0.5976  2.5010
  188SAPI  H12Y21697   7.100   5.629   8.075 -0.5513 -1.0287  1.6846
  188SAPI  C31321698   7.276   5.490   8.077  0.1057 -0.5742  0.0126
  188SAPI  H13X21699   7.354   5.564   8.048 -1.2182  1.6096  1.6969
  188SAPI  H13Y21700   7.303   5.387   8.045  1.5578 -0.2007 -0.0335
  188SAPI  C31421701   7.286   5.498   8.231 -0.5157 -0.4099 -0.2538
  188SAPI  H14X21702   7.267   5.598   8.274  0.6501 -1.0291  1.8518
  188SAPI  H14Y21703   7.390   5.471   8.260 -0.7597  2.0481  3.5557
  188SAPI  C31521704   7.208   5.398   8.312  0.0458  0.8359 -0.7234
  188SAPI  H15X21705   7.224   5.292   8.285 -2.2991 -0.2884  1.8558
  188SAPI  H15Y21706   7.106   5.418   8.275 -0.2480 -0.4555 -0.6456
  188SAPI  C31621707   7.231   5.401   8.459  0.4298  0.7291  0.2894
  188SAPI  H16X21708   7.237   5.511   8.477  1.7856  0.7697 -0.2917
  188SAPI  H16Y21709   7.327   5.361   8.496 -0.9806 -1.6922  1.5914
  188SAPI  C31721710   7.109   5.336   8.530 -0.9908  0.3506  0.3716
  188SAPI  H17X21711   7.023   5.347   8.460  0.2921 -0.3159 -1.3694
  188SAPI  H17Y21712   7.094   5.391   8.626 -1.3282 -2.2791  1.9351
  188SAPI  C31821713   7.138   5.192   8.560 -0.0052  0.9618  0.8449
  188SAPI  H18X21714   7.221   5.188   8.633 -1.4160  1.8902  2.5816
  188SAPI  H18Y21715   7.173   5.141   8.468 -0.0905  1.1769  0.6917
  188SAPI  H18Z21716   7.052   5.134   8.602 -1.3083  2.0373 -0.2192
  189POPC     N21717   5.089   3.493  11.098  0.0058  0.3645  0.1967
  189POPC   C1221718   5.012   3.619  11.058  0.0885 -0.2331 -0.8129
  189POPC  H12A21719   5.058   3.706  11.103 -0.1883  1.1265 -3.0221
  189POPC  H12B21720   4.913   3.613  11.101 -0.5998 -1.3970 -2.4697
  189POPC   C1321721   5.216   3.485  11.023 -0.4269  0.3123  0.8880
  189POPC  H13A21722   5.273   3.405  11.069 -0.7933 -1.3855 -1.4182
  189POPC  H13B21723   5.213   3.461  10.918  1.7937  3.5141 -0.0270
  189POPC  H13C21724   5.271   3.576  11.035 -1.4044  0.9481  0.6757
  189POPC   C1421725   5.121   3.497  11.246 -0.1901 -0.2702 -0.4956
  189POPC  H14A21726   5.185   3.411  11.259 -1.6344 -1.4358 -0.8814
  189POPC  H14B21727   5.187   3.579  11.272 -0.6531 -0.3713  1.1171
  189POPC  H14C21728   5.035   3.492  11.310 -1.8840 -1.1199 -2.6979
  189POPC   C1521729   4.998   3.380  11.062  0.4913  0.8371 -0.5542
  189POPC  H15A21730   4.984   3.366  10.956  1.3108  0.7144 -0.6552
  189POPC  H15B21731   4.900   3.392  11.106  0.9751  0.4892  0.6517
  189POPC  H15C21732   5.040   3.289  11.104  0.8110  1.3013  0.1500
  189POPC   C1121733   4.989   3.644  10.908 -0.3288  0.2111 -0.2650
  189POPC  H11A21734   4.927   3.563  10.866 -0.3432 -0.1663  0.4630
  189POPC  H11B21735   5.084   3.644  10.850 -0.3275  0.3332 -0.2634
  189POPC     P21736   4.770   3.792  10.895 -0.4709  0.0830 -0.2712
  189POPC   O1321737   4.752   3.941  10.891 -0.2695  0.0598  0.7021
  189POPC   O1421738   4.712   3.722  11.012 -0.1128 -0.0395  0.2974
  189POPC   O1221739   4.929   3.772  10.889 -0.0104  0.0425  0.2905
  189POPC   O1121740   4.709   3.724  10.769 -0.7619  0.4652  0.4907
  189POPC    C121741   4.719   3.768  10.633  0.0870 -0.1696  0.4630
  189POPC    HA21742   4.735   3.685  10.561  0.2331 -0.8630  1.2796
  189POPC    HB21743   4.796   3.847  10.621  1.0770 -0.4628  3.9785
  189POPC    C221744   4.579   3.827  10.582  0.8782  0.0997 -0.0815
  189POPC    HS21745   4.539   3.875  10.673  2.3567 -0.0855  0.7043
  189POPC   O2121746   4.500   3.717  10.544  0.8393 -0.1720 -0.2075
  189POPC   C2121747   4.373   3.737  10.542  0.3603  0.5936  0.1815
  189POPC   O2221748   4.323   3.846  10.536 -0.2074 -0.4458 -0.7138
  189POPC   C2221749   4.301   3.605  10.527  0.2736  0.1924  0.4253
  189POPC   H2R21750   4.252   3.589  10.625 -0.3699 -0.7016 -0.0345
  189POPC   H2S21751   4.380   3.527  10.519 -0.8245 -0.8697 -0.4413
  189POPC    C321752   4.600   3.923  10.468  0.5705  0.5897 -0.6506
  189POPC    HX21753   4.665   4.006  10.501  0.1124 -0.2590  2.7148
  189POPC    HY21754   4.506   3.968  10.429 -0.1541 -0.6576 -0.3912
  189POPC   O3121755   4.654   3.850  10.360 -0.1468 -0.5352 -0.0226
  189POPC   C3121756   4.735   3.913  10.275  0.1768 -0.4886 -0.1172
  189POPC   O3221757   4.771   4.029  10.284  0.6034 -0.3160  0.9708
  189POPC   C3221758   4.751   3.815  10.152  0.5417  0.3458 -0.4676
  189POPC   H2X21759   4.647   3.796  10.116 -0.0846  0.7681  1.0316
  189POPC   H2Y21760   4.792   3.722  10.196 -1.8373 -0.3992  0.3277
  189POPC   C2321761   4.210   3.592  10.404  0.1183 -0.1766  0.3519
  189POPC   H3R21762   4.140   3.678  10.419  0.6197  0.0878  1.2338
  189POPC   H3S21763   4.150   3.499  10.414  0.8459 -0.7864 -0.7367
  189POPC   C2421764   4.272   3.603  10.263 -0.1410  0.7049 -0.1393
  189POPC   H4R21765   4.287   3.711  10.239  0.0143  1.0990  1.5467
  189POPC   H4S21766   4.203   3.560  10.188 -1.4638  1.1135  0.8046
  189POPC   C2521767   4.417   3.549  10.250  0.4257 -0.2453 -0.3112
  189POPC   H5R21768   4.425   3.439  10.265  1.9675  0.0671  1.5819
  189POPC   H5S21769   4.483   3.598  10.325  0.1581 -2.0738  1.2142
  189POPC   C2621770   4.477   3.590  10.113 -0.1837 -0.3508  0.1806
  189POPC   H6R21771   4.585   3.571  10.132 -0.0895 -1.6714 -1.4351
  189POPC   H6S21772   4.462   3.697  10.090 -0.5595 -0.7880 -1.7465
  189POPC   C2721773   4.417   3.501   9.998  0.6426  0.2876 -0.4345
  189POPC   H7R21774   4.309   3.487  10.017  0.9436 -0.5836  0.7492
  189POPC   H7S21775   4.449   3.395  10.012  1.4480  0.5047 -0.5842
  189POPC   C2821776   4.450   3.556   9.861 -0.1900  0.3254  0.2594
  189POPC   H8R21777   4.439   3.666   9.857 -0.7952  0.2270 -1.1459
  189POPC   H8S21778   4.382   3.503   9.792 -1.6869  0.0098  1.9151
  189POPC   C2921779   4.594   3.525   9.831  0.0355 -0.4924  0.2282
  189POPC   H9121780   4.667   3.550   9.909  2.8115 -2.2020 -1.6480
  189POPC  C21021781   4.642   3.468   9.719 -0.2202  1.0653 -0.3643
  189POPC  H10121782   4.750   3.458   9.698  0.0614 -0.3505  1.5223
  189POPC  C21121783   4.566   3.436   9.593  0.6778 -0.5305  0.7557
  189POPC  H11R21784   4.456   3.456   9.601  0.0542 -4.1765  3.2537
  189POPC  H11S21785   4.569   3.326   9.578 -0.8901 -0.5944  0.7446
  189POPC  C21221786   4.613   3.514   9.473  0.0810  0.6401  0.5313
  189POPC  H12R21787   4.724   3.517   9.468  0.1454 -1.4803 -1.2376
  189POPC  H12S21788   4.562   3.611   9.485 -1.0209 -0.2617  4.2509
  189POPC  C21321789   4.568   3.457   9.344 -0.4574 -0.4589  0.3272
  189POPC  H13R21790   4.459   3.437   9.350 -0.7338  0.6108 -0.8242
  189POPC  H13S21791   4.619   3.364   9.308 -0.4467 -0.0840 -0.6512
  189POPC  C21421792   4.606   3.549   9.224  0.8331  0.0922 -0.8181
  189POPC  H14R21793   4.709   3.586   9.245  0.2012  0.7340  1.3887
  189POPC  H14S21794   4.537   3.636   9.213 -2.6294 -2.3261 -0.0621
  189POPC  C21521795   4.618   3.476   9.083 -0.2134  0.2247 -0.3880
  189POPC  H15R21796   4.531   3.413   9.057 -0.9480 -0.3099  2.9273
  189POPC  H15S21797   4.706   3.408   9.084  0.6544  1.2937  0.6331
  189POPC  C21621798   4.654   3.577   8.971  0.1471  0.5779 -0.1715
  189POPC  H16R21799   4.731   3.652   9.002  1.8316 -0.4954 -1.5229
  189POPC  H16S21800   4.562   3.638   8.958 -2.3312 -2.5351  1.4110
  189POPC  C21721801   4.680   3.510   8.840  0.0388  0.5711 -0.0034
  189POPC  H17R21802   4.648   3.584   8.764 -0.5661  0.6099  0.2788
  189POPC  H17S21803   4.621   3.416   8.836 -0.7609  1.0912 -0.4881
  189POPC  C21821804   4.831   3.477   8.813  0.7359 -0.0104 -0.4797
  189POPC  H18R21805   4.874   3.411   8.890  1.7801  1.4570  0.2442
  189POPC  H18S21806   4.895   3.566   8.793  2.4525 -0.4891  2.3663
  189POPC  H18T21807   4.837   3.411   8.724  0.1549 -1.3235  0.4397
  189POPC   C3321808   4.835   3.875  10.036 -0.1316 -0.2154 -0.8522
  189POPC   H3X21809   4.924   3.916  10.089 -0.7331  0.4113 -0.3011
  189POPC   H3Y21810   4.779   3.968  10.014  0.4892 -0.0118 -1.5972
  189POPC   C3421811   4.862   3.776   9.923  0.2028  0.0455  0.5618
  189POPC   H4X21812   4.766   3.738   9.882  1.2426 -2.2455  0.1152
  189POPC   H4Y21813   4.927   3.689   9.947 -0.8083 -1.2112 -1.0731
  189POPC   C3521814   4.925   3.845   9.810  0.5079  0.4548 -0.3313
  189POPC   H5X21815   5.020   3.875   9.860 -0.5897 -0.3126  2.3915
  189POPC   H5Y21816   4.868   3.932   9.770 -0.7660 -0.1260  0.1723
  189POPC   C3621817   4.962   3.740   9.700  0.2412 -0.1864 -0.7526
  189POPC   H6X21818   4.863   3.697   9.672 -1.4883  0.9886  2.9989
  189POPC   H6Y21819   5.026   3.665   9.749  1.0595  1.2317  0.4230
  189POPC   C3721820   5.046   3.796   9.583  0.3240 -0.0914 -0.0357
  189POPC   H7X21821   5.138   3.844   9.623 -0.2449 -0.4853  1.8173
  189POPC   H7Y21822   4.998   3.883   9.533  0.3592  0.2235  0.4731
  189POPC   C3821823   5.068   3.685   9.475  0.6060  0.2160 -0.4416
  189POPC   H8X21824   4.984   3.614   9.458  1.2592 -0.7895  0.4381
  189POPC   H8Y21825   5.149   3.630   9.527 -1.1365 -1.3665  0.7529
  189POPC   C3921826   5.121   3.748   9.343 -0.3177  0.0870  0.1825
  189POPC   H9X21827   5.200   3.822   9.366 -1.7000  2.1126 -1.2361
  189POPC   H9Y21828   5.037   3.803   9.294  1.2880  2.3231 -0.1925
  189POPC  C31021829   5.174   3.641   9.248  0.2195 -0.6644 -0.1560
  189POPC  H10X21830   5.100   3.559   9.233 -0.7075  0.2315 -0.5744
  189POPC  H10Y21831   5.260   3.594   9.300  0.8651 -0.0277 -0.6337
  189POPC  C31121832   5.226   3.703   9.113  0.0309  0.2757 -0.2877
  189POPC  H11X21833   5.296   3.784   9.143  0.8477 -1.0570  1.6095
  189POPC  H11Y21834   5.128   3.727   9.068 -0.2883  0.2667  0.4013
  189POPC  C31221835   5.278   3.593   9.016 -1.0199 -0.1556  0.4350
  189POPC  H12X21836   5.197   3.518   9.001 -0.4409 -0.6500 -0.2400
  189POPC  H12Y21837   5.375   3.552   9.050  0.4807  2.0736 -0.9125
  189POPC  C31321838   5.308   3.652   8.875  0.5286 -0.8213  0.0759
  189POPC  H13X21839   5.372   3.742   8.892 -0.1076 -0.3968  0.2394
  189POPC  H13Y21840   5.211   3.682   8.831 -0.3354 -0.3857  2.1776
  189POPC  C31421841   5.370   3.546   8.783  0.1672 -0.0037  0.7695
  189POPC  H14X21842   5.310   3.453   8.772  0.3749 -0.1218  0.6232
  189POPC  H14Y21843   5.465   3.505   8.823  1.7238  1.1349 -1.5231
  189POPC  C31521844   5.395   3.607   8.642  0.2013  0.7925  0.1255
  189POPC  H15X21845   5.492   3.661   8.652  0.7230 -0.2422  0.8953
  189POPC  H15Y21846   5.315   3.682   8.626  0.7945  0.9731 -2.5481
  189POPC  C31621847   5.391   3.507   8.527 -0.8510 -0.7130  0.0037
  189POPC  H16X21848   5.459   3.421   8.549  2.0895  1.5676  0.5000
  189POPC  H16Y21849   5.419   3.555   8.431 -1.0374  2.9398  1.6275
  189POPC  H16Z21850   5.293   3.459   8.507 -1.5095  0.7427 -0.3945
  190POPC     N21851   6.701   5.873  11.165 -0.4162  0.2240 -0.0632
  190POPC   C1221852   6.572   5.942  11.203  0.4179  0.1523  0.4173
  190POPC  H12A21853   6.501   5.927  11.123  0.0065  1.1322  0.5856
  190POPC  H12B21854   6.590   6.048  11.217 -2.0647  0.9949 -1.9448
  190POPC   C1321855   6.681   5.726  11.152  0.4978 -0.2218 -0.0942
  190POPC  H13A21856   6.622   5.689  11.235  1.7464 -0.1340  0.8619
  190POPC  H13B21857   6.633   5.702  11.058  1.3095  0.3043 -0.6609
  190POPC  H13C21858   6.770   5.664  11.154 -0.1785 -1.1982  1.6914
  190POPC   C1421859   6.751   5.931  11.036 -0.2566 -0.5711  0.0488
  190POPC  H14A21860   6.854   5.905  11.019 -0.1752 -0.9970  1.1232
  190POPC  H14B21861   6.689   5.888  10.959 -1.3832  0.9028  0.0725
  190POPC  H14C21862   6.744   6.039  11.029  0.8140 -0.5879 -1.7024
  190POPC   C1521863   6.802   5.892  11.271  0.3542  0.0205 -0.7503
  190POPC  H15A21864   6.868   5.807  11.265 -1.0098 -1.3523  1.8738
  190POPC  H15B21865   6.759   5.892  11.370 -0.6338  0.0418 -1.1639
  190POPC  H15C21866   6.864   5.979  11.255 -0.4626  0.2346 -3.0832
  190POPC   C1121867   6.503   5.890  11.333  0.7874  0.3195  0.7103
  190POPC  H11A21868   6.427   5.965  11.365  0.7445  0.8964 -0.6665
  190POPC  H11B21869   6.580   5.883  11.412  2.2883 -1.2387 -0.8023
  190POPC     P21870   6.296   5.758  11.236  0.2539 -0.2026 -0.0962
  190POPC   O1321871   6.204   5.856  11.293 -0.1255 -0.1140 -0.0687
  190POPC   O1421872   6.246   5.620  11.238 -0.3526  0.3609  0.8641
  190POPC   O1221873   6.438   5.762  11.315 -0.0521  0.5086  0.2816
  190POPC   O1121874   6.337   5.806  11.087  0.1487 -0.7712 -0.0419
  190POPC    C121875   6.298   5.726  10.977 -0.5211  0.2809 -0.2679
  190POPC    HA21876   6.195   5.747  10.944 -0.6053  1.3705  0.6119
  190POPC    HB21877   6.327   5.619  10.990  0.6743  0.6939  0.6490
  190POPC    C221878   6.382   5.778  10.854 -0.6376  0.3724  1.2339
  190POPC    HS21879   6.330   5.728  10.769  2.4081  1.1027 -1.2419
  190POPC   O2121880   6.523   5.738  10.862  0.6025 -0.1350  0.2228
  190POPC   C2121881   6.578   5.716  10.741  0.1563 -0.6257  0.4104
  190POPC   O2221882   6.514   5.676  10.643 -0.1238 -0.1853  0.1822
  190POPC   C2221883   6.723   5.764  10.739  0.0715 -0.5631  0.0679
  190POPC   H2R21884   6.763   5.732  10.837  0.4248 -0.9779 -0.2092
  190POPC   H2S21885   6.717   5.873  10.720  0.3760 -0.7541 -1.2687
  190POPC    C321886   6.379   5.932  10.845 -0.4988 -0.3476 -0.1165
  190POPC    HX21887   6.445   5.976  10.922  0.4948  0.8761 -1.5993
  190POPC    HY21888   6.270   5.944  10.863 -0.6815 -0.1423 -1.2801
  190POPC   O3121889   6.425   5.969  10.714 -0.4372 -0.3736  0.0571
  190POPC   C3121890   6.342   6.042  10.639  0.3830  0.0314  0.0916
  190POPC   O3221891   6.224   6.065  10.665  0.0459  0.0198 -0.0214
  190POPC   C3221892   6.420   6.088  10.518 -0.0649 -0.0621 -0.1002
  190POPC   H2X21893   6.514   6.030  10.510 -1.0782 -1.8239  0.2242
  190POPC   H2Y21894   6.448   6.194  10.534  0.7218 -0.1891 -0.6023
  190POPC   C2321895   6.800   5.706  10.619  0.7076 -0.3714 -0.3715
  190POPC   H3R21896   6.753   5.610  10.587 -1.3760  0.8991 -1.3356
  190POPC   H3S21897   6.907   5.697  10.648  0.5400  2.3315  1.4328
  190POPC   C2421898   6.796   5.801  10.505 -0.2785 -0.5121 -0.7081
  190POPC   H4R21899   6.845   5.894  10.539 -0.3570 -0.0272 -1.8730
  190POPC   H4S21900   6.692   5.835  10.489  0.0638  0.3085 -1.1978
  190POPC   C2521901   6.864   5.753  10.376 -1.1537  0.4283  0.0711
  190POPC   H5R21902   6.951   5.688  10.396 -2.5242 -1.2503  0.9030
  190POPC   H5S21903   6.884   5.835  10.304 -1.7696  0.9168  0.4442
  190POPC   C2621904   6.760   5.663  10.298 -0.4261 -0.1518  0.6529
  190POPC   H6R21905   6.691   5.738  10.253  2.2576  3.6484  2.3176
  190POPC   H6S21906   6.706   5.595  10.369 -3.6679  1.1323 -0.3751
  190POPC   C2721907   6.825   5.582  10.180  0.4034 -0.1150 -0.6017
  190POPC   H7R21908   6.760   5.495  10.156 -1.0099  0.6606  0.2741
  190POPC   H7S21909   6.913   5.539  10.231 -0.6262 -0.7524  0.7163
  190POPC   C2821910   6.853   5.669  10.057  0.0154  0.0881 -1.2588
  190POPC   H8R21911   6.908   5.756  10.098  0.2247 -0.9697  0.8424
  190POPC   H8S21912   6.755   5.707  10.022  0.7708  2.0270 -1.3993
  190POPC   C2921913   6.927   5.589   9.953  0.0587  0.7631 -0.2871
  190POPC   H9121914   6.985   5.500   9.981 -0.4981  0.2293 -0.8118
  190POPC  C21021915   6.920   5.609   9.827  0.0711 -0.3944  0.1924
  190POPC  H10121916   6.974   5.539   9.761 -0.1865 -1.3746  0.9989
  190POPC  C21121917   6.852   5.731   9.762  0.1188  0.1622 -0.3830
  190POPC  H11R21918   6.847   5.824   9.822 -0.1640  0.8954 -1.5175
  190POPC  H11S21919   6.748   5.707   9.731  0.6944 -1.2173 -1.3744
  190POPC  C21221920   6.929   5.778   9.638 -0.2046 -0.3536 -0.2140
  190POPC  H12R21921   7.034   5.796   9.671  0.0703  2.3400 -2.2496
  190POPC  H12S21922   6.894   5.880   9.614  1.6475  0.8241  1.7155
  190POPC  C21321923   6.921   5.684   9.512  0.6221 -0.2637  0.5177
  190POPC  H13R21924   6.815   5.666   9.483  0.9334 -1.8371  0.2836
  190POPC  H13S21925   6.968   5.592   9.553  2.6784  0.4780 -0.0363
  190POPC  C21421926   7.005   5.746   9.398 -0.5993 -0.4876 -0.2064
  190POPC  H14R21927   7.115   5.754   9.413 -0.7044  0.6791 -0.0081
  190POPC  H14S21928   6.974   5.851   9.381  0.7735 -0.3044 -1.9176
  190POPC  C21521929   6.969   5.673   9.263  1.0316 -0.4609 -0.4033
  190POPC  H15R21930   6.859   5.657   9.265  1.0399 -1.1880 -2.6871
  190POPC  H15S21931   7.015   5.572   9.254  0.4298 -0.6149 -2.2109
  190POPC  C21621932   7.009   5.752   9.137 -0.1065 -0.0742  0.0996
  190POPC  H16R21933   7.120   5.754   9.128 -0.0287 -0.4454  0.8769
  190POPC  H16S21934   6.961   5.850   9.117 -1.1492 -0.7714 -0.9063
  190POPC  C21721935   6.959   5.679   9.015 -0.1896  0.0531 -0.0467
  190POPC  H17R21936   6.850   5.675   9.036 -0.7161  0.1640 -2.4465
  190POPC  H17S21937   7.003   5.577   9.023  2.7196  1.2646  0.6917
  190POPC  C21821938   6.990   5.749   8.883  0.1681  0.9606 -0.3098
  190POPC  H18R21939   6.926   5.707   8.803  1.5126 -1.2529 -0.2938
  190POPC  H18S21940   7.096   5.732   8.854  0.4703 -1.8019  1.9301
  190POPC  H18T21941   6.973   5.859   8.885  1.8678  1.2516 -0.1676
  190POPC   C3321942   6.346   6.065  10.380  1.0261  0.3540  0.0929
  190POPC   H3X21943   6.247   6.116  10.390  0.0939 -1.0212 -1.6070
  190POPC   H3Y21944   6.317   5.959  10.368 -1.3215  0.4520  3.3697
  190POPC   C3421945   6.432   6.110  10.253 -0.0663 -0.0139 -0.8762
  190POPC   H4X21946   6.530   6.059  10.262 -0.9071 -1.6816 -0.9011
  190POPC   H4Y21947   6.446   6.220  10.259  0.9284 -0.2010  1.0846
  190POPC   C3521948   6.362   6.075  10.122  0.2697  0.0168 -0.6284
  190POPC   H5X21949   6.384   6.154  10.047  0.5156  1.8958  1.3248
  190POPC   H5Y21950   6.252   6.076  10.139  0.2321 -2.5282 -0.3144
  190POPC   C3621951   6.411   5.939  10.066  0.4562  0.0224  0.2186
  190POPC   H6X21952   6.364   5.846  10.107  0.9935 -0.5191 -0.3671
  190POPC   H6Y21953   6.521   5.926  10.072  0.4235 -2.0277 -2.1554
  190POPC   C3721954   6.372   5.926   9.918 -0.2651 -0.2458 -0.0469
  190POPC   H7X21955   6.419   6.012   9.866 -1.2745  0.0569 -0.4815
  190POPC   H7Y21956   6.262   5.936   9.911 -0.3047 -1.5231 -2.5617
  190POPC   C3821957   6.424   5.796   9.855  0.0405  0.4599  0.5029
  190POPC   H8X21958   6.391   5.704   9.908  4.8209 -3.1198 -1.8801
  190POPC   H8Y21959   6.534   5.798   9.870  0.1071  2.1821 -0.0473
  190POPC   C3921960   6.397   5.781   9.704 -0.6306 -1.0936 -0.1681
  190POPC   H9X21961   6.290   5.804   9.687 -0.7622 -0.4833  1.4002
  190POPC   H9Y21962   6.407   5.676   9.668 -1.8135 -1.2376 -0.0944
  190POPC  C31021963   6.480   5.880   9.614 -0.0737  0.4349 -0.3046
  190POPC  H10X21964   6.589   5.875   9.635  0.1502  1.6709 -1.0614
  190POPC  H10Y21965   6.453   5.979   9.655 -0.7529  0.3614 -0.5656
  190POPC  C31121966   6.459   5.869   9.462  0.2261 -0.2834 -0.5095
  190POPC  H11X21967   6.506   5.961   9.421 -2.4248  0.4437 -2.1218
  190POPC  H11Y21968   6.350   5.871   9.440 -0.1084  1.4880  1.0284
  190POPC  C31221969   6.517   5.751   9.392 -0.0126  0.0899  0.5609
  190POPC  H12X21970   6.483   5.653   9.433 -1.8901  0.2364 -0.5406
  190POPC  H12Y21971   6.626   5.754   9.410  0.1152  1.5038 -0.3140
  190POPC  C31321972   6.495   5.766   9.237 -0.4904 -0.3245 -0.2291
  190POPC  H13X21973   6.558   5.846   9.193  0.1481 -1.5311 -1.6027
  190POPC  H13Y21974   6.393   5.806   9.219 -1.0005 -1.3400  0.2948
  190POPC  C31421975   6.532   5.638   9.165  0.0134  0.1124  0.1130
  190POPC  H14X21976   6.496   5.547   9.219 -2.1402 -0.1632 -1.6305
  190POPC  H14Y21977   6.643   5.634   9.167  0.1293  2.1233 -0.5211
  190POPC  C31521978   6.475   5.634   9.023 -1.1936 -0.0283  0.4970
  190POPC  H15X21979   6.364   5.636   9.025 -1.1843 -0.0935  1.0286
  190POPC  H15Y21980   6.503   5.547   8.960  2.4911  0.0183  1.8381
  190POPC  C31621981   6.524   5.749   8.936  0.0177 -0.3762  0.7370
  190POPC  H16X21982   6.633   5.769   8.933  0.0729 -0.7010  0.4439
  190POPC  H16Y21983   6.483   5.843   8.977  1.1391 -0.2518  1.6156
  190POPC  H16Z21984   6.487   5.743   8.831  0.0888 -1.3733  0.7518
  191POPC     N21985   4.585   5.005   6.380 -0.0790 -0.2234 -0.0359
  191POPC   C1221986   4.462   5.026   6.474 -0.0305  1.3021  0.5564
  191POPC  H12A21987   4.388   5.074   6.412 -1.5834 -2.3096 -0.6912
  191POPC  H12B21988   4.499   5.080   6.560 -1.9483 -2.2481  3.9519
  191POPC   C1321989   4.622   5.138   6.322 -0.0724  0.2959  0.1247
  191POPC  H13A21990   4.651   5.206   6.400 -0.3325  2.4959 -1.6077
  191POPC  H13B21991   4.704   5.119   6.254 -0.4798 -0.8200 -0.0837
  191POPC  H13C21992   4.543   5.186   6.266 -0.6614  0.3454  0.9850
  191POPC   C1421993   4.697   4.950   6.465  0.2697  0.2364  0.5047
  191POPC  H14A21994   4.688   4.843   6.478  0.9592  0.2501  1.1539
  191POPC  H14B21995   4.786   4.959   6.405  0.6945 -1.9617  0.7158
  191POPC  H14C21996   4.710   4.987   6.566 -0.7611 -1.2339  1.2088
  191POPC   C1521997   4.557   4.912   6.268  0.1661 -0.0035  0.1598
  191POPC  H15A21998   4.519   4.822   6.313 -2.6967  0.6832 -0.6819
  191POPC  H15B21999   4.644   4.903   6.204  0.6535  0.4117  0.7523
  191POPC  H15C22000   4.483   4.954   6.202  0.6321 -0.4789 -0.6710
  191POPC   C1122001   4.408   4.896   6.545 -0.1196 -0.8777 -0.0092
  191POPC  H11A22002   4.322   4.927   6.608  0.1644  2.4174 -1.0250
  191POPC  H11B22003   4.490   4.862   6.611  1.2795  3.8166  1.0439
  191POPC     P22004   4.222   4.782   6.415  0.1980 -0.4253 -0.1375
  191POPC   O1322005   4.202   4.636   6.385 -0.2595 -0.0960  0.5730
  191POPC   O1422006   4.193   4.891   6.321 -0.0226  0.4979  0.2627
  191POPC   O1222007   4.374   4.790   6.453 -0.3499  0.6146  0.2651
  191POPC   O1122008   4.148   4.814   6.550  0.2537  0.0583 -0.3502
  191POPC    C122009   4.162   4.732   6.671 -0.1360 -0.3504 -0.2556
  191POPC    HA22010   4.260   4.680   6.667 -1.2210 -2.4324 -2.4808
  191POPC    HB22011   4.095   4.643   6.676 -2.1995  1.1108 -0.5601
  191POPC    C222012   4.141   4.817   6.792  0.4163 -0.3686  0.5410
  191POPC    HS22013   4.207   4.906   6.786 -1.7688  1.2981 -0.6677
  191POPC   O2122014   4.157   4.741   6.904 -0.6767  0.1455 -0.6655
  191POPC   C2122015   4.285   4.722   6.936 -0.3529 -0.7535  0.0263
  191POPC   O2222016   4.384   4.761   6.873  0.6578 -0.5834  0.1191
  191POPC   C2222017   4.304   4.663   7.074  0.7085  0.6326 -0.4179
  191POPC   H2R22018   4.344   4.561   7.055 -1.8090 -0.6212  0.5721
  191POPC   H2S22019   4.208   4.642   7.126  1.7123 -2.3055  0.4576
  191POPC    C322020   3.993   4.873   6.792 -0.3881  0.4652  0.4835
  191POPC    HX22021   3.926   4.785   6.777 -0.8268  0.8615  0.0956
  191POPC    HY22022   3.975   4.930   6.699 -3.4203 -0.2784  0.4979
  191POPC   O3122023   3.959   4.936   6.910 -0.1724 -0.2205 -0.2016
  191POPC   C3122024   4.009   5.057   6.920 -0.5446  0.2779 -0.2514
  191POPC   O3222025   4.087   5.113   6.843  0.2885 -0.0961  0.1618
  191POPC   C3222026   3.966   5.120   7.046  0.0545 -0.0252 -0.4883
  191POPC   H2X22027   4.048   5.184   7.086  1.6958 -1.4041 -1.4827
  191POPC   H2Y22028   3.944   5.042   7.121 -2.3082 -0.1995 -1.2967
  191POPC   C2322029   4.395   4.749   7.165 -0.7550 -0.2285 -0.4047
  191POPC   H3R22030   4.372   4.858   7.159 -0.2890 -0.0398  0.8759
  191POPC   H3S22031   4.504   4.736   7.153 -0.6726 -0.7915  0.8321
  191POPC   C2422032   4.372   4.712   7.314 -0.5652  0.4454 -0.5785
  191POPC   H4R22033   4.423   4.614   7.327 -1.4571  0.0462 -0.0454
  191POPC   H4S22034   4.264   4.700   7.335 -0.2614  1.6005  1.9751
  191POPC   C2522035   4.445   4.817   7.405  0.4795  0.1000  0.8365
  191POPC   H5R22036   4.395   4.916   7.401  1.1010  0.3930 -0.2537
  191POPC   H5S22037   4.551   4.827   7.372  0.9111 -1.0601  1.8153
  191POPC   C2622038   4.471   4.756   7.548 -0.1716 -0.0997 -0.2252
  191POPC   H6R22039   4.534   4.821   7.612 -0.7691 -0.2031  0.4905
  191POPC   H6S22040   4.515   4.654   7.546  0.0057 -0.0716  1.2196
  191POPC   C2722041   4.334   4.728   7.624  0.3659  0.0725 -0.1284
  191POPC   H7R22042   4.359   4.657   7.706  0.2419  1.3988  1.1037
  191POPC   H7S22043   4.261   4.679   7.557  2.4172 -0.3830 -2.1445
  191POPC   C2822044   4.266   4.849   7.683  0.7785 -0.4106  0.3492
  191POPC   H8R22045   4.171   4.827   7.735  0.6273  1.7682  1.1026
  191POPC   H8S22046   4.223   4.916   7.606 -2.8757 -3.2321 -0.3329
  191POPC   C2922047   4.348   4.929   7.788 -1.0616 -0.6621  0.6606
  191POPC   H9122048   4.455   4.936   7.762 -0.2937  1.7955  3.7952
  191POPC  C21022049   4.310   4.994   7.899  0.3745  1.0945 -0.3952
  191POPC  H10122050   4.384   5.055   7.954  0.5941  1.6071 -1.2432
  191POPC  C21122051   4.176   4.994   7.961  0.0889  0.0423 -0.8339
  191POPC  H11R22052   4.105   4.924   7.911 -1.5012  0.5162  0.6385
  191POPC  H11S22053   4.130   5.094   7.940  2.3211  0.8558 -2.2226
  191POPC  C21222054   4.183   4.952   8.113 -0.1598 -0.2997  0.6243
  191POPC  H12R22055   4.252   4.866   8.124 -1.4398 -1.1579  2.5762
  191POPC  H12S22056   4.084   4.921   8.153  0.1627 -0.3264  1.4360
  191POPC  C21322057   4.236   5.068   8.195 -0.3616  0.6056 -0.8745
  191POPC  H13R22058   4.165   5.152   8.183  0.0646  1.1560  0.2892
  191POPC  H13S22059   4.333   5.102   8.153  1.0563 -0.4837  1.3285
  191POPC  C21422060   4.244   5.050   8.354  0.4307 -0.3053 -0.1333
  191POPC  H14R22061   4.253   5.145   8.411 -0.3849  0.0532 -0.5981
  191POPC  H14S22062   4.336   4.991   8.379 -1.4750 -2.3584  2.6588
  191POPC  C21522063   4.131   4.966   8.418  0.6145 -0.5438 -0.0958
  191POPC  H15R22064   4.149   4.861   8.389 -1.2177 -1.5041  1.9847
  191POPC  H15S22065   4.042   5.014   8.372  1.6899  2.1032  0.4034
  191POPC  C21622066   4.128   4.982   8.565 -0.2309  0.2474 -0.3127
  191POPC  H16R22067   4.052   4.908   8.596  2.4566 -1.4553  2.8291
  191POPC  H16S22068   4.104   5.085   8.599 -0.3167  0.4261 -0.8886
  191POPC  C21722069   4.255   4.927   8.628  0.0419  0.2481 -0.4242
  191POPC  H17R22070   4.326   5.011   8.647  0.2183 -0.1581  0.7960
  191POPC  H17S22071   4.309   4.841   8.583  2.8294  0.3856  2.2917
  191POPC  C21822072   4.220   4.886   8.774 -0.8135  0.4176 -0.1782
  191POPC  H18R22073   4.179   4.964   8.841 -0.0282 -0.0996  0.9328
  191POPC  H18S22074   4.312   4.863   8.832 -0.9480  1.2623  0.3921
  191POPC  H18T22075   4.152   4.800   8.786  1.0434 -0.9301  1.2837
  191POPC   C3322076   3.834   5.198   7.028 -0.8227  0.2883 -0.5210
  191POPC   H3X22077   3.759   5.117   7.017  2.1267 -3.0770  1.7049
  191POPC   H3Y22078   3.830   5.263   6.938 -0.6193 -0.0331 -0.7670
  191POPC   C3422079   3.781   5.286   7.148 -0.4265 -0.5789  0.1266
  191POPC   H4X22080   3.699   5.350   7.108  1.2765  1.7919  0.2462
  191POPC   H4Y22081   3.871   5.349   7.158 -1.1246  0.7948 -1.7188
  191POPC   C3522082   3.754   5.223   7.280 -0.2893  0.1092 -0.0263
  191POPC   H5X22083   3.840   5.165   7.319  1.1570  2.3524  0.3252
  191POPC   H5Y22084   3.661   5.163   7.271  0.1845 -0.9488  1.6714
  191POPC   C3622085   3.736   5.332   7.390 -0.3839  0.1580 -0.0012
  191POPC   H6X22086   3.655   5.398   7.354 -3.0075 -3.0529 -0.3911
  191POPC   H6Y22087   3.831   5.390   7.390 -1.0468  1.2834  0.7895
  191POPC   C3722088   3.720   5.275   7.532  0.1209 -0.5213 -0.2675
  191POPC   H7X22089   3.797   5.201   7.560 -1.3520 -2.1070 -0.2477
  191POPC   H7Y22090   3.623   5.222   7.542 -0.7751  0.7860 -1.6227
  191POPC   C3822091   3.718   5.382   7.645 -0.3439 -0.9035 -0.1082
  191POPC   H8X22092   3.662   5.474   7.615 -0.7034 -1.4031 -1.0154
  191POPC   H8Y22093   3.822   5.414   7.664 -0.1861 -0.3505 -1.7146
  191POPC   C3922094   3.662   5.334   7.780  0.8454 -0.9576 -0.1709
  191POPC   H9X22095   3.721   5.249   7.821 -0.7929 -1.8321  0.5105
  191POPC   H9Y22096   3.559   5.295   7.762  0.5240  0.7221 -2.2334
  191POPC  C31022097   3.647   5.467   7.872 -0.8988  0.3575 -0.3180
  191POPC  H10X22098   3.590   5.551   7.828  1.4195  3.1424  1.5933
  191POPC  H10Y22099   3.748   5.510   7.888 -0.8856  1.2326 -2.4551
  191POPC  C31122100   3.582   5.436   8.004 -0.3198 -0.1501  0.7147
  191POPC  H11X22101   3.650   5.360   8.049  3.1331  0.6262 -2.6640
  191POPC  H11Y22102   3.475   5.408   7.995 -0.4740 -0.0877  2.1231
  191POPC  C31222103   3.596   5.558   8.094 -0.4235 -0.0625  0.0212
  191POPC  H12X22104   3.541   5.637   8.039 -0.5198 -1.4288 -1.9346
  191POPC  H12Y22105   3.701   5.589   8.115 -0.4516  0.2364 -0.2690
  191POPC  C31322106   3.515   5.543   8.236 -0.7406  0.7889 -0.1452
  191POPC  H13X22107   3.555   5.452   8.286 -1.4503  1.2781  1.3841
  191POPC  H13Y22108   3.407   5.530   8.212 -0.6661 -1.4919  0.4918
  191POPC  C31422109   3.533   5.669   8.321 -0.0346 -0.2084 -0.0630
  191POPC  H14X22110   3.434   5.715   8.344 -0.9835 -1.6923 -0.9604
  191POPC  H14Y22111   3.585   5.747   8.262  0.4197  1.0981  1.9685
  191POPC  C31522112   3.620   5.643   8.438 -0.5976 -0.2889 -0.2315
  191POPC  H15X22113   3.668   5.740   8.462 -0.3441 -0.3371 -0.5374
  191POPC  H15Y22114   3.702   5.572   8.414  0.3028  0.5605  0.2417
  191POPC  C31622115   3.541   5.599   8.562  0.3794 -0.0586 -0.4471
  191POPC  H16X22116   3.472   5.676   8.601 -1.2337 -1.7207  0.0977
  191POPC  H16Y22117   3.615   5.561   8.635 -1.7979 -1.3725  1.1860
  191POPC  H16Z22118   3.498   5.498   8.547  1.2155 -0.7633  1.5983
  192POPC     N22119   0.255   0.437   6.169  0.3387  0.3585  0.8732
  192POPC   C1222120   0.105   0.445   6.204  0.0940  0.1170 -0.7716
  192POPC  H12A22121   0.067   0.349   6.173 -0.8597 -0.0137  0.7439
  192POPC  H12B22122   0.067   0.516   6.131  0.3388 -0.0013 -1.0147
  192POPC   C1322123   0.306   0.324   6.244 -0.0169 -0.0930  0.2392
  192POPC  H13A22124   0.413   0.335   6.240  0.3873 -1.9661  2.9479
  192POPC  H13B22125   0.290   0.332   6.350  2.3916  1.1254  0.5702
  192POPC  H13C22126   0.269   0.228   6.209  2.1310 -1.1887  0.8451
  192POPC   C1422127   0.268   0.386   6.025 -0.1337  0.1208 -0.3746
  192POPC  H14A22128   0.257   0.475   5.965  1.1373  1.0419  0.6867
  192POPC  H14B22129   0.366   0.343   6.014  1.1637  1.9445  2.6090
  192POPC  H14C22130   0.192   0.312   6.005  2.4787 -2.6872 -0.5985
  192POPC   C1522131   0.326   0.563   6.185 -0.4101  0.8170  0.0555
  192POPC  H15A22132   0.290   0.646   6.127  0.0804  2.5989  2.1889
  192POPC  H15B22133   0.431   0.549   6.164 -0.4123  0.4664  0.2629
  192POPC  H15C22134   0.314   0.600   6.286 -0.5972 -0.7038  0.6234
  192POPC   C1122135   0.067   0.482   6.350 -0.3869  0.6894 -0.4160
  192POPC  H11A22136  -0.039   0.513   6.355 -0.4289  0.5616 -0.4980
  192POPC  H11B22137   0.114   0.578   6.381 -2.1133  1.8192 -1.1774
  192POPC     P22138   0.016   0.252   6.474  0.2722 -0.2522  0.1300
  192POPC   O1322139   0.009   0.162   6.353 -0.1669 -0.1200 -0.3852
  192POPC   O1422140  -0.119   0.288   6.528 -0.1506  0.1823 -0.9190
  192POPC   O1222141   0.096   0.377   6.434 -0.1024  0.3511  0.4519
  192POPC   O1122142   0.102   0.181   6.586  0.1062 -0.0745  0.3334
  192POPC    C122143   0.234   0.215   6.606 -0.3376 -0.6673 -0.0829
  192POPC    HA22144   0.254   0.324   6.598 -2.3107 -0.1477  1.1971
  192POPC    HB22145   0.303   0.172   6.531  0.9316  0.0950  0.6077
  192POPC    C222146   0.285   0.167   6.745 -0.0089 -0.8012  0.2370
  192POPC    HS22147   0.318   0.062   6.728  0.8440 -0.5402  0.2384
  192POPC   O2122148   0.190   0.172   6.855 -0.1627 -0.4111  0.1049
  192POPC   C2122149   0.154   0.286   6.904  0.5077  0.0416 -0.4772
  192POPC   O2222150   0.194   0.399   6.880  0.1638  1.3903  0.0294
  192POPC   C2222151   0.048   0.253   7.013 -0.0563 -0.3916 -0.3603
  192POPC   H2R22152   0.085   0.164   7.068  4.2100  1.5121  0.2040
  192POPC   H2S22153  -0.047   0.225   6.961  0.7355  1.1237 -2.7794
  192POPC    C322154   0.420   0.245   6.787 -0.3539  0.5470  0.1810
  192POPC    HX22155   0.412   0.354   6.771 -1.8628  0.3174 -0.8537
  192POPC    HY22156   0.501   0.213   6.719 -1.5108 -0.3840 -0.7991
  192POPC   O3122157   0.459   0.219   6.928 -0.1991  0.0768  0.2677
  192POPC   C3122158   0.566   0.284   6.971  0.2976  0.1139 -0.3145
  192POPC   O3222159   0.627   0.368   6.908  0.0871  0.0528  0.4282
  192POPC   C3222160   0.603   0.235   7.112  0.0293 -0.5155 -0.3871
  192POPC   H2X22161   0.712   0.253   7.117  0.3856 -2.1914 -1.1723
  192POPC   H2Y22162   0.566   0.132   7.131  1.5423 -1.6150 -2.8769
  192POPC   C2322163   0.044   0.367   7.123  0.4897 -0.5476  0.6405
  192POPC   H3R22164   0.035   0.468   7.079  1.8486 -0.3563  0.7596
  192POPC   H3S22165   0.141   0.377   7.177  0.9260  1.4761 -0.4427
  192POPC   C2422166  -0.078   0.361   7.217  0.4794  0.1646 -0.3668
  192POPC   H4R22167  -0.061   0.441   7.293 -0.7556  0.9646 -0.9059
  192POPC   H4S22168  -0.090   0.258   7.259 -4.8680  0.6980  0.1553
  192POPC   C2522169  -0.207   0.393   7.143  0.0621  0.8571 -0.2613
  192POPC   H5R22170  -0.228   0.313   7.068  1.5129  0.0799  0.1273
  192POPC   H5S22171  -0.195   0.481   7.077 -2.2773  0.5472 -1.1935
  192POPC   C2622172  -0.332   0.416   7.236 -0.2082  0.0124 -0.3837
  192POPC   H6R22173  -0.416   0.450   7.172 -0.1251 -0.0461 -0.5253
  192POPC   H6S22174  -0.309   0.496   7.309 -1.8346 -1.4654  1.8826
  192POPC   C2722175  -0.357   0.290   7.324  0.8120 -0.0190  0.2052
  192POPC   H7R22176  -0.280   0.267   7.401 -1.5309 -0.5318  2.5106
  192POPC   H7S22177  -0.372   0.205   7.254  1.0481 -0.3382  0.5410
  192POPC   C2822178  -0.490   0.308   7.398 -0.1070  0.2879  0.1185
  192POPC   H8R22179  -0.559   0.335   7.315 -0.3046 -1.6358 -0.3941
  192POPC   H8S22180  -0.499   0.396   7.465 -0.7006  0.4709 -0.1982
  192POPC   C2922181  -0.537   0.179   7.456 -0.2861 -0.2013 -0.6596
  192POPC   H9122182  -0.576   0.105   7.384 -0.0485  0.0530 -1.0546
  192POPC  C21022183  -0.526   0.141   7.582  0.0065 -0.0908 -0.0858
  192POPC  H10122184  -0.561   0.040   7.609 -1.5219 -0.0415 -1.6861
  192POPC  C21122185  -0.461   0.215   7.693  0.8254 -0.8774 -0.3237
  192POPC  H11R22186  -0.492   0.322   7.691  0.6168 -0.8945  1.0665
  192POPC  H11S22187  -0.352   0.198   7.684  1.1430  0.5275  0.5254
  192POPC  C21222188  -0.507   0.157   7.829 -0.5422  0.4827  0.2941
  192POPC  H12R22189  -0.455   0.061   7.851  0.0816  0.2316 -1.9756
  192POPC  H12S22190  -0.617   0.151   7.835 -0.7343  3.0168  0.4194
  192POPC  C21322191  -0.477   0.243   7.951  0.1138 -0.5496  0.0960
  192POPC  H13R22192  -0.531   0.338   7.932  0.2125 -0.7112 -1.0668
  192POPC  H13S22193  -0.370   0.270   7.968 -0.3271  0.9549  0.5947
  192POPC  C21422194  -0.523   0.184   8.082 -0.1869 -0.1428  0.4222
  192POPC  H14R22195  -0.465   0.092   8.108  1.9267  1.6496  2.5658
  192POPC  H14S22196  -0.630   0.154   8.074 -0.5437  1.5148 -1.7173
  192POPC  C21522197  -0.498   0.280   8.195 -0.0721 -0.1877  0.0217
  192POPC  H15R22198  -0.538   0.382   8.176 -0.1292  0.0554  1.4148
  192POPC  H15S22199  -0.391   0.286   8.225 -0.4947 -0.7246  1.7338
  192POPC  C21622200  -0.574   0.228   8.309  0.4371  0.0756 -0.2236
  192POPC  H16R22201  -0.554   0.123   8.339 -0.7863  0.1902  1.0652
  192POPC  H16S22202  -0.682   0.223   8.283  0.6005 -1.1533 -0.7476
  192POPC  C21722203  -0.560   0.314   8.438 -0.1835  0.0414  0.0535
  192POPC  H17R22204  -0.643   0.287   8.508 -1.9796  1.7535 -1.3185
  192POPC  H17S22205  -0.565   0.424   8.420 -0.1944  0.3715  1.8705
  192POPC  C21822206  -0.425   0.277   8.506 -0.2116  0.1409 -0.2964
  192POPC  H18R22207  -0.428   0.168   8.529  0.6075 -0.2427 -1.8255
  192POPC  H18S22208  -0.427   0.333   8.601 -0.6453 -2.0934  1.0969
  192POPC  H18T22209  -0.342   0.305   8.438 -1.1514 -0.2022 -1.6490
  192POPC   C3322210   0.544   0.326   7.225  0.8608  0.0989 -0.0733
  192POPC   H3X22211   0.440   0.365   7.233  0.8213 -0.3854  2.8529
  192POPC   H3Y22212   0.596   0.424   7.211 -0.0069  0.4998 -0.5799
  192POPC   C3422213   0.557   0.273   7.363  0.3235 -0.1456 -0.6533
  192POPC   H4X22214   0.665   0.264   7.390  0.9470 -0.2568 -2.9207
  192POPC   H4Y22215   0.513   0.172   7.361 -0.5531  0.2336 -1.2919
  192POPC   C3522216   0.500   0.373   7.469 -0.4970 -0.1614 -0.6613
  192POPC   H5X22217   0.398   0.394   7.431 -1.0257  0.5455  1.0452
  192POPC   H5Y22218   0.550   0.471   7.484 -0.6423 -0.5383  3.7951
  192POPC   C3622219   0.477   0.317   7.610  0.4232 -0.2694 -0.5341
  192POPC   H6X22220   0.513   0.213   7.620  1.8811  0.3999  2.0917
  192POPC   H6Y22221   0.373   0.294   7.642  0.0473  1.4682 -0.4023
  192POPC   C3722222   0.550   0.392   7.711  0.2614 -0.6747 -0.2726
  192POPC   H7X22223   0.481   0.473   7.744  0.2218 -1.2583  1.1682
  192POPC   H7Y22224   0.649   0.426   7.673 -1.0608  1.1215 -2.3683
  192POPC   C3822225   0.579   0.303   7.841  0.3213  0.0394  0.4316
  192POPC   H8X22226   0.636   0.211   7.814  0.4188  0.6487 -1.6594
  192POPC   H8Y22227   0.478   0.266   7.868  0.8502 -1.3997  0.5147
  192POPC   C3922228   0.649   0.386   7.952 -0.6659 -0.2132  0.9087
  192POPC   H9X22229   0.596   0.483   7.961 -0.9175 -0.0224 -1.8631
  192POPC   H9Y22230   0.756   0.402   7.924 -0.6474 -0.4995  0.8092
  192POPC  C31022231   0.643   0.306   8.082 -0.3713  0.5486 -0.6492
  192POPC  H10X22232   0.728   0.331   8.149 -0.7172  0.3631 -0.1318
  192POPC  H10Y22233   0.649   0.196   8.069  0.3220  0.4436  0.4104
  192POPC  C31122234   0.513   0.334   8.160 -0.0560  0.3395 -0.0555
  192POPC  H11X22235   0.426   0.294   8.104 -0.2002  3.0736 -1.9936
  192POPC  H11Y22236   0.492   0.443   8.167  0.4322  0.5227 -1.2608
  192POPC  C31222237   0.521   0.280   8.303  0.7473  0.1839  0.3782
  192POPC  H12X22238   0.615   0.318   8.347  1.4504  2.3543 -2.6695
  192POPC  H12Y22239   0.535   0.171   8.313  1.0083 -0.0638 -2.0854
  192POPC  C31322240   0.401   0.323   8.389  0.4155 -0.2955 -0.0287
  192POPC  H13X22241   0.397   0.434   8.389  1.8839 -0.2294  0.5366
  192POPC  H13Y22242   0.413   0.293   8.495  1.3454 -1.0006 -0.3291
  192POPC  C31422243   0.267   0.264   8.338 -0.5271 -0.5542 -0.1817
  192POPC  H14X22244   0.261   0.154   8.323 -1.8081 -0.6782  1.0542
  192POPC  H14Y22245   0.252   0.305   8.236  2.5794  1.6315  0.0733
  192POPC  C31522246   0.146   0.308   8.428 -0.0312  0.2269  0.0281
  192POPC  H15X22247   0.048   0.299   8.377 -0.6855 -1.6026  1.5075
  192POPC  H15Y22248   0.182   0.411   8.448 -1.5596  0.5054  1.5426
  192POPC  C31622249   0.144   0.240   8.570  0.1256  0.4837 -0.1587
  192POPC  H16X22250   0.092   0.303   8.646 -1.1340 -0.1793 -0.4396
  192POPC  H16Y22251   0.245   0.208   8.603 -0.6471 -4.8988 -2.0027
  192POPC  H16Z22252   0.084   0.147   8.559 -1.4317  1.4402 -0.0426
  193SOD    SOD22253   4.167   0.955  15.779  0.1799 -0.0024  0.2397
  194SOD    SOD22254   6.166   1.712  15.202  0.4095 -0.1215 -0.0334
  195SOD    SOD22255   3.479   0.415   5.941 -0.2755  0.1901 -0.2126
  196SOD    SOD22256   3.440   6.318   6.000  0.1357 -0.0458 -0.0046
  197SOD    SOD22257   4.971   0.417   3.965 -0.2070 -0.0349  0.2851
  198SOD    SOD22258   6.028   4.821  11.790 -0.4475 -0.2956 -0.2575
  199SOD    SOD22259   5.693   0.816  12.776  0.1665 -0.1268 -0.1066
  200SOD    SOD22260   1.154   4.559  13.212 -0.3494 -0.3977  0.2163
  201SOD    SOD22261   4.807   3.033   5.297 -0.2969  0.4928 -0.1705
  202SOD    SOD22262   1.161   3.097   5.348  0.0492 -0.2520  0.5143
  203SOD    SOD22263   3.050   5.415   6.287  0.3140  0.2102  0.0722
  204SOD    SOD22264   3.955   2.828  13.902  0.1121  0.1878 -0.3286
  205SOD    SOD22265   1.774   4.051  15.275  0.0916  0.0008  0.1900
  206SOD    SOD22266   2.056   2.052   3.085 -0.0320 -0.1477  0.2191
  207SOD    SOD22267   3.137   3.715  10.968 -0.4479  0.2701 -0.1320
  208SOD    SOD22268   1.787   0.493   0.490 -0.1878 -0.2004 -0.1655
  209SOD    SOD22269   0.680   2.428   3.479 -0.4582  0.0880 -0.3203
  210SOD    SOD22270   6.065   2.627   0.799  0.7366  0.2176  0.0198
  211SOD    SOD22271   1.961   4.867  13.195 -0.2546  0.1433 -0.3756
  212SOD    SOD22272   4.003   4.987   3.162  0.2931 -1.0170 -0.2539
  213SOD    SOD22273   5.493   4.677   2.582 -0.4240  0.5661 -0.0451
  214SOD    SOD22274   6.452   1.261  12.842  0.3020  0.2149  0.1098
  215SOD    SOD22275   0.993   1.844  11.660  0.1649  0.1186  0.6571
  216SOD    SOD22276   5.204   6.101  17.099  0.3802  0.4938  0.1331
  217SOD    SOD22277   0.520   2.493   6.361 -0.1578  0.1684  0.4605
  218SOD    SOD22278   2.417   3.712  11.392 -0.5094  0.2738 -0.3007
  219SOD    SOD22279   3.541   5.656  11.508 -0.2063  0.2663 -0.1669
  220SOD    SOD22280   0.244   3.855  12.098 -0.8443  0.0757 -0.0361
  221SOD    SOD22281   0.958   2.339   4.654 -0.3006  0.1689  0.0564
  222SOD    SOD22282   6.039   3.754  11.562 -0.2123 -0.7574 -0.0208
  223SOD    SOD22283   2.399   0.994   4.153  0.3572  0.5455  0.5354
  224SOD    SOD22284   1.151   0.847  11.876 -0.3875 -0.1674 -0.2535
  225SOD    SOD22285   4.553   6.675  14.369 -0.0278 -0.1870  0.1643
  226SOD    SOD22286   4.894   6.204   2.488 -0.6110 -0.1643  0.3293
  227SOD    SOD22287   6.190   1.022  11.633 -0.0475  0.5361 -0.4128
  228SOD    SOD22288   3.560   6.192   2.081 -0.4764 -0.0266 -0.0319
  229SOD    SOD22289   6.511   5.038   3.694 -0.0238 -0.0311  0.2430
  230SOD    SOD22290   0.249   5.241   5.424  0.1171 -0.1907 -0.3448
  231SOD    SOD22291   2.414   2.010  12.354 -0.5055 -0.2120  0.8490
  232SOD    SOD22292   2.165   3.618   6.013  0.2773  0.0086  0.0504
  233SOD    SOD22293   2.010   0.037   5.625 -0.5063  0.5819 -0.0802
  234SOD    SOD22294   5.288   0.798  12.393 -0.0519  0.0515  0.3379
  235SOD    SOD22295   4.172   4.554  15.828 -0.1403  0.1382 -0.1816
  236SOD    SOD22296   1.385   2.027   0.997  0.5487 -0.1580 -0.5245
  237SOD    SOD22297   2.785   4.383  14.505 -0.6949  0.0834 -0.0535
  238SOD    SOD22298   5.345   1.129   0.602 -0.0283 -0.7928 -0.2400
  239SOD    SOD22299   4.292   3.489  11.087  0.3600  0.0783 -0.2192
  240SOD    SOD22300   2.772   4.592   6.315  0.0944 -0.0253  0.5044
  241SOD    SOD22301   6.173   3.523   2.124  0.1019  0.4842  0.1114
  242SOD    SOD22302   5.057   3.618  15.603 -0.4674 -0.6355  0.4454
  243SOD    SOD22303   6.633   2.770  17.388  0.0630  0.5383 -0.0517
  244SOD    SOD22304   5.113   2.531  15.152 -0.0370 -0.5257 -0.4158
  245SOD    SOD22305   2.232   5.526   6.166  0.1806 -0.0090 -0.4089
  246SOD    SOD22306   6.578   3.767   3.913  0.3066  0.0344  0.4649
  247SOD    SOD22307   1.217   2.932  17.278  0.2817 -0.4461 -0.2654
  248SOD    SOD22308   3.161   3.220   5.745 -0.3439 -0.2023 -0.0900
  249SOD    SOD22309   3.186   2.533   1.881  0.5125 -0.5900 -0.2458
  250SOD    SOD22310   3.274   2.707  16.614 -0.4113 -0.0371  0.0882
  251SOD    SOD22311   0.917   4.247  14.428 -0.4058  0.1182  0.1324
  252SOD    SOD22312   1.019   2.177  12.633  0.3919  0.4193 -0.2803
  253SOD    SOD22313   0.176   6.169   2.162 -0.0319 -0.0040  0.0795
  254SOD    SOD22314   1.018   3.778  10.709  0.5614 -0.2870 -0.2017
  255SOD    SOD22315   4.399   2.211  12.488  0.6676  0.3529 -0.0471
  256SOD    SOD22316   0.673   5.494  15.845 -0.0445  0.4552  0.3104
  257SOD    SOD22317   4.185   0.716  12.358 -0.0065  0.4898  0.4178
  258SOD    SOD22318   5.650   6.162   0.559  0.2298  0.3426  0.2128
  259SOD    SOD22319   1.036   5.895   1.374  0.0987 -0.0783  0.1405
  260SOD    SOD22320   5.405   1.459   1.733  0.4651 -0.1462 -0.3949
  261SOD    SOD22321   2.708   5.810   2.012  0.5624  0.2717  0.4516
  262SOD    SOD22322   1.865   4.833  11.667 -0.2037 -0.5645 -0.1514
  263SOD    SOD22323   6.107   0.513  16.540  0.6215  0.4336 -0.1276
  264SOD    SOD22324   1.815   6.046  12.552 -0.1922 -0.5304 -0.1784
  265SOD    SOD22325   4.233   0.934  15.118 -0.4257  0.1657 -0.0521
  266SOD    SOD22326   6.253   1.291   5.136  0.0702 -0.2723 -0.3879
  267SOD    SOD22327   2.038   5.079  10.936 -0.3115  0.1360 -0.2269
  268SOD    SOD22328   6.504   2.167  11.502 -0.2485  0.9464 -0.1085
  269SOD    SOD22329   1.622   1.830   2.248 -0.1781 -0.1801 -0.0320
  270CLA    CLA22330   3.688   5.824   0.946 -0.0165 -0.1378 -0.0582
  271CLA    CLA22331   2.122   0.638   0.791  0.2125  0.5915 -0.4557
  272CLA    CLA22332   5.217   5.398  16.866  0.0968  0.1063 -0.2151
  273CLA    CLA22333   5.388   0.362  17.221  0.1220  0.4280 -0.3794
  274CLA    CLA22334   4.014   2.109   3.933  0.0062  0.0121 -0.5903
  275CLA    CLA22335   5.975   3.826   1.719  0.5938  0.0987  0.0443
  276CLA    CLA22336   5.346   1.468  12.812  0.0817  0.1330 -0.1079
  277CLA    CLA22337   2.615   5.449   0.826  0.1641 -0.2776  0.1223
  278CLA    CLA22338   1.626   1.840  14.586 -0.4820 -0.0449 -0.0006
  279CLA    CLA22339   1.972   3.463   0.764  0.2359 -0.0596  0.1643
  280CLA    CLA22340   4.642   0.860  15.578  0.2087 -0.0996  0.3190
  281CLA    CLA22341   1.006   2.835   3.010 -0.0287 -0.0237 -0.2247
  282CLA    CLA22342   4.573   5.617  15.745 -0.4207 -0.3258  0.1911
  283CLA    CLA22343   0.313   3.309  13.151 -0.2791 -0.2386 -0.1263
  284CLA    CLA22344   4.788   0.753  13.180  0.2209 -0.2751 -0.1606
  285CLA    CLA22345   5.912   2.146  15.912  0.1008  0.0657  0.1226
  286CLA    CLA22346   1.629   4.523  13.075 -0.2803  0.3453 -0.1120
  287CLA    CLA22347   1.369   4.840   3.245  0.2199  0.1999 -0.0475
  288CLA    CLA22348   1.082   2.112   4.521 -0.3174  0.2571  0.0415
  289CLA    CLA22349   1.376   6.378   0.380  0.3024  0.2754 -0.4789
  290CLA    CLA22350   5.221   2.836   2.768  0.0634  0.1899 -0.4871
  291CLA    CLA22351   1.957   0.999   0.520 -0.0001  0.0004 -0.4151
  292CLA    CLA22352   4.975   3.820  13.886  0.4396  0.3523 -0.0105
  293CLA    CLA22353   1.716   5.564  11.320  0.0806 -0.1255 -0.2223
  294CLA    CLA22354   0.546   3.891   1.669  0.1253  0.1411  0.4508
  295CLA    CLA22355   3.830   6.547   1.315  0.0302 -0.0965  0.0716
  296CLA    CLA22356   2.774   3.139   4.633 -0.0501  0.0779 -0.1991
  297CLA    CLA22357   1.184   4.734  12.608  0.0635  0.2614  0.0686
  298CLA    CLA22358   5.705   4.400  11.869 -0.1114  0.0122  0.3598
  299CLA    CLA22359   6.478   6.622   0.724 -0.3930 -0.3692 -0.2963
  300CLA    CLA22360   2.456   0.150   3.240 -0.1180  0.0451  0.2411
  301CLA    CLA22361   3.864   5.583   2.773 -0.0522  0.0703 -0.3263
  302CLA    CLA22362   0.910   6.475  13.699  0.1316 -0.1414  0.7458
  303CLA    CLA22363   4.887   5.457   4.209  0.0772  0.0641 -0.2091
  304CLA    CLA22364   1.540   4.070  15.852 -0.0740 -0.0843  0.1837
  305CLA    CLA22365   0.731   5.060  14.408  0.3083  0.0332  0.0702
  306CLA    CLA22366   0.027   4.860   4.638 -0.2386 -0.1734  0.2695
  307CLA    CLA22367   5.990   2.120  15.085  0.0661  0.2152  0.0527
  308CLA    CLA22368   6.527   1.504  16.301  0.4658 -0.0253  0.1159
  309CLA    CLA22369   2.912   2.015  13.622 -0.3942  0.0343 -0.0173
  310CLA    CLA22370   0.399   0.257  13.697 -0.4416 -0.4025 -0.1428
  311CLA    CLA22371   6.142   4.062  12.422 -0.0735 -0.3564  0.4097
  312CLA    CLA22372   5.243   2.257   3.208  0.0760  0.3649 -0.1906
  313CLA    CLA22373   5.375   2.683  13.649  0.6422  0.3312  0.3408
  314CLA    CLA22374   4.766   4.852   2.458 -0.0134 -0.3075  0.5071
  315CLA    CLA22375   4.246   1.464  15.626 -0.0306 -0.3574 -0.1892
  316CLA    CLA22376   6.027   0.724  15.913 -0.3195 -0.2789 -0.1265
  317CLA    CLA22377   5.816   1.618   2.653 -0.1142 -0.0366  0.1335
  318CLA    CLA22378   6.494   2.827   1.414  0.3284 -0.1452  0.3705
  319CLA    CLA22379   3.515   6.584   1.706 -0.2490  0.0213 -0.0445
  320CLA    CLA22380   4.645   3.136  15.197  0.2488 -0.3687  0.0253
  321CLA    CLA22381   1.562   2.200  15.664 -0.5024 -0.0904  0.0787
  322CLA    CLA22382   5.383   4.794  16.976 -0.3815  0.0974  0.3061
  323TIP3   OH222383   3.581   5.588   5.071  0.1464 -0.1070 -0.7988
  323TIP3    H122384   3.520   5.651   5.033  0.1542  2.2425  2.5830
  323TIP3    H222385   3.667   5.616   5.040 -0.0051  0.4237 -0.7513
  324TIP3   OH222386   2.724   1.441   0.330 -0.0582  0.3358 -0.0520
  324TIP3    H122387   2.737   1.402   0.416  2.0063  0.5792 -0.1799
  324TIP3    H222388   2.800   1.411   0.279 -0.0594  1.9469 -1.0861
  325TIP3   OH222389   6.225   5.429   0.179 -0.2391  0.1637  0.2490
  325TIP3    H122390   6.257   5.385   0.258  1.0033  1.2791  0.3935
  325TIP3    H222391   6.276   5.510   0.174  0.0970 -0.1369 -1.9976
  326TIP3   OH222392   2.905   1.804  14.012 -0.4767  0.0482 -0.2429
  326TIP3    H122393   2.980   1.750  13.989 -1.2201 -0.5776 -1.2601
  326TIP3    H222394   2.844   1.744  14.055 -0.1091  0.7073  1.2984
  327TIP3   OH222395   1.587   5.385   4.319  0.0290 -0.7105 -0.1782
  327TIP3    H122396   1.537   5.305   4.335  1.0648 -1.7277 -1.7837
  327TIP3    H222397   1.672   5.369   4.359 -0.1496  0.1100  0.5674
  328TIP3   OH222398   1.057   2.838  17.134 -0.2301  0.1085 -0.3147
  328TIP3    H122399   1.057   2.822  17.040  2.3524  0.7793 -0.5202
  328TIP3    H222400   1.015   2.761  17.172 -1.2048 -0.2285 -1.9998
  329TIP3   OH222401   0.840   2.364  16.061  0.2738  0.3477 -0.1735
  329TIP3    H122402   0.783   2.303  16.108  2.0497  1.4462  3.9333
  329TIP3    H222403   0.921   2.315  16.046  0.4461  0.6151 -0.1306
  330TIP3   OH222404   0.062   4.537   5.847 -0.5501 -0.1289  0.0919
  330TIP3    H122405   0.101   4.588   5.776 -1.5664  1.7701  0.7989
  330TIP3    H222406   0.135   4.513   5.903  0.2547 -1.5611 -1.4722
  331TIP3   OH222407   1.522   3.455  17.205 -0.1040  0.2427 -0.2269
  331TIP3    H122408   1.570   3.408  17.138 -0.5983 -0.4636 -0.0915
  331TIP3    H222409   1.491   3.534  17.161 -2.0116 -1.0870 -1.3957
  332TIP3   OH222410   4.095   3.381   5.159 -0.5070  0.0489  0.2896
  332TIP3    H122411   4.055   3.304   5.118 -1.5448 -0.0877  1.4718
  332TIP3    H222412   4.020   3.431   5.192  0.1034  1.9311 -1.0206
  333TIP3   OH222413   0.428   3.662  13.725 -0.5749 -0.4148 -0.0454
  333TIP3    H122414   0.354   3.721  13.737 -1.4674 -1.7670  1.5885
  333TIP3    H222415   0.389   3.580  13.693  0.3329 -0.8508 -0.0707
  334TIP3   OH222416   4.907   1.610   4.044 -0.0862 -0.2933  0.8370
  334TIP3    H122417   4.989   1.611   4.093  0.8759  0.2393 -0.7328
  334TIP3    H222418   4.925   1.661   3.966 -1.4886 -1.3620 -0.2249
  335TIP3   OH222419   5.077   4.623   5.185 -0.8789  0.1504  0.2683
  335TIP3    H122420   5.055   4.715   5.174 -1.2118 -0.0368 -0.7906
  335TIP3    H222421   5.173   4.621   5.185 -0.8522  0.6032  1.4516
  336TIP3   OH222422   4.863   0.395  14.731  0.2295  0.7098  0.7896
  336TIP3    H122423   4.894   0.472  14.779 -0.5334  1.6835 -0.2082
  336TIP3    H222424   4.905   0.401  14.646 -1.4749  1.2406 -0.0563
  337TIP3   OH222425   5.658   6.699   2.490  1.0668  0.3648  0.4380
  337TIP3    H122426   5.643   6.701   2.584 -1.3268  0.5065  0.1076
  337TIP3    H222427   5.747   6.732   2.479  0.9466  1.5261  2.5464
  338TIP3   OH222428   6.379   4.239   4.673  0.6721  0.4678  0.4147
  338TIP3    H122429   6.327   4.187   4.735  1.5428  1.6564  2.2442
  338TIP3    H222430   6.398   4.320   4.721  1.5126  1.3901 -1.3915
  339TIP3   OH222431   3.267   2.554   5.673  0.1392 -0.5918  0.4488
  339TIP3    H122432   3.186   2.503   5.666 -0.0429 -0.3729  0.8842
  339TIP3    H222433   3.241   2.632   5.722  0.2348  0.2922 -0.8714
  340TIP3   OH222434   3.795   6.408   6.057  0.1710  0.2310  0.5795
  340TIP3    H122435   3.844   6.376   5.982 -1.8366  0.5395 -0.9562
  340TIP3    H222436   3.858   6.407   6.129  2.3533  0.4746 -1.1962
  341TIP3   OH222437   2.644   2.470   4.616  0.1762  0.7712  0.3961
  341TIP3    H122438   2.613   2.508   4.534  0.9979  1.1666  0.2510
  341TIP3    H222439   2.625   2.536   4.682 -1.6779 -0.0835  0.7727
  342TIP3   OH222440   5.804   1.972   4.405  0.2792  0.0716  0.6593
  342TIP3    H122441   5.807   1.986   4.310 -0.4940 -0.1044  0.6031
  342TIP3    H222442   5.754   2.047   4.438 -0.2980 -0.3807  0.8178
  343TIP3   OH222443   1.233   1.685   0.421  0.4180 -0.0589  0.0104
  343TIP3    H122444   1.267   1.765   0.460 -3.2095  1.6823  0.0184
  343TIP3    H222445   1.146   1.674   0.460  0.3013 -3.4193 -0.8462
  344TIP3   OH222446   5.549   3.491   0.333 -0.5224  0.5376 -0.7244
  344TIP3    H122447   5.506   3.479   0.418 -0.6297  0.0890 -0.8392
  344TIP3    H222448   5.510   3.571   0.297 -2.8077 -0.9195 -1.7290
  345TIP3   OH222449   1.033   2.753  13.740 -0.0619  0.2210 -0.1445
  345TIP3    H122450   1.053   2.824  13.680 -1.0061  2.4335  1.9651
  345TIP3    H222451   0.939   2.762  13.757  0.4394  0.8214  2.8566
  346TIP3   OH222452   6.708   2.732  14.607 -0.3125 -0.2048  0.1102
  346TIP3    H122453   6.706   2.639  14.584  1.0289  0.0571 -1.2850
  346TIP3    H222454   6.800   2.756  14.597 -0.2095  0.7918  2.6319
  347TIP3   OH222455   1.430   3.154   4.307  0.0839 -0.6494  0.2383
  347TIP3    H122456   1.482   3.171   4.228 -0.4765  0.4139  0.0745
  347TIP3    H222457   1.401   3.063   4.297  2.3424 -1.4742  0.6118
  348TIP3   OH222458   2.566   1.497  12.407  0.4908  0.4921  0.6482
  348TIP3    H122459   2.535   1.423  12.355  3.1746 -0.1371 -0.1881
  348TIP3    H222460   2.547   1.474  12.497 -1.4738  0.2168  0.2041
  349TIP3   OH222461   3.856   1.724  11.845 -0.6426 -0.1705  0.7169
  349TIP3    H122462   3.761   1.721  11.832 -0.6594 -0.3528  0.8706
  349TIP3    H222463   3.887   1.639  11.813 -0.7378 -0.8109  2.2325
  350TIP3   OH222464   4.521   5.978  14.132  0.1020 -0.2145 -0.0202
  350TIP3    H122465   4.490   5.923  14.204 -0.4759 -1.4724 -1.1733
  350TIP3    H222466   4.615   5.960  14.127 -0.0184 -0.8593 -0.1579
  351TIP3   OH222467   4.567   3.985   0.076 -0.2280  0.2863  0.1351
  351TIP3    H122468   4.507   4.010   0.006  0.0365  2.0685  0.5041
  351TIP3    H222469   4.654   4.010   0.044  0.0426 -0.0805  0.5675
  352TIP3   OH222470   5.696   6.178   5.693 -0.1510 -0.2391 -0.4262
  352TIP3    H122471   5.624   6.217   5.742 -0.9647 -2.5397  0.3785
  352TIP3    H222472   5.654   6.112   5.638  1.2725 -1.4741 -0.1123
  353TIP3   OH222473   5.709   1.418   0.190 -0.0839  0.0011 -0.2045
  353TIP3    H122474   5.689   1.400   0.282 -0.1209  0.8249 -0.0425
  353TIP3    H222475   5.629   1.455   0.155  0.4652  1.3287 -0.1067
  354TIP3   OH222476   3.390   3.825  12.020 -0.2227 -0.2830 -0.3032
  354TIP3    H122477   3.375   3.747  12.073  1.4497 -0.9804 -0.7760
  354TIP3    H222478   3.457   3.874  12.068 -1.9739  1.4332  0.5157
  355TIP3   OH222479   1.851   6.363  12.868 -0.2703 -0.2008  0.1582
  355TIP3    H122480   1.774   6.360  12.810 -0.4504 -1.1444  0.4320
  355TIP3    H222481   1.830   6.302  12.938 -0.1883  1.1617  1.4225
  356TIP3   OH222482   3.254   1.846   5.546  0.1050  0.0348 -0.4437
  356TIP3    H122483   3.159   1.843   5.556  0.0270  1.4492 -0.6139
  356TIP3    H222484   3.287   1.837   5.636 -0.2054  0.1279 -0.3175
  357TIP3   OH222485   0.623   0.465  13.616 -0.4836  0.3755 -0.4753
  357TIP3    H122486   0.704   0.416  13.607  0.3921  1.4818  0.9288
  357TIP3    H222487   0.557   0.398  13.638  0.0407 -0.5085 -1.4854
  358TIP3   OH222488   2.345   1.869  10.565  0.1220  0.2318  0.1142
  358TIP3    H122489   2.265   1.882  10.514 -0.0633  1.0614  0.5865
  358TIP3    H222490   2.322   1.800  10.627 -0.9417  1.7840  1.5752
  359TIP3   OH222491   5.938   3.173  12.995 -0.3019  0.4706 -0.0625
  359TIP3    H122492   5.999   3.166  12.921  1.1440  0.6792  1.0596
  359TIP3    H222493   5.940   3.086  13.035 -1.6150  0.1501 -0.6329
  360TIP3   OH222494   3.098   2.525   0.711  0.3788 -0.6441 -0.5574
  360TIP3    H122495   3.048   2.554   0.634 -1.2637 -1.4276  0.1579
  360TIP3    H222496   3.082   2.431   0.715  0.5978 -0.6404  0.6343
  361TIP3   OH222497   1.530   4.902   2.752  0.0486  0.1593 -0.2205
  361TIP3    H122498   1.456   4.962   2.750  1.6682  2.2635 -1.7196
  361TIP3    H222499   1.499   4.824   2.706 -1.0617  1.2071 -1.3255
  362TIP3   OH222500   4.412   0.742   6.412  0.1354  0.2596  0.1864
  362TIP3    H122501   4.473   0.810   6.383  0.3663 -0.4209 -1.0081
  362TIP3    H222502   4.380   0.703   6.330 -1.3962  0.1546  0.8034
  363TIP3   OH222503   2.276   2.046  15.615  0.4241  0.5808 -0.4562
  363TIP3    H122504   2.289   1.961  15.657  0.6599  0.5371 -0.6159
  363TIP3    H222505   2.187   2.041  15.578  0.0624  0.7717  0.3816
  364TIP3   OH222506   5.967   4.276   0.021  0.5858  0.3423  0.0646
  364TIP3    H122507   5.962   4.325  -0.061  0.8065 -2.0585 -1.5096
  364TIP3    H222508   6.057   4.245   0.024  0.1471 -1.0038  0.2734
  365TIP3   OH222509   2.922   1.045   5.739  0.7777  0.2605 -0.4146
  365TIP3    H122510   2.989   0.999   5.688  0.0290 -1.5738  0.1753
  365TIP3    H222511   2.882   1.106   5.677  1.1482 -0.5887 -1.5107
  366TIP3   OH222512   4.711   0.409  16.552  0.3849  0.0639  0.2244
  366TIP3    H122513   4.699   0.502  16.573  0.5872  0.1723 -0.1366
  366TIP3    H222514   4.783   0.408  16.489 -1.7574 -0.0166 -2.3968
  367TIP3   OH222515   5.942   1.921  13.893  0.2811  0.3145  0.2252
  367TIP3    H122516   5.952   2.017  13.894  0.2352  0.5332 -3.6428
  367TIP3    H222517   5.851   1.906  13.917 -0.2491  1.4723 -0.9038
  368TIP3   OH222518   1.382   3.502  16.049 -0.2994  0.1126  0.2957
  368TIP3    H122519   1.354   3.579  16.000 -1.4638  0.3716  1.3290
  368TIP3    H222520   1.312   3.487  16.113 -0.3598 -2.0838 -0.1777
  369TIP3   OH222521   1.861   6.665  14.443  0.0243  0.4459  0.0477
  369TIP3    H122522   1.783   6.719  14.429 -0.3228 -0.3036 -0.9817
  369TIP3    H222523   1.881   6.675  14.536 -1.8247 -0.0620  0.5314
  370TIP3   OH222524   1.925   4.165  16.983  0.0800 -0.0817 -0.3563
  370TIP3    H122525   1.928   4.164  16.887  0.5580 -1.2264 -0.3427
  370TIP3    H222526   1.983   4.236  17.008 -1.0594  1.0891 -0.9357
  371TIP3   OH222527   3.962   3.921  13.031 -0.1757  0.5853  0.5536
  371TIP3    H122528   3.981   3.941  13.123 -0.4660  0.6734  0.5975
  371TIP3    H222529   3.909   3.994  13.001  0.8615  1.1161 -0.0181
  372TIP3   OH222530   4.852   4.616   4.091 -0.3696 -0.1998 -0.1135
  372TIP3    H122531   4.797   4.558   4.038 -0.3903 -0.2728 -0.0122
  372TIP3    H222532   4.876   4.563   4.167  1.7279 -0.9747 -1.2366
  373TIP3   OH222533   0.828   6.192   5.275 -0.8811  0.7615  0.2356
  373TIP3    H122534   0.883   6.269   5.266  0.9133 -0.5936 -1.2015
  373TIP3    H222535   0.739   6.226   5.278 -0.2487  2.8126 -1.6968
  374TIP3   OH222536   5.894   0.540  12.199  0.4169  0.0102 -0.1490
  374TIP3    H122537   5.909   0.551  12.293  2.8249  1.1484 -0.5869
  374TIP3    H222538   5.975   0.502  12.166  0.2945  1.2017 -1.9919
  375TIP3   OH222539   1.091   3.453  12.633  0.2016 -0.4874  0.4719
  375TIP3    H122540   1.114   3.484  12.721 -0.2761 -1.6300  1.0191
  375TIP3    H222541   1.159   3.491  12.576 -0.0424  1.0649  1.1666
  376TIP3   OH222542   0.399   6.055   5.622  0.0690  0.2184 -0.8454
  376TIP3    H122543   0.361   6.141   5.641  0.2587  0.0217  0.5234
  376TIP3    H222544   0.490   6.074   5.599  0.0967  0.3841 -0.5993
  377TIP3   OH222545   5.592   0.038   4.221  0.5012  0.2852 -0.0980
  377TIP3    H122546   5.533   0.038   4.145 -0.6873  3.1512  0.6649
  377TIP3    H222547   5.668   0.088   4.192  0.2128  1.0577  0.4494
  378TIP3   OH222548   5.089   3.251  12.647 -0.2340  0.5151 -0.0608
  378TIP3    H122549   5.046   3.188  12.589 -1.0493  1.5671 -0.6229
  378TIP3    H222550   5.027   3.262  12.719 -0.0479  0.6046  0.0834
  379TIP3   OH222551   2.608   2.902   2.414  0.2071 -0.1599  0.2142
  379TIP3    H122552   2.522   2.864   2.399 -0.9009  1.9749  0.7948
  379TIP3    H222553   2.663   2.864   2.345 -1.2742 -1.2481 -0.4288
  380TIP3   OH222554   2.920   4.069   3.889 -0.0291 -0.1760  0.1936
  380TIP3    H122555   2.945   3.980   3.864 -1.3345 -0.6015  0.3246
  380TIP3    H222556   2.921   4.119   3.807  1.3838 -0.1284  0.2271
  381TIP3   OH222557   3.223   0.163  11.503 -0.3240  0.3170  0.1723
  381TIP3    H122558   3.273   0.083  11.492 -0.3290  0.3281  0.0658
  381TIP3    H222559   3.162   0.144  11.574 -0.7513  0.0121 -0.2677
  382TIP3   OH222560   2.774   5.554   4.812  0.2510 -0.3737  0.4879
  382TIP3    H122561   2.779   5.621   4.880  2.8931 -0.1440  0.2018
  382TIP3    H222562   2.786   5.472   4.859  1.4317 -0.2616  0.4246
  383TIP3   OH222563   1.356   6.717  16.289 -0.1583  0.4008  0.2144
  383TIP3    H122564   1.316   6.633  16.266  3.2417 -0.9859 -1.4637
  383TIP3    H222565   1.363   6.715  16.384 -2.4038  0.0091  0.4221
  384TIP3   OH222566   4.600   5.494  17.193  0.2855 -0.3943  0.3396
  384TIP3    H122567   4.512   5.469  17.163 -0.9828  3.3140  0.4602
  384TIP3    H222568   4.640   5.535  17.117  1.2464 -0.5070  0.7751
  385TIP3   OH222569   5.754   2.322  15.498 -0.2696 -0.0503  0.0313
  385TIP3    H122570   5.812   2.392  15.468 -0.9736  0.4985 -0.0988
  385TIP3    H222571   5.748   2.262  15.425 -1.5612  1.0106 -0.7876
  386TIP3   OH222572   3.665   4.482  11.211  0.1919  0.2955 -0.4891
  386TIP3    H122573   3.720   4.487  11.290 -1.5062  0.7458  0.7114
  386TIP3    H222574   3.671   4.391  11.184  1.4737  0.3223 -0.3523
  387TIP3   OH222575   6.193   0.074  14.561  0.2568 -0.0417  0.0448
  387TIP3    H122576   6.124   0.007  14.557  0.8820 -0.8594  2.0243
  387TIP3    H222577   6.185   0.112  14.648  1.3580  0.9198 -0.2483
  388TIP3   OH222578   3.247   5.910   4.279  0.0078  0.5302 -0.1781
  388TIP3    H122579   3.153   5.927   4.278 -0.3375 -1.2423 -0.5046
  388TIP3    H222580   3.277   5.936   4.192 -0.0900  1.4940  0.0677
  389TIP3   OH222581   0.753   2.131   5.973 -0.1559 -0.2052  0.1252
  389TIP3    H122582   0.660   2.151   5.986 -0.2858 -1.4790  1.3663
  389TIP3    H222583   0.797   2.169   6.049  0.6919  2.2010 -1.4321
  390TIP3   OH222584   5.443   5.491  14.558  0.2392  0.4156  1.1422
  390TIP3    H122585   5.474   5.543  14.484 -0.0234 -2.3832 -1.1269
  390TIP3    H222586   5.363   5.534  14.586  1.4012  2.7009  1.2199
  391TIP3   OH222587   1.517   4.888  15.797  0.2088 -0.3595 -0.0149
  391TIP3    H122588   1.448   4.840  15.750  0.0615  0.0290 -0.1975
  391TIP3    H222589   1.520   4.846  15.883 -0.2437 -0.3912 -0.0114
  392TIP3   OH222590   1.770   5.441   6.154  0.1516 -0.2691  0.0206
  392TIP3    H122591   1.770   5.352   6.118  0.3805  0.7521 -2.7159
  392TIP3    H222592   1.728   5.432   6.240  0.5832 -3.0647  0.0431
  393TIP3   OH222593   0.493   5.225  16.932 -0.7414 -0.2736  0.0929
  393TIP3    H122594   0.537   5.270  17.004 -1.8857  1.3877 -0.1810
  393TIP3    H222595   0.558   5.223  16.862 -0.2986 -0.0392  0.4909
  394TIP3   OH222596   1.840   0.758  15.569  0.0559  0.3255 -0.0511
  394TIP3    H122597   1.914   0.703  15.596  1.2962  1.4551 -0.9694
  394TIP3    H222598   1.793   0.706  15.504 -0.0510 -0.4621  0.6420
  395TIP3   OH222599   0.528   3.723   2.473  0.3194  0.3912 -0.1069
  395TIP3    H122600   0.452   3.728   2.531  0.4599  2.1684 -0.0268
  395TIP3    H222601   0.534   3.630   2.450 -2.4369  0.2856 -0.8386
  396TIP3   OH222602   5.870   6.078  15.070  0.3618  0.0812  0.8865
  396TIP3    H122603   5.864   6.171  15.093  0.1888  0.0071  1.1553
  396TIP3    H222604   5.945   6.072  15.011 -0.2545  0.5533  0.0304
  397TIP3   OH222605   3.396   2.177   3.202  0.1096 -0.5397  0.2090
  397TIP3    H122606   3.465   2.112   3.189  0.8491  0.0280  1.1359
  397TIP3    H222607   3.438   2.246   3.254 -0.6134  0.7352 -0.8262
  398TIP3   OH222608   4.185   6.602   2.007 -0.6221 -0.5474  0.7049
  398TIP3    H122609   4.104   6.577   2.052 -0.2941 -0.0428  1.5883
  398TIP3    H222610   4.157   6.666   1.942 -1.4797 -3.0489 -1.5679
  399TIP3   OH222611   1.930   0.976   1.131  0.1603 -0.1591  0.3536
  399TIP3    H122612   1.860   1.041   1.135  0.9445  0.8051 -0.6924
  399TIP3    H222613   1.896   0.906   1.075  0.2112  0.5783 -0.6351
  400TIP3   OH222614   4.184   1.152   3.787  0.1501  0.5017 -0.0670
  400TIP3    H122615   4.262   1.155   3.732 -0.1962 -1.5722 -0.7470
  400TIP3    H222616   4.215   1.174   3.875  1.3073  0.6755 -0.5049
  401TIP3   OH222617   1.793   6.284  13.320  0.1108 -0.4233 -0.6317
  401TIP3    H122618   1.829   6.372  13.322  0.4724 -0.5774  1.0151
  401TIP3    H222619   1.707   6.292  13.362 -1.3325 -0.2997 -3.3630
  402TIP3   OH222620   3.180   2.463  16.554  0.7700 -0.1061 -0.2849
  402TIP3    H122621   3.086   2.453  16.543  0.7021 -0.0295  0.2219
  402TIP3    H222622   3.214   2.374  16.562  0.4952 -0.0794  1.5013
  403TIP3   OH222623   0.181   4.731  13.299  0.2090 -0.1015  0.9071
  403TIP3    H122624   0.274   4.732  13.324  0.7370 -2.3642 -0.6856
  403TIP3    H222625   0.141   4.669  13.360  0.1417 -0.5301  0.4321
  404TIP3   OH222626   4.293   0.034   2.391 -0.2784  0.1271  0.3934
  404TIP3    H122627   4.274  -0.059   2.385  1.8521 -0.3386  0.1554
  404TIP3    H222628   4.234   0.075   2.328 -1.9186 -0.9184  1.1763
  405TIP3   OH222629   1.298   3.110  12.292 -0.8110  0.0533  0.2195
  405TIP3    H122630   1.237   3.038  12.273  0.6537 -1.1332 -0.1663
  405TIP3    H222631   1.297   3.119  12.387 -1.8843  0.3382  0.1926
  406TIP3   OH222632   1.464   2.343  10.616 -0.1836  0.0150  0.3245
  406TIP3    H122633   1.379   2.385  10.600 -0.7460 -0.9305  0.7833
  406TIP3    H222634   1.452   2.253  10.588  0.3991 -0.3533  1.2371
  407TIP3   OH222635   1.532   5.491  12.955 -0.5120  0.5821 -0.5055
  407TIP3    H122636   1.483   5.411  12.936 -0.9037  0.6384  0.2221
  407TIP3    H222637   1.467   5.561  12.946 -1.0513  0.5232  2.0741
  408TIP3   OH222638   0.208   2.472   6.023  0.4189 -0.3860  0.3429
  408TIP3    H122639   0.121   2.512   6.017  0.8725  0.4428 -1.7166
  408TIP3    H222640   0.262   2.539   6.065  0.5600  0.0825 -0.5550
  409TIP3   OH222641   0.504   3.888   5.235 -0.3215  0.0874  0.0124
  409TIP3    H122642   0.523   3.804   5.277  0.8713 -0.4263 -1.4452
  409TIP3    H222643   0.455   3.937   5.301  2.6220 -0.0991  2.5771
  410TIP3   OH222644   0.552   6.771   6.044 -0.4407  0.2925 -0.0860
  410TIP3    H122645   0.483   6.712   6.012 -0.3578 -1.0456  2.0153
  410TIP3    H222646   0.530   6.786   6.136  1.7234  0.3302  0.4818
  411TIP3   OH222647   3.644   4.293   1.494  0.3063  0.3094  0.2638
  411TIP3    H122648   3.626   4.215   1.547  2.4881  0.0407  0.6917
  411TIP3    H222649   3.736   4.285   1.470  0.4021  2.4358 -0.2426
  412TIP3   OH222650   4.674   1.711  13.560 -0.0516 -0.2299 -0.1680
  412TIP3    H122651   4.691   1.617  13.568 -0.5206 -0.3849 -0.9405
  412TIP3    H222652   4.734   1.751  13.623 -0.9314 -1.1420  1.3130
  413TIP3   OH222653   2.393   0.553  12.760  0.0185  0.1184 -0.3034
  413TIP3    H122654   2.368   0.467  12.726  0.7799  0.7263 -2.6180
  413TIP3    H222655   2.322   0.578  12.819 -1.3353 -1.1354 -1.3525
  414TIP3   OH222656   0.962   4.490  13.095  0.0154  0.3248  0.2569
  414TIP3    H122657   0.928   4.412  13.052  1.8074  0.2945 -1.2638
  414TIP3    H222658   0.885   4.543  13.114 -1.1574 -1.3804  0.4783
  415TIP3   OH222659   2.773   2.604  12.513 -0.1248  0.1058 -0.2603
  415TIP3    H122660   2.742   2.691  12.487 -0.5061 -0.1774 -0.7553
  415TIP3    H222661   2.714   2.543  12.470 -0.7625 -0.3772  1.2538
  416TIP3   OH222662   2.643   1.105   1.178 -0.7953 -0.0481 -0.2382
  416TIP3    H122663   2.713   1.040   1.181 -0.7272  0.0644  1.4876
  416TIP3    H222664   2.570   1.061   1.134 -0.8235 -1.3764  1.0868
  417TIP3   OH222665   3.537   4.290  12.364 -0.0813  0.1429  0.3131
  417TIP3    H122666   3.545   4.384  12.353 -0.0106  0.1973  0.8156
  417TIP3    H222667   3.601   4.268  12.432 -0.6201 -0.1596  0.7217
  418TIP3   OH222668   1.761   4.012   3.041 -0.9270 -0.5787 -0.6577
  418TIP3    H122669   1.777   3.973   3.127 -0.4112 -0.1636 -0.5652
  418TIP3    H222670   1.706   3.947   2.996  2.1662 -2.8295 -1.5495
  419TIP3   OH222671   1.750   3.216  12.964 -0.3016 -0.0247  0.3710
  419TIP3    H122672   1.728   3.309  12.971 -0.5984 -0.0836  0.2255
  419TIP3    H222673   1.676   3.177  12.917  0.4125 -0.1206 -0.7096
  420TIP3   OH222674   5.153   5.403   5.009 -0.4364  0.1363 -0.9240
  420TIP3    H122675   5.217   5.460   4.965  1.1825 -0.2326  0.8293
  420TIP3    H222676   5.124   5.343   4.940  3.2544 -1.5138 -1.3366
  421TIP3   OH222677   2.937   6.215   3.178 -0.0390 -1.1702 -0.0426
  421TIP3    H122678   2.956   6.140   3.234 -0.9715 -2.3476 -1.2481
  421TIP3    H222679   2.842   6.226   3.184  0.1146  0.1429  0.3565
  422TIP3   OH222680   4.395   3.728   2.034  0.2833  0.2795 -0.1351
  422TIP3    H122681   4.374   3.817   2.060 -0.5436  0.1381 -0.2876
  422TIP3    H222682   4.470   3.704   2.088  1.0454  1.3456 -0.6747
  423TIP3   OH222683   4.194   3.304  16.671  0.0715  0.1808  0.4903
  423TIP3    H122684   4.217   3.395  16.650 -0.5431  0.6541  1.7675
  423TIP3    H222685   4.278   3.262  16.688  0.2595  1.0010  1.7239
  424TIP3   OH222686   0.063   2.463   4.447 -0.0489  0.3459 -0.0687
  424TIP3    H122687   0.034   2.547   4.413 -1.8061 -0.2963 -0.2788
  424TIP3    H222688   0.100   2.417   4.372 -1.7745 -0.1646 -0.6541
  425TIP3   OH222689   2.484   6.138   1.313  0.1968 -0.4469  0.2015
  425TIP3    H122690   2.554   6.170   1.369 -0.1788  0.1595  0.3336
  425TIP3    H222691   2.404   6.158   1.361 -0.0298 -3.3423  1.2292
  426TIP3   OH222692   4.698   0.803  14.264  0.4868 -0.2864  0.3555
  426TIP3    H122693   4.701   0.707  14.271 -0.9981 -0.2913  1.2526
  426TIP3    H222694   4.612   0.827  14.299  0.4403  1.3084 -0.7507
  427TIP3   OH222695   4.670   3.633   1.909 -0.5341 -0.4399  0.1641
  427TIP3    H122696   4.745   3.656   1.854 -1.3824  1.3775 -0.3401
  427TIP3    H222697   4.625   3.564   1.860 -1.2765  1.1393 -1.5239
  428TIP3   OH222698   2.393   4.650  12.593  0.1165  0.3085 -0.5081
  428TIP3    H122699   2.345   4.706  12.531 -0.7202 -0.9978 -1.0800
  428TIP3    H222700   2.392   4.563  12.554  1.1980 -0.1827  0.4710
  429TIP3   OH222701   1.716   1.911  11.867 -0.3980  0.1553 -0.0664
  429TIP3    H122702   1.741   1.840  11.926  0.4725  0.5028  0.0049
  429TIP3    H222703   1.742   1.881  11.780 -0.0781  0.3511 -0.0431
  430TIP3   OH222704   2.314   1.851  15.275  0.7296  0.0139 -0.4609
  430TIP3    H122705   2.268   1.864  15.193  0.8202 -1.8816 -0.8577
  430TIP3    H222706   2.404   1.878  15.257  0.2549  1.9061 -0.2301
  431TIP3   OH222707   0.761   3.534   1.312 -0.6544  0.2456 -0.0209
  431TIP3    H122708   0.686   3.558   1.366  1.1677  1.4105  2.1556
  431TIP3    H222709   0.803   3.461   1.358  1.4495  1.8465  0.7963
  432TIP3   OH222710   0.239   5.267  12.051 -0.2141  0.0072 -0.0574
  432TIP3    H122711   0.144   5.274  12.043 -0.2117  0.4319  0.2222
  432TIP3    H222712   0.256   5.174  12.061 -0.6427 -0.0314  0.3614
  433TIP3   OH222713   2.084   2.382  13.048  0.0694 -0.7051 -0.1515
  433TIP3    H122714   2.080   2.327  12.969  0.3283 -0.7028 -0.1649
  433TIP3    H222715   2.172   2.368  13.083  0.2723 -0.0098 -0.3608
  434TIP3   OH222716   4.801   6.088   4.232 -0.5000  0.1204  0.4315
  434TIP3    H122717   4.762   6.075   4.145  1.0526 -1.7029 -0.0607
  434TIP3    H222718   4.893   6.106   4.215 -0.7226  2.9183  1.6382
  435TIP3   OH222719   0.952   2.628   2.633 -0.0902 -0.2801  0.5624
  435TIP3    H122720   1.013   2.592   2.567 -0.4408  1.3359 -0.7184
  435TIP3    H222721   1.008   2.649   2.708  0.6225 -0.5537  0.1199
  436TIP3   OH222722   0.916   5.416  15.303 -0.0378  0.0417  0.0382
  436TIP3    H122723   0.856   5.343  15.290 -0.1076 -0.1281  1.2527
  436TIP3    H222724   0.861   5.487  15.335 -0.0726  0.8500 -1.6791
  437TIP3   OH222725   1.557   3.763  12.660 -0.0062 -0.2399  0.9669
  437TIP3    H122726   1.531   3.841  12.611 -1.8189 -0.2111  1.8903
  437TIP3    H222727   1.611   3.713  12.598  1.0310  1.6294  0.3093
  438TIP3   OH222728   6.341   0.500  16.567 -0.0629  0.1809  0.3207
  438TIP3    H122729   6.381   0.587  16.579  3.2384 -0.6662 -2.8019
  438TIP3    H222730   6.356   0.456  16.650  0.7520  1.7233  1.0521
  439TIP3   OH222731   3.289   2.545   5.376 -0.0278  0.6241 -0.2532
  439TIP3    H122732   3.257   2.547   5.466 -0.5192 -2.3033 -0.2570
  439TIP3    H222733   3.376   2.507   5.383  0.4965  1.6819 -0.9107
  440TIP3   OH222734   3.386   2.565   0.435  0.1369  0.1215 -0.5601
  440TIP3    H122735   3.444   2.488   0.442 -0.0818 -0.2519 -2.3248
  440TIP3    H222736   3.442   2.633   0.397  0.1400  0.6404  0.3472
  441TIP3   OH222737   3.090   3.483  13.579  1.0158  0.7874  0.2281
  441TIP3    H122738   3.004   3.476  13.621  1.0451 -1.0511  0.0364
  441TIP3    H222739   3.130   3.560  13.619 -1.4151  2.8373 -0.9868
  442TIP3   OH222740   1.417   5.479  14.266 -0.2870 -0.3044  0.7154
  442TIP3    H122741   1.388   5.567  14.245  2.3827  1.2275  2.9033
  442TIP3    H222742   1.361   5.452  14.339 -0.9372 -0.3461  0.2092
  443TIP3   OH222743   4.080   0.137  13.705 -0.8462 -0.6122  0.4973
  443TIP3    H122744   4.071   0.056  13.754 -0.6220 -0.6687  0.4429
  443TIP3    H222745   4.021   0.199  13.749  0.5775 -0.1734  1.8434
  444TIP3   OH222746   4.167   2.002  11.998  0.4200  0.2668  0.1654
  444TIP3    H122747   4.092   2.033  12.050  0.9953  0.6023  0.8060
  444TIP3    H222748   4.236   2.067  12.014  0.7571  0.1235 -0.6601
  445TIP3   OH222749   1.428   6.280  15.711  0.0513 -0.1736 -0.0734
  445TIP3    H122750   1.462   6.369  15.702  0.1116 -0.2865 -0.9712
  445TIP3    H222751   1.488   6.238  15.773 -0.9464  0.8917  1.7270
  446TIP3   OH222752   5.131   6.395  12.304 -0.1992  0.1508 -0.3730
  446TIP3    H122753   5.158   6.327  12.242  1.5341  1.0747 -0.7118
  446TIP3    H222754   5.152   6.358  12.390  2.9176  1.0421 -0.6413
  447TIP3   OH222755   4.720   2.866   3.396  0.3424  0.2382 -0.3856
  447TIP3    H122756   4.778   2.799   3.360  2.2567  1.4617  0.2576
  447TIP3    H222757   4.668   2.895   3.322  1.3187 -0.1630 -1.2561
  448TIP3   OH222758   2.546   3.856   6.054 -0.2020  0.1892 -0.1322
  448TIP3    H122759   2.629   3.842   6.007  0.3749 -1.1843  1.1990
  448TIP3    H222760   2.573   3.878   6.143 -1.2728 -0.7366  0.4372
  449TIP3   OH222761   6.571   3.904   5.150 -0.1908 -0.2895 -0.1581
  449TIP3    H122762   6.590   3.838   5.216 -3.9467 -0.9812  0.4672
  449TIP3    H222763   6.540   3.980   5.200  1.9010  1.2334 -0.9968
  450TIP3   OH222764   1.902   1.276  15.125  0.0730 -0.1485  0.4530
  450TIP3    H122765   1.856   1.341  15.072  0.4050 -1.8359 -2.1155
  450TIP3    H222766   1.847   1.197  15.118  0.6164 -0.6923  1.9257
  451TIP3   OH222767   2.250   3.895   4.703 -0.1469  0.1271  0.1239
  451TIP3    H122768   2.212   3.832   4.764 -0.9240  0.7705  0.3201
  451TIP3    H222769   2.328   3.928   4.747  0.1371 -0.5249  0.1163
  452TIP3   OH222770   3.557   0.806  13.136 -0.2334  0.7779 -0.9900
  452TIP3    H122771   3.582   0.794  13.227 -0.4737  1.2249 -0.8631
  452TIP3    H222772   3.639   0.796  13.087 -0.2055 -0.0682 -0.7851
  453TIP3   OH222773   0.118   3.874   5.094  0.0094 -0.1196  0.0181
  453TIP3    H122774   0.024   3.862   5.084 -0.3122  1.0223  1.4434
  453TIP3    H222775   0.134   3.965   5.068  0.4477  0.2004  1.3755
  454TIP3   OH222776   4.414   3.780  13.617 -0.2634  0.6527  0.6798
  454TIP3    H122777   4.431   3.710  13.553 -1.8906  1.1454 -0.3707
  454TIP3    H222778   4.446   3.860  13.574 -2.5433  1.1844 -0.1732
  455TIP3   OH222779   1.566   6.105  11.211  0.4180 -0.8471 -0.7660
  455TIP3    H122780   1.545   6.092  11.118 -1.4239 -0.1720 -0.4907
  455TIP3    H222781   1.488   6.147  11.247  2.2164  1.7405  0.4395
  456TIP3   OH222782   2.298   6.342   5.557 -0.1127 -0.3040 -0.5109
  456TIP3    H122783   2.214   6.312   5.524  0.3241 -1.7228 -0.4002
  456TIP3    H222784   2.334   6.267   5.604  1.0793  0.3675 -0.2965
  457TIP3   OH222785   0.852   0.714   3.229  0.1877 -0.5681 -0.0525
  457TIP3    H122786   0.914   0.732   3.300  0.0228  3.1074 -0.6348
  457TIP3    H222787   0.766   0.713   3.272  0.2913 -1.1593  0.1497
  458TIP3   OH222788   3.579   0.436  16.559 -0.4167  0.6487 -0.0690
  458TIP3    H122789   3.611   0.371  16.622  1.6593  1.3109 -0.3570
  458TIP3    H222790   3.501   0.396  16.521 -0.1461 -0.9583  0.9660
  459TIP3   OH222791   2.041   1.655   2.385 -0.5081  0.5916 -0.0732
  459TIP3    H122792   2.077   1.583   2.333  1.3720  0.9384  0.6513
  459TIP3    H222793   2.116   1.687   2.436 -1.7116  1.8965  0.9545
  460TIP3   OH222794   4.505   3.296   3.596  0.2148  0.1347 -0.3658
  460TIP3    H122795   4.562   3.364   3.632  2.1051 -0.6894 -1.6612
  460TIP3    H222796   4.507   3.225   3.660 -0.3607  0.5806  0.1587
  461TIP3   OH222797   6.164   0.150   3.461  0.1287  0.5830 -0.3741
  461TIP3    H122798   6.258   0.151   3.479  0.4549  0.6893 -1.9576
  461TIP3    H222799   6.152   0.076   3.401 -0.7157  0.8749 -0.5761
  462TIP3   OH222800   3.709   2.012  16.621  0.0646 -0.4317  0.9258
  462TIP3    H122801   3.676   2.046  16.538 -1.7840 -0.7386  1.4831
  462TIP3    H222802   3.727   1.920  16.604  0.5438 -0.2880  0.6421
  463TIP3   OH222803   3.651   1.926  10.888  0.6837  0.3853  0.3450
  463TIP3    H122804   3.681   2.014  10.909  0.8909 -0.3504  3.6229
  463TIP3    H222805   3.561   1.923  10.918  1.1357 -0.9013  1.7171
  464TIP3   OH222806   4.386   2.044   5.239 -0.1833 -0.2976 -0.1643
  464TIP3    H122807   4.473   2.019   5.207  0.0400  0.1744  0.0593
  464TIP3    H222808   4.325   2.003   5.177  0.1485 -1.6813  0.3915
  465TIP3   OH222809   0.737   5.945   5.786  0.2408  0.5550  0.1248
  465TIP3    H122810   0.648   5.935   5.820 -0.4611  0.6866 -1.5400
  465TIP3    H222811   0.791   5.962   5.863 -1.0373 -0.3504  1.2660
  466TIP3   OH222812   1.806   5.860   2.317  0.5574  0.0780 -0.3501
  466TIP3    H122813   1.813   5.890   2.407 -0.0498  1.0731 -0.6184
  466TIP3    H222814   1.819   5.940   2.264 -1.8654  0.0840 -1.0728
  467TIP3   OH222815   0.745   4.302  17.192  0.3402  0.1813  0.0283
  467TIP3    H122816   0.701   4.340  17.117 -0.0469  2.7105  1.4350
  467TIP3    H222817   0.754   4.209  17.170  1.0969  0.9396 -3.5125
  468TIP3   OH222818   5.129   5.449  11.636 -0.5773  0.0749 -0.1777
  468TIP3    H122819   5.056   5.481  11.690 -1.2643 -1.1656 -0.3205
  468TIP3    H222820   5.129   5.506  11.560 -3.3127 -1.5857 -1.5884
  469TIP3   OH222821   6.063   3.540  12.764  0.4241 -0.3248  0.4427
  469TIP3    H122822   6.059   3.530  12.669 -2.6387  0.3873  0.3810
  469TIP3    H222823   6.054   3.634  12.779  2.3846 -0.2578  1.4532
  470TIP3   OH222824   0.465   0.957  11.486 -0.1133  0.5734  0.7508
  470TIP3    H122825   0.406   0.948  11.411 -0.2676 -0.1969  0.9612
  470TIP3    H222826   0.528   1.024  11.458  0.3120 -0.2659 -0.3870
  471TIP3   OH222827   6.343   1.041  16.067 -0.6637 -0.7645 -0.5295
  471TIP3    H122828   6.375   1.108  16.007 -0.9662  0.2181  0.3814
  471TIP3    H222829   6.248   1.039  16.054 -0.9547  0.6255  1.0259
  472TIP3   OH222830   5.811   3.464  11.340 -0.3739 -0.3136  0.2926
  472TIP3    H122831   5.736   3.511  11.377 -0.6935  0.6917 -1.5222
  472TIP3    H222832   5.807   3.483  11.246  1.4016 -1.3380 -0.0299
  473TIP3   OH222833   1.000   0.293  12.302 -0.5840  0.1163  0.1935
  473TIP3    H122834   1.085   0.257  12.276  0.6202  0.0936  3.6642
  473TIP3    H222835   1.019   0.383  12.328 -1.6330  0.1201  0.9870
  474TIP3   OH222836   5.411   0.433   1.060 -0.1739  0.0504 -0.1112
  474TIP3    H122837   5.431   0.498   0.992  0.4115  0.3365  0.3260
  474TIP3    H222838   5.360   0.482   1.125 -0.5042 -0.1572 -0.2088
  475TIP3   OH222839   3.935   3.776   1.492  0.7670 -0.5824 -0.0891
  475TIP3    H122840   4.019   3.823   1.489  0.0999  0.6272 -1.9946
  475TIP3    H222841   3.934   3.725   1.410  0.2224 -1.6970  0.5858
  476TIP3   OH222842   4.822   4.668   2.829 -0.0368 -0.2094  0.1525
  476TIP3    H122843   4.857   4.754   2.806  0.5660 -0.0070  1.6686
  476TIP3    H222844   4.881   4.606   2.786  0.3381  0.1402  0.1555
  477TIP3   OH222845   4.823   4.654  17.353  0.2879  0.3439  0.4883
  477TIP3    H122846   4.821   4.748  17.339 -0.7447  0.4644  1.3523
  477TIP3    H222847   4.801   4.642  17.446  1.3249 -0.7064  0.6348
  478TIP3   OH222848   5.792   5.720   4.559  0.3640 -0.2358 -0.0726
  478TIP3    H122849   5.715   5.747   4.508  0.1785  0.0157  0.3393
  478TIP3    H222850   5.820   5.638   4.518 -0.2299 -0.4221 -0.1214
  479TIP3   OH222851   6.506   2.856  13.534  0.0263 -0.1004 -0.2429
  479TIP3    H122852   6.529   2.779  13.586 -0.3787  0.4438  0.7714
  479TIP3    H222853   6.589   2.885  13.497  0.4304 -0.1688  0.5759
  480TIP3   OH222854   2.472   2.347   0.323 -0.6141  0.3752  0.2435
  480TIP3    H122855   2.480   2.290   0.247  1.2843 -0.4169  0.9897
  480TIP3    H222856   2.416   2.419   0.293  0.2359  0.1882 -1.9702
  481TIP3   OH222857   1.028   6.640  12.427  0.4863  0.1013 -0.3943
  481TIP3    H122858   1.007   6.575  12.494  0.4816  0.7401  0.2267
  481TIP3    H222859   1.112   6.610  12.391 -0.0326 -0.8359 -0.8591
  482TIP3   OH222860   1.033   3.066  12.628  0.2156 -0.3640 -0.5090
  482TIP3    H122861   0.954   3.080  12.680  1.6887  0.4810  1.6110
  482TIP3    H222862   1.031   2.973  12.606 -1.1467 -0.4374 -0.1465
  483TIP3   OH222863   2.358   4.387  14.619  0.4883  0.5157  0.1379
  483TIP3    H122864   2.386   4.467  14.574  0.8015  0.1547 -0.3177
  483TIP3    H222865   2.432   4.327  14.610 -0.2988 -0.3502 -0.8189
  484TIP3   OH222866   2.432   4.083   6.521 -0.3423 -0.1016 -0.2743
  484TIP3    H122867   2.448   4.172   6.550 -2.1033  0.5454 -1.1714
  484TIP3    H222868   2.520   4.043   6.517  0.3403  1.0395  1.6941
  485TIP3   OH222869   4.779   0.374  12.338 -0.5211 -0.3069  0.1302
  485TIP3    H122870   4.753   0.400  12.250  1.2595  1.5219  0.0624
  485TIP3    H222871   4.874   0.363  12.332 -0.5068 -1.1683  1.5948
  486TIP3   OH222872   4.068   1.709  13.501 -0.2903 -0.4106  0.7123
  486TIP3    H122873   4.134   1.666  13.555  0.8500 -1.0447 -1.1251
  486TIP3    H222874   4.043   1.644  13.436 -1.3926  0.4349  0.2529
  487TIP3   OH222875   2.823   1.568   0.880  0.3201  0.0723 -0.2534
  487TIP3    H122876   2.727   1.567   0.880  0.2964 -0.0440 -1.8338
  487TIP3    H222877   2.846   1.622   0.955 -1.0482  2.4531 -1.4040
  488TIP3   OH222878   2.260   0.139  16.996  0.3702  1.0280  0.2554
  488TIP3    H122879   2.244   0.175  16.909  0.8744 -0.2827 -0.4071
  488TIP3    H222880   2.173   0.117  17.029  0.1279  2.0338  0.3301
  489TIP3   OH222881   6.717   0.679  12.023  0.0052 -0.0718  0.1116
  489TIP3    H122882   6.750   0.589  12.026  1.3218  0.4352  1.7082
  489TIP3    H222883   6.634   0.672  11.975  0.7416 -1.9132 -0.9934
  490TIP3   OH222884   4.428   6.486  13.001  0.2684 -0.4112 -0.7573
  490TIP3    H122885   4.476   6.500  12.920  1.8860  1.6256  0.4679
  490TIP3    H222886   4.484   6.428  13.052 -1.2604 -2.6298 -1.4275
  491TIP3   OH222887   6.174   4.145   3.006  0.4186 -0.0556  1.2878
  491TIP3    H122888   6.162   4.073   3.069 -1.5924  0.4331  1.5368
  491TIP3    H222889   6.209   4.217   3.058 -0.0182 -0.0553  1.5883
  492TIP3   OH222890   2.613   2.422  12.392  0.2756 -0.5640 -0.0530
  492TIP3    H122891   2.643   2.377  12.314 -0.6589 -0.6348 -0.3882
  492TIP3    H222892   2.602   2.353  12.458  1.4033 -0.4574  0.2615
  493TIP3   OH222893   1.969   4.772   5.169 -0.0685  0.2157  0.0725
  493TIP3    H122894   1.983   4.678   5.180 -0.7127  0.3554  2.9012
  493TIP3    H222895   2.057   4.810   5.168  0.2248 -0.4281 -1.9039
  494TIP3   OH222896   1.343   0.039   4.934  0.2784  0.2214 -0.3302
  494TIP3    H122897   1.261   0.063   4.977 -0.1723 -0.7266 -0.6375
  494TIP3    H222898   1.370   0.119   4.888 -0.1331  0.7243  0.2878
  495TIP3   OH222899   5.757   6.449   0.815  0.5474  0.5871 -0.3493
  495TIP3    H122900   5.715   6.448   0.901 -1.1761 -1.5492 -1.1260
  495TIP3    H222901   5.805   6.532   0.812  0.2022  0.9604  2.4291
  496TIP3   OH222902   0.140   2.508   1.897  0.3275  0.1346 -0.2905
  496TIP3    H122903   0.133   2.587   1.952 -0.6783  0.3365 -0.7057
  496TIP3    H222904   0.052   2.494   1.864  0.4861 -1.2185 -0.1666
  497TIP3   OH222905   3.000   1.972   2.757 -0.2018  0.1470 -0.4630
  497TIP3    H122906   3.085   2.016   2.755  1.4564 -2.7286  0.3102
  497TIP3    H222907   2.953   2.008   2.682  1.6998  1.7819 -0.9891
  498TIP3   OH222908   1.522   0.212  11.165 -0.3956 -0.1387  0.2796
  498TIP3    H122909   1.567   0.127  11.163 -0.4402 -0.1562 -0.2697
  498TIP3    H222910   1.432   0.191  11.188  0.0168 -0.0290  2.1500
  499TIP3   OH222911   4.969   0.511  13.094 -0.7773 -0.4802  0.0111
  499TIP3    H122912   4.901   0.568  13.128 -0.8326 -0.0586 -0.7931
  499TIP3    H222913   4.927   0.425  13.086 -0.5154 -0.8368  1.8412
  500TIP3   OH222914   6.465   6.707  13.194  0.1596  1.1821 -0.8349
  500TIP3    H122915   6.483   6.801  13.203 -1.5919  1.6985 -2.0775
  500TIP3    H222916   6.466   6.692  13.100  0.4217 -0.0553 -0.6447
  501TIP3   OH222917   3.969   3.023  12.443 -0.6414 -0.3304 -0.2196
  501TIP3    H122918   4.052   2.976  12.429 -1.4561 -1.4520 -1.6816
  501TIP3    H222919   3.904   2.953  12.455 -1.6459  0.4482 -0.9130
  502TIP3   OH222920   3.805   4.837  15.260 -0.1014 -0.3486 -0.0697
  502TIP3    H122921   3.746   4.900  15.218  0.8299 -0.0612 -0.9669
  502TIP3    H222922   3.889   4.849  15.217  0.3912 -1.4191  0.5415
  503TIP3   OH222923   1.280   2.173  13.678  0.0447 -0.3132 -0.6661
  503TIP3    H122924   1.357   2.118  13.668  1.0520  1.0799 -0.7509
  503TIP3    H222925   1.305   2.240  13.741 -0.6071  0.9622 -1.7023
  504TIP3   OH222926   3.808   0.077  15.740 -0.1164 -0.0542 -0.2827
  504TIP3    H122927   3.844   0.160  15.772  2.1244 -0.7690 -0.7880
  504TIP3    H222928   3.775   0.098  15.653  1.7258  0.0520 -0.9905
  505TIP3   OH222929   0.300   3.485   5.082 -0.7761  0.4387  0.0670
  505TIP3    H122930   0.378   3.540   5.094 -0.6053  0.4477 -1.0137
  505TIP3    H222931   0.264   3.512   4.998  0.6965 -2.7313 -1.7581
  506TIP3   OH222932   0.192   3.295  11.500 -0.2608 -0.0770  0.9175
  506TIP3    H122933   0.283   3.325  11.496 -0.9152  1.9901 -1.4369
  506TIP3    H222934   0.143   3.370  11.533 -1.1991 -0.9079  1.4612
  507TIP3   OH222935   6.023   3.605  14.216  0.2150 -0.2489 -0.1415
  507TIP3    H122936   6.051   3.629  14.304  1.6181  0.1088 -0.6486
  507TIP3    H222937   6.050   3.513  14.206  0.4249 -0.1695 -0.3253
  508TIP3   OH222938   1.160   0.834  16.145 -0.3801 -0.7973  0.2484
  508TIP3    H122939   1.246   0.799  16.168  0.7668  0.1067 -2.2954
  508TIP3    H222940   1.128   0.776  16.076 -1.3379 -0.4744  0.4020
  509TIP3   OH222941   6.476   2.214  14.530  0.2763 -0.2845  0.5018
  509TIP3    H122942   6.383   2.195  14.543 -0.5486  2.8354 -0.1371
  509TIP3    H222943   6.495   2.178  14.444 -0.4462 -0.5848  0.4582
  510TIP3   OH222944   6.309   3.821  15.558  0.3028  0.5662 -0.1401
  510TIP3    H122945   6.404   3.829  15.569  0.0800  2.5752  0.6876
  510TIP3    H222946   6.296   3.823  15.463  1.1005 -0.4285 -0.2994
  511TIP3   OH222947   2.819   1.296   5.873  0.3582 -0.2863 -0.3690
  511TIP3    H122948   2.875   1.266   5.944  1.4297  0.8166 -0.7267
  511TIP3    H222949   2.810   1.390   5.887 -1.6589 -0.4615 -0.1576
  512TIP3   OH222950   6.025   4.569  11.889  0.1290 -0.4435 -0.1189
  512TIP3    H122951   5.932   4.573  11.864 -0.4094  1.1017  1.8750
  512TIP3    H222952   6.035   4.483  11.929 -1.1359  0.2775  1.8988
  513TIP3   OH222953   3.028   2.002   4.670  0.2023  0.2813  0.3641
  513TIP3    H122954   2.938   1.980   4.646  0.8403 -2.0568 -0.1636
  513TIP3    H222955   3.050   1.941   4.740  1.8271 -0.2297 -0.5312
  514TIP3   OH222956   5.628   4.577   5.231  0.7959  0.1536 -0.3481
  514TIP3    H122957   5.698   4.641   5.243  0.9757  0.2143 -1.5546
  514TIP3    H222958   5.658   4.499   5.278  3.1012 -0.8218 -3.1195
  515TIP3   OH222959   5.822   6.703  15.783  0.3427  0.3089  0.2116
  515TIP3    H122960   5.808   6.729  15.874 -3.7984 -2.0825  0.4996
  515TIP3    H222961   5.751   6.744  15.735 -1.0767 -2.9742 -0.7762
  516TIP3   OH222962   3.637   5.791   2.394  0.1435 -0.0576 -0.1784
  516TIP3    H122963   3.570   5.727   2.370  0.9646 -0.8875 -0.2958
  516TIP3    H222964   3.636   5.793   2.489  0.2373 -0.3728 -0.1719
  517TIP3   OH222965   1.672   4.983   5.891  0.3289 -0.1795 -0.0078
  517TIP3    H122966   1.732   4.912   5.869 -1.2274 -1.1517 -1.4061
  517TIP3    H222967   1.587   4.940   5.904  0.0094  1.0652  2.5952
  518TIP3   OH222968   3.640   5.127  11.379 -0.6912  0.6857  0.0125
  518TIP3    H122969   3.638   5.106  11.472 -3.6181 -2.4029 -0.5261
  518TIP3    H222970   3.692   5.057  11.340 -0.1713  1.4882 -0.7576
  519TIP3   OH222971   3.599   2.080   5.221  0.1507 -0.7911 -0.3417
  519TIP3    H122972   3.688   2.110   5.201  0.2052 -1.2396 -0.8178
  519TIP3    H222973   3.543   2.156   5.206  0.4114 -0.6154 -0.4219
  520TIP3   OH222974   4.417   2.233  15.007  0.3987 -0.1508 -0.2031
  520TIP3    H122975   4.356   2.162  15.029 -0.8405  0.9469  0.0464
  520TIP3    H222976   4.440   2.271  15.092  0.7759 -0.0305 -0.3589
  521TIP3   OH222977   3.370   1.299  10.944  0.7729  0.6261  0.2877
  521TIP3    H122978   3.323   1.381  10.929  1.8889  1.2507  0.0612
  521TIP3    H222979   3.401   1.273  10.858 -0.0732 -0.3645  0.2715
  522TIP3   OH222980   3.176   2.525  14.558  0.0517  0.2334  0.5858
  522TIP3    H122981   3.224   2.488  14.484 -1.9630 -2.2720  0.4151
  522TIP3    H222982   3.223   2.494  14.635  0.7456  0.8268  0.4161
  523TIP3   OH222983   5.227   6.717   1.049  0.0197 -0.0987  0.2106
  523TIP3    H122984   5.157   6.710   1.115  0.5707 -1.8656  0.6643
  523TIP3    H222985   5.186   6.763   0.976 -1.3842 -0.3714  0.7811
  524TIP3   OH222986   0.723   2.366   5.380  0.3826  0.2406 -0.1561
  524TIP3    H122987   0.747   2.273   5.383  1.9140  0.6210  0.6281
  524TIP3    H222988   0.800   2.411   5.416 -1.0288  1.6981  1.1659
  525TIP3   OH222989   3.976   1.180  14.360  0.2589 -0.0661 -0.2174
  525TIP3    H122990   3.975   1.172  14.456 -0.5619 -1.6018 -0.3171
  525TIP3    H222991   3.963   1.090  14.329 -1.1176  0.6210 -1.7610
  526TIP3   OH222992   4.102   4.181  12.785 -1.0072 -0.9564 -0.4653
  526TIP3    H122993   4.171   4.144  12.840 -0.3439 -0.3616 -0.8732
  526TIP3    H222994   4.099   4.123  12.709  0.1961 -0.1000 -1.2169
  527TIP3   OH222995   6.173   1.465  12.075 -0.1704  0.5884 -0.9056
  527TIP3    H122996   6.247   1.405  12.087  1.1722  2.1394 -1.1483
  527TIP3    H222997   6.096   1.410  12.089  1.0243 -0.7361  1.1304
  528TIP3   OH222998   4.995   2.321   2.614  0.2148  0.4016 -0.2311
  528TIP3    H122999   4.987   2.413   2.639  1.0480  0.8664 -1.5457
  528TIP3    H223000   4.934   2.312   2.540 -0.2854 -0.2633  0.2484
  529TIP3   OH223001   5.046   2.763  15.201 -0.6782 -0.0870 -0.5908
  529TIP3    H123002   5.003   2.752  15.286 -0.1985  0.8079 -0.2221
  529TIP3    H223003   4.974   2.784  15.140 -0.9480 -0.1346 -0.2917
  530TIP3   OH223004   3.006   3.416  15.034  0.5712  0.1723  0.0810
  530TIP3    H123005   2.954   3.462  14.968  0.4412  0.8427  0.6333
  530TIP3    H223006   3.096   3.441  15.015  0.5477  0.2506  0.0729
  531TIP3   OH223007   3.226   1.579   1.949 -0.1229 -0.4239 -0.0979
  531TIP3    H123008   3.269   1.494   1.962 -0.5007 -0.7589 -0.9114
  531TIP3    H223009   3.298   1.641   1.942  0.2077 -0.8518 -0.5887
  532TIP3   OH223010   0.455   0.827  15.723 -0.1671  0.6632  0.5875
  532TIP3    H123011   0.499   0.743  15.730 -1.1822  0.0404 -0.2939
  532TIP3    H223012   0.374   0.808  15.676  0.6098  2.4809 -1.6917
  533TIP3   OH223013   4.548   4.609   2.886 -0.1397 -0.1488 -0.3936
  533TIP3    H123014   4.540   4.521   2.923 -0.9326  1.1078  2.8163
  533TIP3    H223015   4.642   4.623   2.878  0.1726 -0.2615  2.1230
  534TIP3   OH223016   5.292   6.311  12.536  0.1695 -0.3602 -0.0908
  534TIP3    H123017   5.369   6.365  12.517  1.7906 -2.2909  0.6991
  534TIP3    H223018   5.295   6.240  12.472 -1.4490 -0.0595 -0.5558
  535TIP3   OH223019   4.785   3.962   5.536 -0.2045 -0.0926  0.4125
  535TIP3    H123020   4.763   3.881   5.490  0.3829 -0.1356  0.2068
  535TIP3    H223021   4.710   4.020   5.518 -0.7407 -0.6640  0.7631
  536TIP3   OH223022   1.710   4.474   5.929  1.1163  0.4211  0.1795
  536TIP3    H123023   1.642   4.452   5.993  1.1769 -1.9235 -0.4853
  536TIP3    H223024   1.789   4.433   5.964  1.1461 -0.9317 -1.3632
  537TIP3   OH223025   4.664   5.783   5.206  0.2512 -0.4155  0.0464
  537TIP3    H123026   4.571   5.765   5.215  0.3908 -1.4255 -0.4243
  537TIP3    H223027   4.703   5.755   5.289  0.2611 -0.9233 -0.1247
  538TIP3   OH223028   0.857   1.297   4.272 -0.6870  0.0241 -0.7899
  538TIP3    H123029   0.781   1.240   4.279 -1.5622  1.2831  4.6285
  538TIP3    H223030   0.826   1.373   4.223 -1.8166 -0.8826 -1.5275
  539TIP3   OH223031   0.632   1.934  14.592 -0.4863  0.0186 -0.3163
  539TIP3    H123032   0.596   1.846  14.601 -2.0675  0.6475 -0.2032
  539TIP3    H223033   0.691   1.944  14.667 -1.1230 -0.5735  0.2759
  540TIP3   OH223034   3.265   0.228   1.429 -0.3845 -0.7262 -0.1723
  540TIP3    H123035   3.192   0.262   1.480  0.0055  1.1316 -0.7798
  540TIP3    H223036   3.310   0.169   1.488 -0.6740  0.4043  1.2269
  541TIP3   OH223037   2.741   3.023   2.768  0.0386 -0.3592  0.9025
  541TIP3    H123038   2.795   3.060   2.838  2.0387 -1.7204  0.1872
  541TIP3    H223039   2.759   3.078   2.692 -0.9763  0.2239  1.0676
  542TIP3   OH223040   2.972   6.405   1.165 -0.6340  0.5069 -0.6194
  542TIP3    H123041   3.061   6.422   1.195  0.5234 -2.6958 -1.7901
  542TIP3    H223042   2.971   6.435   1.074  0.4913 -2.4637 -1.7421
  543TIP3   OH223043   1.158   5.681   3.077  0.2609 -0.0101  0.2820
  543TIP3    H123044   1.227   5.646   3.021  0.0437 -0.4940  0.3084
  543TIP3    H223045   1.080   5.681   3.022  0.1335 -0.1111  0.4626
  544TIP3   OH223046   2.455   4.440   1.133  0.0735  0.4601  0.3338
  544TIP3    H123047   2.403   4.515   1.160  2.1249  2.0575  0.1108
  544TIP3    H223048   2.495   4.466   1.050  1.3523 -0.5989  0.5698
  545TIP3   OH223049   3.270   2.689  12.516  0.2531  0.3789  0.1103
  545TIP3    H123050   3.187   2.722  12.551  1.1856  2.7143  0.3167
  545TIP3    H223051   3.284   2.607  12.563 -3.3185 -1.7521 -2.0716
  546TIP3   OH223052   3.302   6.551   1.941  0.4028 -0.0133  0.0752
  546TIP3    H123053   3.352   6.525   1.864 -0.2735 -0.0747 -0.3537
  546TIP3    H223054   3.298   6.647   1.936  0.7496  0.0112  0.2819
  547TIP3   OH223055   2.855   6.336   5.802 -0.1118 -0.1938  0.2053
  547TIP3    H123056   2.782   6.396   5.789 -3.3384 -3.9471 -1.0017
  547TIP3    H223057   2.896   6.328   5.716 -0.1286 -0.2089  0.1985
  548TIP3   OH223058   1.665   6.218   5.304 -0.3048  0.0119 -0.6829
  548TIP3    H123059   1.692   6.139   5.259 -1.0293 -1.7663  1.7904
  548TIP3    H223060   1.570   6.214   5.306 -0.3060 -0.6524  1.9311
  549TIP3   OH223061   3.401   3.540   0.168 -0.0975  0.2360  0.0239
  549TIP3    H123062   3.363   3.602   0.231  0.9508  0.8292  0.0886
  549TIP3    H223063   3.325   3.497   0.129 -0.8104 -1.9978  3.4570
  550TIP3   OH223064   2.595   2.842  10.822  0.2049  0.2633  0.0303
  550TIP3    H123065   2.500   2.834  10.811  0.1037  1.0506  0.3266
  550TIP3    H223066   2.631   2.821  10.735 -0.1858 -0.8407  0.1182
  551TIP3   OH223067   4.975   1.115  14.865  0.2853  0.0355  0.2775
  551TIP3    H123068   5.004   1.089  14.952  0.8320 -1.0797 -0.2206
  551TIP3    H223069   5.036   1.183  14.838  0.2910  0.1771  0.6409
  552TIP3   OH223070   4.172   3.899  17.304  0.0782 -0.0809  0.2625
  552TIP3    H123071   4.256   3.930  17.272  0.3066 -1.3929 -0.4522
  552TIP3    H223072   4.165   3.937  17.392 -0.4379  3.3451 -1.1045
  553TIP3   OH223073   5.794   1.361  16.978 -0.1850 -0.2375  0.5211
  553TIP3    H123074   5.699   1.352  16.967 -0.0701 -1.0852  0.0388
  553TIP3    H223075   5.805   1.428  17.044 -1.0830  1.7982 -1.2607
  554TIP3   OH223076   5.588   4.566  13.096 -0.1951 -0.2118 -0.0167
  554TIP3    H123077   5.498   4.538  13.081 -0.2054 -0.1792 -0.0148
  554TIP3    H223078   5.632   4.487  13.129 -0.2781 -0.1668  0.2008
  555TIP3   OH223079   3.466   5.299  15.906  0.1428  0.5564  0.3882
  555TIP3    H123080   3.488   5.392  15.912 -0.8934  0.9226 -0.9651
  555TIP3    H223081   3.441   5.287  15.814 -1.8028 -0.5758  1.0272
  556TIP3   OH223082   5.884   1.726   0.747 -0.3720 -0.3643  0.4215
  556TIP3    H123083   5.801   1.707   0.702 -0.0089  0.1452 -0.4818
  556TIP3    H223084   5.928   1.641   0.752  0.0987 -0.2466 -1.2598
  557TIP3   OH223085   1.274   0.870   4.169 -0.3491 -0.0044  0.1978
  557TIP3    H123086   1.276   0.774   4.175 -2.0562 -0.1259 -0.7615
  557TIP3    H223087   1.240   0.899   4.254  0.8087 -0.1826  0.7437
  558TIP3   OH223088   5.226   2.895   0.121 -0.4679  0.3974  0.3109
  558TIP3    H123089   5.149   2.840   0.110 -0.0118 -0.6637  2.1351
  558TIP3    H223090   5.268   2.894   0.035 -1.3078 -0.8181 -0.1124
  559TIP3   OH223091   1.403   0.049   0.203 -0.0412 -0.3669 -0.3281
  559TIP3    H123092   1.462   0.082   0.135  0.0569  0.8603  0.3258
  559TIP3    H223093   1.459  -0.005   0.259  0.2861  0.0894 -0.2065
  560TIP3   OH223094   6.570   1.927  14.398 -0.0584 -0.1907  0.0802
  560TIP3    H123095   6.606   1.947  14.484 -1.6963 -1.6170  1.1660
  560TIP3    H223096   6.476   1.945  14.406 -0.8491 -3.3961 -0.2810
  561TIP3   OH223097   3.470   1.602   4.305  0.7936  0.9475  0.6441
  561TIP3    H123098   3.560   1.636   4.302  1.2192 -0.2186 -1.1024
  561TIP3    H223099   3.468   1.548   4.384  2.1219 -0.2034 -0.0616
  562TIP3   OH223100   6.145   2.195   5.314 -0.1586 -0.2687 -0.5768
  562TIP3    H123101   6.059   2.157   5.331  0.9058 -2.2774  0.7972
  562TIP3    H223102   6.163   2.175   5.223 -0.4770 -1.3385 -0.4199
  563TIP3   OH223103   1.230   6.762  14.421 -0.4939 -0.5654 -0.3632
  563TIP3    H123104   1.227   6.672  14.453  1.1818 -0.3999  0.3050
  563TIP3    H223105   1.302   6.763  14.358 -1.2336  0.0639 -1.2408
  564TIP3   OH223106   2.306   2.617  16.879  0.0590 -0.0663 -0.4620
  564TIP3    H123107   2.220   2.575  16.869  1.0301 -2.2302 -0.4005
  564TIP3    H223108   2.291   2.690  16.939 -1.5319 -1.1597  0.5518
  565TIP3   OH223109   4.902   6.137  15.969  0.0548  0.4811 -0.7421
  565TIP3    H123110   4.875   6.142  15.878  0.7615 -0.2375 -1.0096
  565TIP3    H223111   4.886   6.225  16.004 -2.5035  0.1377 -0.8594
  566TIP3   OH223112   6.152   4.828  15.428  0.2880 -0.5063  0.2417
  566TIP3    H123113   6.176   4.854  15.517  1.4443 -0.3817 -0.0898
  566TIP3    H223114   6.120   4.738  15.437 -0.0121 -0.3412  0.8407
  567TIP3   OH223115   2.654   0.784  13.182 -0.0976 -0.1821  0.1707
  567TIP3    H123116   2.580   0.725  13.174  0.0732 -0.5839  1.2976
  567TIP3    H223117   2.692   0.764  13.268  0.5430  0.8928  0.1690
  568TIP3   OH223118   3.197   5.925   3.950  0.1929  0.7267  0.2081
  568TIP3    H123119   3.271   5.983   3.929  0.0895  1.1861  1.1020
  568TIP3    H223120   3.231   5.837   3.935  1.0607  0.9164  1.0229
  569TIP3   OH223121   5.331   6.274  15.265 -0.0762 -0.4225 -0.1166
  569TIP3    H123122   5.302   6.292  15.354 -0.8951 -1.4334 -0.1662
  569TIP3    H223123   5.420   6.310  15.261 -0.3097  0.2988  0.8686
  570TIP3   OH223124   4.425   0.345   3.061  0.2540  0.0328  0.0882
  570TIP3    H123125   4.496   0.291   3.096 -0.8814 -1.2694  0.5046
  570TIP3    H223126   4.382   0.289   2.997 -1.0680  0.3589  0.6499
  571TIP3   OH223127   3.287   5.336   2.117  0.4023 -0.2291 -0.0878
  571TIP3    H123128   3.273   5.248   2.083 -0.2347 -0.3424  0.4553
  571TIP3    H223129   3.260   5.331   2.209  0.1587  0.5852 -0.1102
  572TIP3   OH223130   5.301   3.710   6.342  0.4173 -0.4622 -0.0599
  572TIP3    H123131   5.275   3.795   6.308 -0.5058 -0.6029  0.2553
  572TIP3    H223132   5.301   3.721   6.437 -0.9326 -1.1224  0.0442
  573TIP3   OH223133   1.002   0.349   0.582  0.6064 -0.1198  0.0070
  573TIP3    H123134   1.042   0.424   0.537 -0.0066 -0.1224 -0.5572
  573TIP3    H223135   0.966   0.296   0.511  0.0422 -0.3672  0.4776
  574TIP3   OH223136   0.246   6.759  13.203  0.5655  0.1623 -0.4124
  574TIP3    H123137   0.287   6.846  13.200  0.2915  0.2978 -2.7728
  574TIP3    H223138   0.307   6.702  13.156  0.7091 -0.9530  1.0619
  575TIP3   OH223139   4.084   2.698  16.247  0.3331 -0.1431  0.0125
  575TIP3    H123140   4.061   2.774  16.301  0.9600  1.2352 -1.5884
  575TIP3    H223141   4.179   2.688  16.257  0.4299  0.0218 -0.6932
  576TIP3   OH223142   3.755   4.601  17.194 -0.0932 -0.0305  0.4168
  576TIP3    H123143   3.713   4.686  17.212  0.2110 -0.2980  2.7428
  576TIP3    H223144   3.798   4.578  17.277  1.4819 -1.5518 -0.7549
  577TIP3   OH223145   5.495   5.714  14.345  0.2481 -0.0362  0.2559
  577TIP3    H123146   5.583   5.730  14.311 -0.4778 -0.5562 -2.0284
  577TIP3    H223147   5.453   5.800  14.345  0.6996  0.2087  1.3294
  578TIP3   OH223148   4.015   1.444  13.402  0.2238  0.2417 -0.7487
  578TIP3    H123149   3.929   1.483  13.383  0.5064  0.2689 -2.0647
  578TIP3    H223150   3.996   1.374  13.465 -0.7832  0.1982 -1.0837
  579TIP3   OH223151   0.952   0.686  11.325 -0.2180 -0.1821 -0.1463
  579TIP3    H123152   0.935   0.771  11.284  1.1499  0.9601  1.4849
  579TIP3    H223153   0.868   0.659  11.361 -0.5672  0.7713 -0.2240
  580TIP3   OH223154   5.103   1.239  13.682 -0.0460 -0.2796 -0.1021
  580TIP3    H123155   5.122   1.256  13.775  1.7305 -2.3196 -0.0320
  580TIP3    H223156   5.025   1.184  13.684  0.0813 -0.4533  0.1835
  581TIP3   OH223157   5.471   4.663  16.688  0.1173  0.2521 -0.6852
  581TIP3    H123158   5.555   4.624  16.715  1.7415  2.7093 -1.8512
  581TIP3    H223159   5.443   4.714  16.764 -0.6121 -0.9125 -0.1380
  582TIP3   OH223160   0.895   4.134  12.522  0.1599  0.2402 -0.1351
  582TIP3    H123161   0.925   4.208  12.469  0.2524  0.0998 -0.2780
  582TIP3    H223162   0.835   4.086  12.466 -1.3426  1.2202  0.5697
  583TIP3   OH223163   2.801   2.294  17.388 -0.4837  0.6121 -0.6482
  583TIP3    H123164   2.745   2.258  17.319  0.2362 -0.3669 -0.7455
  583TIP3    H223165   2.889   2.263  17.365 -0.1526  0.7618  0.3945
  584TIP3   OH223166   3.867   3.191  14.947  0.2950  0.6429  0.4040
  584TIP3    H123167   3.962   3.183  14.947  0.2680  0.3013  0.4725
  584TIP3    H223168   3.835   3.101  14.961 -0.0157  0.9528  1.8681
  585TIP3   OH223169   4.816   5.069  13.304 -0.2644  0.2049  0.1528
  585TIP3    H123170   4.813   5.156  13.263 -1.7736  0.5922  1.0035
  585TIP3    H223171   4.797   5.008  13.232  0.9001  0.5549 -0.4708
  586TIP3   OH223172   5.211   2.162   1.485  0.6171 -0.3410 -0.5467
  586TIP3    H123173   5.285   2.174   1.545  0.2545 -0.3541 -0.0920
  586TIP3    H223174   5.240   2.203   1.403  1.0084 -0.0756 -0.2806
  587TIP3   OH223175   2.125   4.323  16.538  0.2111 -0.4649  0.3804
  587TIP3    H123176   2.218   4.304  16.530  0.4553  0.7549  0.1365
  587TIP3    H223177   2.085   4.278  16.464  0.6285 -0.8622  0.3955
  588TIP3   OH223178   5.135   2.322   6.809  0.3001  0.1629 -0.3032
  588TIP3    H123179   5.230   2.332   6.796  0.4301 -0.1090  0.3463
  588TIP3    H223180   5.106   2.408   6.839  0.2363  0.4049 -1.0375
  589TIP3   OH223181   2.974   3.285  11.700  0.2524  0.3432 -0.2412
  589TIP3    H123182   2.916   3.209  11.704  0.1383  0.4804  1.1509
  589TIP3    H223183   2.978   3.317  11.790  0.4449  1.8820 -0.7635
  590TIP3   OH223184   5.669   3.160   2.620 -0.1648 -0.1827  0.1360
  590TIP3    H123185   5.654   3.083   2.565  1.1336 -0.0289 -0.4691
  590TIP3    H223186   5.582   3.184   2.652 -0.7732 -1.0707 -0.7836
  591TIP3   OH223187   3.677   2.211  16.364  0.0958 -0.3820 -0.1112
  591TIP3    H123188   3.621   2.283  16.395 -0.7670 -0.8673 -0.5186
  591TIP3    H223189   3.764   2.250  16.356 -0.5185  0.8515 -1.1164
  592TIP3   OH223190   4.076   2.484   4.441  0.0819 -0.3856  0.0590
  592TIP3    H123191   4.114   2.570   4.421  0.4901 -0.5469  0.1138
  592TIP3    H223192   4.040   2.454   4.358 -2.3978  0.9391  0.5565
  593TIP3   OH223193   6.015   3.394  15.330  0.4622  0.3091  0.1040
  593TIP3    H123194   6.107   3.381  15.308  0.4361 -0.0111  0.1711
  593TIP3    H223195   5.968   3.339  15.266  0.4291 -1.5635  1.6338
  594TIP3   OH223196   0.510   5.166  13.561 -0.2438 -0.5131 -0.3326
  594TIP3    H123197   0.446   5.197  13.624 -0.7766 -1.4953 -0.3599
  594TIP3    H223198   0.590   5.152  13.612 -0.9071 -2.0997  0.3258
  595TIP3   OH223199   2.126   5.853   0.362  0.5146 -0.2642 -0.2461
  595TIP3    H123200   2.210   5.811   0.345  0.6954 -0.3572  0.7834
  595TIP3    H223201   2.061   5.793   0.325  0.8400 -0.8142  0.0621
  596TIP3   OH223202   0.668   6.372  11.728  0.1637 -0.6003 -0.3029
  596TIP3    H123203   0.585   6.327  11.745  0.5879 -1.8111 -1.2918
  596TIP3    H223204   0.720   6.309  11.679  0.7242  1.0123 -1.9086
  597TIP3   OH223205   6.373   6.341   1.507  0.3745  0.3484  0.3219
  597TIP3    H123206   6.312   6.414   1.493 -1.3843 -1.0775  0.0841
  597TIP3    H223207   6.412   6.358   1.592 -0.7322  1.0915  0.7106
  598TIP3   OH223208   0.757   0.755  16.450  0.1549 -0.5642  0.8964
  598TIP3    H123209   0.846   0.736  16.480  1.5818  1.4362 -1.6824
  598TIP3    H223210   0.743   0.847  16.474 -0.8808 -0.5975  0.4788
  599TIP3   OH223211   3.112   5.483   2.880  0.2755 -0.6771  0.0280
  599TIP3    H123212   3.117   5.496   2.785 -1.4972 -0.4453 -0.0609
  599TIP3    H223213   3.189   5.528   2.915 -0.8686  2.2915 -1.0238
  600TIP3   OH223214   4.664   3.695   6.251 -0.0702 -0.2062 -0.1359
  600TIP3    H123215   4.601   3.624   6.264 -1.1193  0.1743 -2.5968
  600TIP3    H223216   4.618   3.773   6.282  0.4354 -0.3172  0.9635
  601TIP3   OH223217   0.738   0.093   4.658 -0.0005 -0.4087  0.2372
  601TIP3    H123218   0.678   0.166   4.673 -0.0590 -0.4718  0.3151
  601TIP3    H223219   0.806   0.128   4.601 -0.8753 -0.7127 -1.0406
  602TIP3   OH223220   4.309   2.116   3.737 -0.3732 -0.8671  0.1059
  602TIP3    H123221   4.231   2.119   3.794 -0.1922  0.3695  0.3073
  602TIP3    H223222   4.281   2.063   3.662 -1.3859 -0.5185  0.2199
  603TIP3   OH223223   1.727   4.315  15.741  0.0844  0.1890  0.4536
  603TIP3    H123224   1.648   4.264  15.754 -0.2393 -0.0372 -1.8654
  603TIP3    H223225   1.696   4.405  15.728  0.1595  0.0985 -0.4669
  604TIP3   OH223226   3.745   6.751  16.473 -0.0574 -0.4803  0.4593
  604TIP3    H123227   3.729   6.795  16.390 -1.3138  1.6408  1.7188
  604TIP3    H223228   3.778   6.665  16.449 -2.5764 -0.8216 -2.2531
  605TIP3   OH223229   6.271   4.738  17.039 -0.1156  0.1595  0.0537
  605TIP3    H123230   6.252   4.795  16.964  0.1231 -0.1280 -0.2344
  605TIP3    H223231   6.193   4.743  17.094 -0.1972  0.5645 -0.0976
  606TIP3   OH223232   0.303   3.089  15.551  0.4113 -0.1288 -0.6822
  606TIP3    H123233   0.347   3.023  15.497  0.0736  0.0255 -1.1541
  606TIP3    H223234   0.242   3.132  15.491 -0.7299 -0.6593  0.0845
  607TIP3   OH223235   3.882   6.068  16.446  0.0499 -0.3993 -0.2942
  607TIP3    H123236   3.801   6.115  16.466 -0.0792 -0.9525  0.5243
  607TIP3    H223237   3.865   6.024  16.363  0.0022  0.5950 -0.8252
  608TIP3   OH223238   2.005   1.965  13.530  0.0894 -0.2349 -0.3930
  608TIP3    H123239   2.054   1.986  13.450  2.1410  1.4004  1.1619
  608TIP3    H223240   2.063   1.907  13.579 -1.5176 -1.9441 -0.4163
  609TIP3   OH223241   0.854   2.998  16.798 -0.4898 -0.3434  0.3355
  609TIP3    H123242   0.782   3.053  16.769  0.0400 -0.5078 -1.3818
  609TIP3    H223243   0.828   2.969  16.886 -1.7413  0.9064  0.4121
  610TIP3   OH223244   4.710   6.457  16.945 -0.0755  0.0415  0.4751
  610TIP3    H123245   4.659   6.405  17.007 -0.8811 -0.2452 -0.4025
  610TIP3    H223246   4.690   6.418  16.860  2.4964 -0.8334  0.1821
  611TIP3   OH223247   0.874   3.455   4.737 -0.3508  0.3742  0.2149
  611TIP3    H123248   0.889   3.494   4.824  0.1415  1.0309 -0.1572
  611TIP3    H223249   0.899   3.364   4.747  1.3516  0.8291  0.3258
  612TIP3   OH223250   4.265   5.931  11.383 -0.2731  0.0085  0.0901
  612TIP3    H123251   4.224   5.981  11.312 -0.6024 -1.0241 -0.4703
  612TIP3    H223252   4.191   5.889  11.427  0.0360 -0.3578  0.2581
  613TIP3   OH223253   0.864   6.578  16.212  0.4698  0.2328 -0.2314
  613TIP3    H123254   0.933   6.582  16.146 -1.3155 -1.9483 -2.4248
  613TIP3    H223255   0.787   6.615  16.168 -0.7831 -1.2998  0.5608
  614TIP3   OH223256   3.371   4.875  15.020 -0.3768 -0.9007  0.0481
  614TIP3    H123257   3.360   4.873  15.115  0.2790 -0.6324  0.1372
  614TIP3    H223258   3.312   4.943  14.990  1.7847  1.3909  0.6435
  615TIP3   OH223259   3.039   6.228  12.434  0.4249  0.0871  0.2488
  615TIP3    H123260   2.989   6.146  12.429  0.2766  0.1455  0.7525
  615TIP3    H223261   3.013   6.276  12.356  3.1497 -1.8044 -2.0508
  616TIP3   OH223262   1.313   3.968  15.155 -0.4462  0.4266 -0.2148
  616TIP3    H123263   1.226   3.931  15.139 -0.1741 -0.1418 -0.4087
  616TIP3    H223264   1.297   4.040  15.216 -1.4389  2.1541 -2.3494
  617TIP3   OH223265   1.678   0.896   5.849 -0.6319  0.3024  0.0562
  617TIP3    H123266   1.756   0.929   5.893 -0.9130  1.5756 -0.3717
  617TIP3    H223267   1.619   0.971   5.845 -1.4024 -0.3285 -0.7054
  618TIP3   OH223268   5.019   6.195  15.688  0.1405 -0.2588 -0.3981
  618TIP3    H123269   5.074   6.209  15.611 -0.1326  1.8241 -0.2920
  618TIP3    H223270   5.006   6.101  15.692  2.6173 -0.7115 -1.1689
  619TIP3   OH223271   5.200   2.483  16.640  0.5940 -0.1868 -0.1814
  619TIP3    H123272   5.107   2.505  16.639  0.6612  0.1918  0.7243
  619TIP3    H223273   5.234   2.517  16.557 -0.0600 -0.2644 -0.4842
  620TIP3   OH223274   3.173   2.909  14.019  0.2111  0.0297  0.8650
  620TIP3    H123275   3.197   2.825  14.059 -1.3701 -0.3849  1.0382
  620TIP3    H223276   3.154   2.966  14.094 -0.3651  0.0043  0.7455
  621TIP3   OH223277   3.647   1.564  15.550 -0.0301  0.5265  0.2717
  621TIP3    H123278   3.611   1.564  15.461 -0.4449 -1.4871  0.3816
  621TIP3    H223279   3.655   1.471  15.572  2.1586  0.9442  1.5126
  622TIP3   OH223280   4.273   0.301   5.378 -0.8111 -0.3862 -0.0971
  622TIP3    H123281   4.333   0.352   5.434 -1.7904  0.2864  0.3615
  622TIP3    H223282   4.328   0.232   5.341 -0.5832 -2.5289  3.7328
  623TIP3   OH223283   1.202   6.498  16.164  0.1264 -0.4449 -0.3616
  623TIP3    H123284   1.189   6.568  16.099 -2.2874 -1.0174 -0.6077
  623TIP3    H223285   1.205   6.418  16.112 -1.0008 -0.8333  0.1304
  624TIP3   OH223286   0.283   1.580  16.032 -0.2922  0.4023  0.1820
  624TIP3    H123287   0.204   1.625  16.002 -0.2962  0.4131  0.2096
  624TIP3    H223288   0.280   1.495  15.987 -0.7148  0.0989  0.7649
  625TIP3   OH223289   2.816   1.193  16.800 -0.2732 -0.1141 -0.3591
  625TIP3    H123290   2.781   1.204  16.889  0.8269  1.5918 -0.0838
  625TIP3    H223291   2.855   1.106  16.801 -0.6638 -0.3073  0.6785
  626TIP3   OH223292   5.579   5.586  16.070  0.2232 -0.3560  0.0293
  626TIP3    H123293   5.594   5.502  16.113 -1.5159 -0.1161  1.1954
  626TIP3    H223294   5.514   5.630  16.125 -0.4251  0.9036 -1.6578
  627TIP3   OH223295   3.967   2.907   2.474  0.3756  0.0307  0.5557
  627TIP3    H123296   3.877   2.910   2.440  0.7329  0.0165 -0.4369
  627TIP3    H223297   3.963   2.847   2.548 -0.1089 -1.3726 -0.5646
  628TIP3   OH223298   1.723   0.861   0.162 -0.0427  0.0287  0.5081
  628TIP3    H123299   1.672   0.797   0.113 -1.5169  0.4713  1.3823
  628TIP3    H223300   1.812   0.852   0.129 -0.9164  0.1537 -2.0546
  629TIP3   OH223301   0.072   0.170  15.172 -0.0637  0.2762 -0.5273
  629TIP3    H123302   0.107   0.210  15.092  1.5539 -1.1373 -0.5967
  629TIP3    H223303   0.133   0.099  15.191 -0.7356  0.2201  1.6684
  630TIP3   OH223304   5.255   1.974   2.391  0.0680  0.0919  0.3136
  630TIP3    H123305   5.292   1.921   2.321  0.0497  0.5135 -0.0148
  630TIP3    H223306   5.245   1.913   2.464  1.2544 -0.0674  0.3583
  631TIP3   OH223307   5.115   5.759   0.382  0.2140 -0.0039  0.3438
  631TIP3    H123308   5.086   5.702   0.453 -1.1454 -0.7443 -0.7561
  631TIP3    H223309   5.175   5.705   0.331 -0.9422 -0.4467 -0.6006
  632TIP3   OH223310   4.709   4.029   2.955  0.1686  1.0572  0.1521
  632TIP3    H123311   4.742   4.091   2.890 -0.6026  1.2308 -0.0892
  632TIP3    H223312   4.639   3.982   2.909 -1.8859  2.6481  1.4556
  633TIP3   OH223313   5.019   1.502  11.706 -0.2358 -0.1591 -0.0341
  633TIP3    H123314   4.936   1.547  11.692 -0.1090  0.3664  0.8093
  633TIP3    H223315   5.014   1.471  11.797  0.4661 -0.1463  0.0141
  634TIP3   OH223316   6.613   0.384   6.772 -0.5902  0.6244 -0.1732
  634TIP3    H123317   6.520   0.381   6.753 -0.8525 -1.2363  1.0819
  634TIP3    H223318   6.655   0.361   6.689 -1.2564  1.2975 -0.7005
  635TIP3   OH223319   6.109   5.006  16.040  0.0201  0.5283 -0.6026
  635TIP3    H123320   6.112   4.974  15.950 -1.5063  2.4039 -1.3720
  635TIP3    H223321   6.090   5.099  16.033  0.6832  0.9034  1.6563
  636TIP3   OH223322   2.056   3.815  13.468 -0.0327  0.1644 -0.0678
  636TIP3    H123323   1.990   3.831  13.535 -0.8710  0.2668 -0.9052
  636TIP3    H223324   2.068   3.720  13.467 -1.1445  0.0242 -0.8255
  637TIP3   OH223325   6.102   0.851   6.378  0.1695 -0.1634 -0.5855
  637TIP3    H123326   6.139   0.928   6.421  2.3584 -0.7328 -1.3347
  637TIP3    H223327   6.034   0.886   6.321  0.9524  1.2075 -0.7190
  638TIP3   OH223328   0.396   3.458  16.943 -0.3122 -0.9333 -0.0719
  638TIP3    H123329   0.320   3.516  16.947  0.0220 -0.5468  1.2201
  638TIP3    H223330   0.383   3.406  16.864 -1.0739  0.2856 -0.7755
  639TIP3   OH223331   6.572   3.965   0.960 -0.6499  0.0768  0.3915
  639TIP3    H123332   6.645   4.025   0.980 -1.9923  1.5632  1.1375
  639TIP3    H223333   6.612   3.893   0.912  0.8927  2.1906 -1.7376
  640TIP3   OH223334   2.840   6.253  14.946  0.5381  0.4857  0.0099
  640TIP3    H123335   2.870   6.296  15.027  0.9088 -0.5888  0.4646
  640TIP3    H223336   2.786   6.181  14.977 -1.7591  1.7674 -0.7864
  641TIP3   OH223337   5.356   3.731   6.608 -0.9738  0.5386  0.2602
  641TIP3    H123338   5.287   3.696   6.665 -1.2281  2.0542  0.9412
  641TIP3    H223339   5.437   3.712   6.655 -1.0055 -0.2723 -0.0066
  642TIP3   OH223340   3.721   1.202  13.042  0.0230  0.4918 -0.3524
  642TIP3    H123341   3.713   1.208  13.137  0.5314  1.2569 -0.3464
  642TIP3    H223342   3.775   1.277  13.018  0.3096  0.0264 -1.1976
  643TIP3   OH223343   2.950   5.266  13.010  0.2468 -0.2430  0.4425
  643TIP3    H123344   2.890   5.303  12.946 -0.6536  0.4507  1.6469
  643TIP3    H223345   3.037   5.292  12.980 -0.2425  1.1539  0.1772
  644TIP3   OH223346   6.533   5.551   1.879  0.2044 -0.2421 -0.0703
  644TIP3    H123347   6.544   5.544   1.974  1.9723 -0.7016 -0.2702
  644TIP3    H223348   6.620   5.573   1.846 -0.6076  1.0102 -1.5167
  645TIP3   OH223349   6.267   3.293  14.973  0.1830  0.0266  0.0844
  645TIP3    H123350   6.289   3.378  14.937  0.0648  0.0532  0.0732
  645TIP3    H223351   6.213   3.251  14.906 -0.0095  0.0631  0.2128
  646TIP3   OH223352   0.832   1.198  15.269 -1.0916  0.6507 -0.2528
  646TIP3    H123353   0.743   1.202  15.303 -0.7228  2.3160  0.6254
  646TIP3    H223354   0.823   1.219  15.176 -1.5569  1.5047 -0.0260
  647TIP3   OH223355   2.979   0.855   0.504 -0.2902 -0.2998 -0.6139
  647TIP3    H123356   2.897   0.824   0.467 -1.3191 -0.9154  2.0032
  647TIP3    H223357   2.978   0.950   0.488  0.6987 -0.7573 -4.4997
  648TIP3   OH223358   4.500   2.527   1.027 -0.1699  0.2994  0.0025
  648TIP3    H123359   4.516   2.541   0.933 -1.2161 -1.5826 -0.5138
  648TIP3    H223360   4.557   2.591   1.070  1.6001  0.1388 -1.8769
  649TIP3   OH223361   5.493   3.958   2.209 -0.3263 -0.2779  0.0766
  649TIP3    H123362   5.551   4.017   2.161 -0.3067 -0.0500  0.3774
  649TIP3    H223363   5.433   3.924   2.142 -0.5980  0.3953 -0.0309
  650TIP3   OH223364   5.199   6.338   1.436 -0.3570  0.3203 -0.2592
  650TIP3    H123365   5.201   6.269   1.370  1.0481  1.1268 -1.0971
  650TIP3    H223366   5.121   6.389   1.414 -0.7084 -0.2684 -0.3983
  651TIP3   OH223367   5.619   4.865   2.614  0.3123 -0.2864 -0.0845
  651TIP3    H123368   5.578   4.946   2.645  0.1487 -0.7604  0.9751
  651TIP3    H223369   5.681   4.895   2.547  0.8475  0.8154  0.8603
  652TIP3   OH223370   2.171   2.201   2.256 -0.2158  0.2833  0.2572
  652TIP3    H123371   2.161   2.155   2.340  2.5233 -1.3742 -0.1957
  652TIP3    H223372   2.115   2.152   2.196  0.6611 -0.9180  0.3665
  653TIP3   OH223373   1.828   1.728  15.820 -0.3346  0.2094 -0.1361
  653TIP3    H123374   1.792   1.731  15.908  1.4503 -0.6371  0.6741
  653TIP3    H223375   1.844   1.820  15.798 -2.7365  0.5965 -0.4746
  654TIP3   OH223376   5.398   6.228   5.076  0.1788  0.0730  0.2837
  654TIP3    H123377   5.384   6.237   4.982  2.0184  3.2179  0.1771
  654TIP3    H223378   5.470   6.165   5.084 -2.0483 -2.7021 -0.1059
  655TIP3   OH223379   0.863   3.656  11.779 -0.1472  0.4868  0.6678
  655TIP3    H123380   0.959   3.653  11.785 -0.1216 -2.3684  0.6213
  655TIP3    H223381   0.845   3.644  11.686 -0.5046 -0.2336  0.8177
  656TIP3   OH223382   2.398   6.655   0.735 -0.2768 -0.3931  0.5726
  656TIP3    H123383   2.329   6.602   0.695  1.3308 -1.5533 -0.8555
  656TIP3    H223384   2.404   6.623   0.825 -0.4555 -1.5049  0.2034
  657TIP3   OH223385   5.158   0.115  13.816 -0.3489  0.2104 -0.6155
  657TIP3    H123386   5.082   0.109  13.760 -0.7481  0.5175 -0.1207
  657TIP3    H223387   5.233   0.098  13.759 -0.6927  1.2249 -1.3892
  658TIP3   OH223388   3.154   0.519  14.786 -0.2505 -0.0620  0.1596
  658TIP3    H123389   3.130   0.428  14.767  0.0118  0.3485 -2.5149
  658TIP3    H223390   3.158   0.523  14.882 -0.5784 -2.7675  0.3724
  659TIP3   OH223391   5.683   4.916   4.742 -0.4908 -0.1349  0.7049
  659TIP3    H123392   5.693   4.903   4.648  0.9272  1.4839  0.5772
  659TIP3    H223393   5.591   4.899   4.760 -0.3712 -2.6561 -0.5623
  660TIP3   OH223394   1.656   2.428  13.812  0.0946  0.3132 -0.3011
  660TIP3    H123395   1.744   2.430  13.850  0.0151 -2.1781  0.1998
  660TIP3    H223396   1.645   2.515  13.774  2.6994  0.7795 -0.2266
  661TIP3   OH223397   2.566   5.635   5.715  0.4540  0.0076  0.2731
  661TIP3    H123398   2.521   5.602   5.637  0.9740  0.6031 -0.2915
  661TIP3    H223399   2.633   5.694   5.680 -0.5009  1.7325  1.2371
  662TIP3   OH223400   5.127   1.945   1.657  0.0212  0.2502  0.2930
  662TIP3    H123401   5.090   2.015   1.604 -1.0896 -0.6619 -0.1924
  662TIP3    H223402   5.196   1.908   1.602 -1.4289 -0.9946 -0.7998
  663TIP3   OH223403   5.625   2.961   4.187  0.4710  0.1443  0.5514
  663TIP3    H123404   5.658   2.930   4.272  4.3580 -2.8739 -1.7197
  663TIP3    H223405   5.552   2.902   4.167  1.8731 -1.6188  0.3480
  664TIP3   OH223406   3.530   4.726  16.795 -0.0611  0.7206  0.4998
  664TIP3    H123407   3.471   4.753  16.725 -0.2209 -1.9955 -0.5347
  664TIP3    H223408   3.486   4.653  16.838  1.0854  0.7970  1.9268
  665TIP3   OH223409   5.395   1.429   2.741  0.6961 -0.3700  0.1406
  665TIP3    H123410   5.405   1.344   2.785  1.7567 -0.5667 -0.4565
  665TIP3    H223411   5.378   1.490   2.812 -3.0701 -1.4587  0.4036
  666TIP3   OH223412   6.506   5.400  16.664 -0.1024  0.6747  0.4068
  666TIP3    H123413   6.527   5.485  16.627 -0.9024  0.1315 -1.4178
  666TIP3    H223414   6.416   5.383  16.637  0.6673 -1.6063 -1.0835
  667TIP3   OH223415   1.124   0.101  15.964  0.0171  0.0220 -0.2623
  667TIP3    H123416   1.206   0.079  16.009  0.9638  0.0459 -1.9022
  667TIP3    H223417   1.060   0.040  16.000  0.6843  0.1567  1.2204
  668TIP3   OH223418   5.188   1.232  14.229  0.1713 -0.6754  0.1637
  668TIP3    H123419   5.179   1.231  14.324  4.5406  0.7923  0.7860
  668TIP3    H223420   5.250   1.162  14.210 -0.0203 -0.4126 -1.5572
  669TIP3   OH223421   2.269   4.406  11.048  0.1023 -0.4833  0.3791
  669TIP3    H123422   2.288   4.400  11.142 -0.7631  1.4309  0.7232
  669TIP3    H223423   2.214   4.484  11.040 -2.3426 -2.2335 -1.3562
  670TIP3   OH223424   4.714   6.644  10.836  0.4306  0.2383 -0.5727
  670TIP3    H123425   4.771   6.610  10.906 -0.3214 -0.1556 -0.1341
  670TIP3    H223426   4.647   6.696  10.883  0.4121  0.6754 -1.0755
  671TIP3   OH223427   0.811   0.829   4.263 -0.1690 -0.2481  0.1721
  671TIP3    H123428   0.843   0.749   4.222 -0.0856 -0.7344  1.1720
  671TIP3    H223429   0.859   0.899   4.219  0.1568 -0.7790 -0.3265
  672TIP3   OH223430   5.276   5.261   1.543 -0.1047  0.3295 -1.0234
  672TIP3    H123431   5.291   5.217   1.627 -0.5007  0.0472 -1.1015
  672TIP3    H223432   5.286   5.192   1.478  0.7008  0.6518 -1.2475
  673TIP3   OH223433   5.531   6.154   0.762  0.0868  0.4899 -0.4690
  673TIP3    H123434   5.444   6.194   0.765  0.5760  1.5587  0.0701
  673TIP3    H223435   5.530   6.090   0.833 -0.1410  0.7679 -0.2192
  674TIP3   OH223436   6.357   0.919   1.408 -0.4795  0.5690 -0.6006
  674TIP3    H123437   6.402   0.995   1.371 -1.5389  1.3946 -0.2302
  674TIP3    H223438   6.428   0.858   1.430  0.3347  1.0729 -1.6891
  675TIP3   OH223439   3.443   1.285  15.378  0.5194 -0.5413 -0.2225
  675TIP3    H123440   3.443   1.381  15.369  0.3835 -0.3097  1.7574
  675TIP3    H223441   3.356   1.265  15.412  0.9168 -1.2480  0.3888
  676TIP3   OH223442   4.466   4.473  10.816 -0.1995  0.4350 -0.4069
  676TIP3    H123443   4.461   4.557  10.771 -0.5136  0.4917 -0.2663
  676TIP3    H223444   4.435   4.409  10.751  0.5007  0.3603 -0.6804
  677TIP3   OH223445   6.465   5.264   2.209 -0.1898  0.5235 -1.0636
  677TIP3    H123446   6.454   5.274   2.304  1.2876 -0.6147 -0.7246
  677TIP3    H223447   6.520   5.337   2.183  0.1909  0.3093 -0.8655
  678TIP3   OH223448   1.297   2.955  12.821 -0.1975  0.6017 -0.1114
  678TIP3    H123449   1.255   2.897  12.884 -0.2004  0.9160  0.1787
  678TIP3    H223450   1.230   2.971  12.755  0.2558 -0.9063 -0.9946
  679TIP3   OH223451   3.640   3.802  11.820  0.3629  0.2897  0.6172
  679TIP3    H123452   3.712   3.865  11.827 -0.8774  1.9422 -0.7164
  679TIP3    H223453   3.605   3.815  11.732 -0.2416 -2.0066  0.4419
  680TIP3   OH223454   4.131   5.707   0.425 -0.0573 -0.1540  0.2439
  680TIP3    H123455   4.101   5.680   0.512  1.6376 -1.8498  0.3698
  680TIP3    H223456   4.071   5.778   0.400 -2.7782 -1.9306  1.2749
  681TIP3   OH223457   4.087   2.621  17.160  0.1941  0.1019 -0.7451
  681TIP3    H123458   4.157   2.641  17.098 -0.9588  0.1935 -2.0667
  681TIP3    H223459   4.101   2.529  17.183  1.9486  0.6535  0.6657
  682TIP3   OH223460   6.351   3.971   1.138 -0.3888  0.4156 -0.0773
  682TIP3    H123461   6.300   3.890   1.144 -1.8889  1.2422 -1.0605
  682TIP3    H223462   6.431   3.946   1.091  0.1061 -0.8710  1.3506
  683TIP3   OH223463   1.872   2.298  13.230  0.1645 -0.0096  0.0371
  683TIP3    H123464   1.861   2.344  13.313 -0.6106 -2.0414  1.1324
  683TIP3    H223465   1.911   2.363  13.171 -0.5155  1.8845  1.5806
  684TIP3   OH223466   5.928   2.135  15.595 -0.9750  0.5348  0.4455
  684TIP3    H123467   5.927   2.165  15.686 -0.1010  1.2517  0.2339
  684TIP3    H223468   5.872   2.197  15.548 -1.7807 -0.0898  0.5528
  685TIP3   OH223469   2.621   1.245  15.128  0.0443 -0.2605  0.1666
  685TIP3    H123470   2.690   1.195  15.174  0.3856 -0.1001 -0.1674
  685TIP3    H223471   2.616   1.204  15.042 -0.4677 -0.4400  0.2790
  686TIP3   OH223472   2.457   6.316  14.126  1.0087  0.1397  0.4539
  686TIP3    H123473   2.425   6.345  14.212 -0.2591 -0.4572  0.2099
  686TIP3    H223474   2.435   6.388  14.067  1.5159  0.3778  0.5489
  687TIP3   OH223475   3.237   6.324  14.629 -0.1521  0.4166 -0.2168
  687TIP3    H123476   3.195   6.241  14.604  2.4824 -1.0361 -0.2508
  687TIP3    H223477   3.260   6.312  14.721  1.2596  0.5963 -0.5174
  688TIP3   OH223478   3.312   2.898   0.251  0.4929 -0.1438  0.1147
  688TIP3    H123479   3.403   2.881   0.273  0.7094  0.8976  0.0363
  688TIP3    H223480   3.275   2.810   0.236  1.3883 -0.5927  0.4486
  689TIP3   OH223481   1.793   4.116   0.848  0.1934 -0.5216  0.2915
  689TIP3    H123482   1.882   4.093   0.875  0.4666  0.2679  0.0782
  689TIP3    H223483   1.737   4.086   0.920  0.7924  0.4738  1.1907
  690TIP3   OH223484   4.037   2.290  13.974 -0.0936  0.0107  0.1744
  690TIP3    H123485   4.049   2.317  13.883 -1.2077  0.0478  0.0234
  690TIP3    H223486   3.945   2.308  13.992  0.7601  3.0051  2.3013
  691TIP3   OH223487   3.806   3.275   5.365  1.0050 -0.3597  0.4671
  691TIP3    H123488   3.776   3.355   5.322 -2.4836 -1.6008  0.2885
  691TIP3    H223489   3.767   3.278   5.452  1.1708 -1.6770  0.6098
  692TIP3   OH223490   1.479   3.363  13.540  0.0334  0.2549  0.3048
  692TIP3    H123491   1.429   3.370  13.459 -1.6471 -0.0658  1.2750
  692TIP3    H223492   1.504   3.270  13.544 -0.3541  0.1550  0.4217
  693TIP3   OH223493   4.361   1.395   1.280  0.1587 -0.0712 -0.7313
  693TIP3    H123494   4.298   1.335   1.319  3.7418 -2.4037  2.1366
  693TIP3    H223495   4.400   1.346   1.207  2.0250 -0.7789  0.6634
  694TIP3   OH223496   2.381   3.818  14.555  0.7707 -0.4494  0.0997
  694TIP3    H123497   2.439   3.885  14.519  0.7223  0.0542  0.9457
  694TIP3    H223498   2.334   3.784  14.478  1.5157 -0.2210 -0.4673
  695TIP3   OH223499   2.856   1.179  12.199 -0.6083 -0.2572 -0.0411
  695TIP3    H123500   2.873   1.129  12.280 -0.4784 -0.4301 -0.1744
  695TIP3    H223501   2.933   1.162  12.144  0.8179  2.3078  0.9796
  696TIP3   OH223502   3.518   0.241   5.393 -0.1277 -0.5043 -0.2788
  696TIP3    H123503   3.424   0.256   5.407 -0.8049 -2.2999 -2.3589
  696TIP3    H223504   3.530   0.252   5.299  2.2589  1.8403  0.1731
  697TIP3   OH223505   2.925   1.883  12.642  0.0111 -0.8712 -0.1134
  697TIP3    H123506   2.905   1.795  12.674 -0.7834 -0.2332  1.2328
  697TIP3    H223507   3.003   1.910  12.691 -0.1615 -0.5654 -0.0026
  698TIP3   OH223508   4.199   5.141   2.771 -0.2039 -0.1496  0.3106
  698TIP3    H123509   4.263   5.211   2.787  0.5445 -0.5628 -0.7496
  698TIP3    H223510   4.123   5.185   2.733  0.2440  0.1155 -0.3042
  699TIP3   OH223511   4.375   4.110   0.236  0.1902 -0.1482  0.2696
  699TIP3    H123512   4.451   4.084   0.182  0.7734  1.1163  0.4560
  699TIP3    H223513   4.409   4.112   0.325 -0.2965 -0.3934  0.4633
  700TIP3   OH223514   4.685   0.652  17.002 -0.0258  0.0248 -0.1518
  700TIP3    H123515   4.705   0.565  17.039  0.5697  0.6743  1.1401
  700TIP3    H223516   4.608   0.637  16.947 -0.1153 -1.2731  0.2710
  701TIP3   OH223517   6.732   6.599  14.151 -0.5105  0.4710  0.3036
  701TIP3    H123518   6.744   6.596  14.246  1.4058 -1.3402  0.0809
  701TIP3    H223519   6.680   6.678  14.136 -1.8614  0.2015  2.9317
  702TIP3   OH223520   1.001   0.414   1.475 -0.1940 -0.1593  0.3506
  702TIP3    H123521   1.001   0.443   1.383  1.6563  0.2250  0.4414
  702TIP3    H223522   0.909   0.398   1.494 -0.8909  1.8199 -0.9349
  703TIP3   OH223523   6.615   4.716  11.238  0.1938 -0.0891 -0.2507
  703TIP3    H123524   6.562   4.671  11.304 -1.3256 -1.4388 -2.2945
  703TIP3    H223525   6.555   4.779  11.198  1.6506  2.1609  0.9344
  704TIP3   OH223526   4.024   1.663  16.313 -0.1055  0.7133 -0.1819
  704TIP3    H123527   4.073   1.598  16.262 -0.7639 -0.1574  0.2766
  704TIP3    H223528   3.932   1.639  16.301 -0.4687  2.3217 -1.0274
  705TIP3   OH223529   2.775   2.563  13.976  0.3946  0.0589 -0.2547
  705TIP3    H123530   2.684   2.557  14.005  0.5644 -0.6976  0.1413
  705TIP3    H223531   2.793   2.477  13.937  0.9250  0.2196 -0.3687
  706TIP3   OH223532   2.765   6.757   0.951  0.3921 -0.3096 -0.5705
  706TIP3    H123533   2.737   6.840   0.913 -1.9232  0.2418  2.0199
  706TIP3    H223534   2.735   6.691   0.888  0.1011  0.6726 -1.4969
  707TIP3   OH223535   2.134   0.989   4.544 -0.1797  0.2985 -0.2175
  707TIP3    H123536   2.085   0.907   4.533  3.2640 -1.6319 -3.5145
  707TIP3    H223537   2.070   1.057   4.525 -2.4098 -1.7989 -0.8701
  708TIP3   OH223538   1.458   6.088   3.188  0.1333 -0.2170 -0.3276
  708TIP3    H123539   1.364   6.075   3.202  0.0808 -0.6852 -1.0458
  708TIP3    H223540   1.489   6.003   3.156  0.8227 -0.0920 -0.0171
  709TIP3   OH223541   5.252   3.571  16.118  0.2346 -0.1553 -0.5296
  709TIP3    H123542   5.307   3.622  16.178  0.4594 -0.3156 -0.6005
  709TIP3    H223543   5.181   3.631  16.094 -0.0957 -0.2293  0.2318
  710TIP3   OH223544   4.292   2.972  13.036 -0.5338  0.4841  0.5016
  710TIP3    H123545   4.244   2.896  13.004 -0.5837  0.9116 -0.4624
  710TIP3    H223546   4.250   2.994  13.119  0.3802 -1.3791  1.5245
  711TIP3   OH223547   6.324   5.382  13.078 -0.2222  0.4250 -0.2367
  711TIP3    H123548   6.308   5.472  13.107  0.3975 -0.1334  1.9864
  711TIP3    H223549   6.415   5.382  13.049  0.0208  0.3505  0.5090
  712TIP3   OH223550   3.310   1.644  14.139  0.2757  0.3561  0.3160
  712TIP3    H123551   3.343   1.571  14.191  1.7186  0.4074 -0.4778
  712TIP3    H223552   3.354   1.635  14.054 -1.2700  0.8297 -0.5867
  713TIP3   OH223553   3.894   0.456  15.889 -0.0439 -0.2559  0.1708
  713TIP3    H123554   3.800   0.474  15.903  0.0488 -0.6039  1.3990
  713TIP3    H223555   3.912   0.491  15.802 -1.3985 -0.5082 -0.2402
  714TIP3   OH223556   4.310   1.908  14.860  0.5163 -0.1877 -0.0335
  714TIP3    H123557   4.249   1.909  14.786  0.0865 -0.7314  0.3030
  714TIP3    H223558   4.335   1.999  14.872 -0.1655  0.0321 -0.2328
  715TIP3   OH223559   6.206   4.478  11.488  0.8025 -0.0601  0.4989
  715TIP3    H123560   6.127   4.482  11.542  0.3231  0.2154 -0.2029
  715TIP3    H223561   6.173   4.473  11.398  1.5397 -2.7865  0.2979
  716TIP3   OH223562   1.064   1.653   4.561 -0.2006 -0.0538 -0.6402
  716TIP3    H123563   1.084   1.601   4.483  0.3528  2.0135 -1.9622
  716TIP3    H223564   1.004   1.599   4.612  0.5355 -2.0532 -1.7885
  717TIP3   OH223565   4.995   3.689  12.607 -0.0893 -0.2784 -0.6978
  717TIP3    H123566   5.077   3.650  12.577  1.1942  1.3157  0.5537
  717TIP3    H223567   4.954   3.622  12.662  1.3437 -0.4171  0.2294
  718TIP3   OH223568   1.162   5.647   4.462  0.5411 -0.6136 -0.4040
  718TIP3    H123569   1.120   5.624   4.545 -0.7934  1.7897 -0.3506
  718TIP3    H223570   1.099   5.619   4.395 -0.1607  0.8723 -0.4089
  719TIP3   OH223571   5.701   1.139   4.431  0.1665 -0.5070  0.5428
  719TIP3    H123572   5.636   1.071   4.415 -2.1140  1.3795  1.1104
  719TIP3    H223573   5.658   1.220   4.403  3.7231  0.5549 -2.7306
  720TIP3   OH223574   2.959   5.046  11.298  0.0097 -0.1592  0.1373
  720TIP3    H123575   3.040   4.996  11.309  1.0441  1.4192  0.0702
  720TIP3    H223576   2.940   5.041  11.204 -0.7451 -1.6203  0.3348
  721TIP3   OH223577   6.481   0.154  15.357  0.1013  0.3677  0.2163
  721TIP3    H123578   6.407   0.156  15.418 -0.5728 -2.2081 -0.3810
  721TIP3    H223579   6.514   0.244  15.356 -1.5587  1.0848  2.2675
  722TIP3   OH223580   2.442   0.010   2.555 -0.0125  0.0358 -0.7253
  722TIP3    H123581   2.432  -0.026   2.467 -0.6767  0.9408 -1.0429
  722TIP3    H223582   2.517   0.071   2.548 -0.2942  0.3824 -0.7644
  723TIP3   OH223583   1.597   4.326   3.220 -0.7941  0.5701  0.6680
  723TIP3    H123584   1.574   4.242   3.259 -1.7717  0.9398  0.9171
  723TIP3    H223585   1.578   4.390   3.289  1.6239  0.8799  1.1482
  724TIP3   OH223586   0.596   4.355   2.715 -0.1983 -0.6875 -0.2742
  724TIP3    H123587   0.556   4.313   2.791  2.9019 -0.9731  1.3582
  724TIP3    H223588   0.653   4.289   2.678 -0.8701 -0.2053 -2.3136
  725TIP3   OH223589   3.896   5.075   0.402  0.3023  0.4056  0.0759
  725TIP3    H123590   3.823   5.110   0.452 -1.2335 -2.6560  0.2231
  725TIP3    H223591   3.963   5.056   0.468 -0.8787 -1.6060  0.7898
  726TIP3   OH223592   6.299   4.976  11.445  0.1236  0.1303 -0.1148
  726TIP3    H123593   6.370   5.041  11.442  0.3401 -0.1379 -1.2361
  726TIP3    H223594   6.331   4.903  11.392 -0.2092 -0.8233  0.9393
  727TIP3   OH223595   3.069   0.119  14.265 -0.1805 -0.1535 -0.0122
  727TIP3    H123596   3.076   0.024  14.276 -0.4212 -0.3357 -1.2674
  727TIP3    H223597   3.076   0.154  14.354  0.4309 -1.3091  0.4159
  728TIP3   OH223598   5.651   5.726   5.967  0.5177 -0.2418 -0.4941
  728TIP3    H123599   5.669   5.819   5.958 -0.0818 -0.0021  0.5250
  728TIP3    H223600   5.574   5.710   5.912  0.4892 -0.0862 -0.4981
  729TIP3   OH223601   2.015   2.618   1.229  0.0829  0.2363 -0.3545
  729TIP3    H123602   1.926   2.613   1.194 -0.3115  2.4017  0.2058
  729TIP3    H223603   2.064   2.553   1.178 -1.6034 -0.3746 -1.2938
  730TIP3   OH223604   4.030   5.824  16.323  0.2225  0.2045  0.6125
  730TIP3    H123605   4.083   5.810  16.402  1.8577 -0.0558 -0.4812
  730TIP3    H223606   3.975   5.745  16.317  1.2219 -0.5234  0.6589
  731TIP3   OH223607   0.161   6.327   1.078  0.6305  0.0556  0.1636
  731TIP3    H123608   0.081   6.378   1.092  0.2119 -0.6954  0.6109
  731TIP3    H223609   0.219   6.353   1.149  0.5250  0.1196  0.2270
  732TIP3   OH223610   2.833   4.699   4.097 -0.0381  0.0155 -0.6231
  732TIP3    H123611   2.797   4.768   4.151 -0.3204 -1.6193  1.4073
  732TIP3    H223612   2.788   4.709   4.012 -2.1996  0.5813  0.5148
  733TIP3   OH223613   2.178   2.982   1.570 -0.1339 -0.5287 -0.2648
  733TIP3    H123614   2.140   2.912   1.518  1.8897 -1.4663 -0.5633
  733TIP3    H223615   2.106   3.013   1.625 -1.0175 -3.0721  0.1214
  734TIP3   OH223616   2.719   1.844  16.045 -0.7219  0.5049 -0.4711
  734TIP3    H123617   2.691   1.798  15.966 -1.6948  2.4140 -1.3153
  734TIP3    H223618   2.696   1.786  16.117  2.1523 -2.2868 -1.5584
  735TIP3   OH223619   3.195   5.178  11.245  0.5124  0.0180 -0.4785
  735TIP3    H123620   3.253   5.125  11.190  1.0265 -0.4174  0.4527
  735TIP3    H223621   3.198   5.135  11.331 -2.1274 -0.7267 -0.6817
  736TIP3   OH223622   6.143   4.615   4.591  0.4968 -0.1662 -0.0108
  736TIP3    H123623   6.208   4.667   4.541  1.8305 -0.7086  1.1071
  736TIP3    H223624   6.071   4.676   4.606  0.3022  0.1897 -2.0779
  737TIP3   OH223625   6.344   1.384   4.279 -0.1297  0.7463 -0.8251
  737TIP3    H123626   6.397   1.306   4.260 -0.4033  0.2410  0.3614
  737TIP3    H223627   6.378   1.416   4.362  0.0187  1.9509 -1.3357
  738TIP3   OH223628   4.689   5.532   5.389  0.0642  0.3556  0.1101
  738TIP3    H123629   4.776   5.564   5.365 -0.1489 -1.3584 -3.5423
  738TIP3    H223630   4.707   5.452   5.438  0.5947 -0.2392 -1.0161
  739TIP3   OH223631   1.597   0.336  17.055 -0.3767  0.1558 -0.2280
  739TIP3    H123632   1.580   0.371  17.143 -0.5890  0.4854 -0.3989
  739TIP3    H223633   1.572   0.407  16.996  1.2181  0.5228 -0.5209
  740TIP3   OH223634   1.193   1.882  12.364  0.4846  0.0193 -0.1430
  740TIP3    H123635   1.192   1.789  12.345 -1.8064 -0.0207 -0.0530
  740TIP3    H223636   1.202   1.887  12.459 -2.6825 -0.2944  0.2666
  741TIP3   OH223637   1.693   2.788   0.945 -0.5173  0.3204  0.2350
  741TIP3    H123638   1.710   2.707   0.995 -0.4248 -0.0652 -0.4133
  741TIP3    H223639   1.603   2.811   0.967 -1.2884 -1.1234 -1.1591
  742TIP3   OH223640   1.186   2.926  14.630  0.2078 -0.0729  0.0509
  742TIP3    H123641   1.123   2.854  14.637 -0.3669  0.5754  2.5263
  742TIP3    H223642   1.262   2.897  14.680  0.6573  0.3540 -0.3722
  743TIP3   OH223643   1.714   2.189   6.269  0.2729 -0.0946 -0.1210
  743TIP3    H123644   1.680   2.104   6.240 -0.7958 -0.3399  1.7001
  743TIP3    H223645   1.792   2.202   6.216 -0.5054 -1.3717 -1.7005
  744TIP3   OH223646   6.175   0.489   4.113 -0.5094  0.2905  0.1421
  744TIP3    H123647   6.124   0.469   4.034  1.1797 -1.2986 -0.6307
  744TIP3    H223648   6.223   0.569   4.091  0.8873 -0.8133 -0.9595
  745TIP3   OH223649   2.472   6.131   5.105  0.4248 -0.4350 -0.0144
  745TIP3    H123650   2.484   6.174   5.020 -1.0183 -1.0301 -0.5512
  745TIP3    H223651   2.382   6.099   5.103  0.1250  0.1102  2.0138
  746TIP3   OH223652   0.288   6.649  11.715  0.1846 -0.0104  0.3846
  746TIP3    H123653   0.277   6.666  11.808 -2.9775  1.1716 -0.0685
  746TIP3    H223654   0.356   6.709  11.687 -1.2827  2.2581  1.3644
  747TIP3   OH223655   5.210   0.300   1.888  0.0098 -0.5720 -0.1104
  747TIP3    H123656   5.193   0.334   1.976  1.4920 -2.5412  1.0226
  747TIP3    H223657   5.247   0.213   1.903 -0.1533 -1.1673 -2.7248
  748TIP3   OH223658   1.517   2.966   0.641 -0.4334  0.1019 -0.6400
  748TIP3    H123659   1.588   2.980   0.703 -0.1497 -0.3628 -0.8513
  748TIP3    H223660   1.499   3.052   0.604 -1.9876  0.7970  1.5312
  749TIP3   OH223661   1.855   3.850  13.632  0.0173 -0.4427 -0.1885
  749TIP3    H123662   1.763   3.859  13.610 -0.4353 -2.1882  0.7901
  749TIP3    H223663   1.862   3.764  13.674  1.8951  0.1026  0.7605
  750TIP3   OH223664   6.625   2.495   4.062  0.5172  0.3773 -0.3912
  750TIP3    H123665   6.596   2.553   4.132 -2.4438  0.9627 -1.9675
  750TIP3    H223666   6.544   2.465   4.021  1.9972 -3.1956 -1.0353
  751TIP3   OH223667   1.297   6.176  16.996  0.4092  0.7699  0.0581
  751TIP3    H123668   1.252   6.216  17.070 -0.7749  1.3094 -0.8998
  751TIP3    H223669   1.362   6.118  17.035 -0.8418  0.2747  1.5226
  752TIP3   OH223670   0.525   6.392  15.972  0.1461  0.1990 -0.7306
  752TIP3    H123671   0.467   6.320  15.951  1.1842 -1.0760  0.6063
  752TIP3    H223672   0.466   6.466  15.989 -1.0105 -0.7056 -0.6696
  753TIP3   OH223673   1.838   1.770   1.282  0.1112  0.2841 -0.4303
  753TIP3    H123674   1.898   1.806   1.217  0.6903 -0.6258 -0.4110
  753TIP3    H223675   1.762   1.741   1.231  1.2048 -1.8701 -0.9676
  754TIP3   OH223676   6.385   1.737   6.096  0.3759 -0.0650 -0.1927
  754TIP3    H123677   6.449   1.704   6.159 -0.8534 -0.9375  0.6421
  754TIP3    H223678   6.321   1.784   6.148 -0.1058  0.1026 -0.9184
  755TIP3   OH223679   6.020   3.498  12.134 -0.1348  0.3641  0.1001
  755TIP3    H123680   6.087   3.483  12.201 -1.5889  0.3447  1.6090
  755TIP3    H223681   5.990   3.587  12.148 -1.7376 -0.2337  0.7100
  756TIP3   OH223682   2.113   4.552   4.491  0.5103  0.1007 -0.9934
  756TIP3    H123683   2.056   4.567   4.416  2.6152  0.5186 -2.6223
  756TIP3    H223684   2.101   4.460   4.512 -1.5936  0.4412 -0.4977
  757TIP3   OH223685   1.784   0.765   3.594  0.2115 -0.0977 -0.0672
  757TIP3    H123686   1.869   0.787   3.631 -0.2125  2.1822 -0.2878
  757TIP3    H223687   1.772   0.829   3.523 -1.1791 -1.1242 -0.7982
  758TIP3   OH223688   5.381   5.829   1.771 -0.8164 -0.3565 -0.8002
  758TIP3    H123689   5.372   5.898   1.706  0.3880 -1.5763 -2.3390
  758TIP3    H223690   5.298   5.780   1.765 -0.5989 -0.6311 -1.6371
  759TIP3   OH223691   3.688   2.724   1.475  0.1140  0.0918  0.5349
  759TIP3    H123692   3.603   2.716   1.432  0.8917 -1.0377 -0.8504
  759TIP3    H223693   3.744   2.662   1.430  2.1365  1.9525  0.3228
  760TIP3   OH223694   0.291   0.171  10.575 -0.1282 -0.7839  0.1405
  760TIP3    H123695   0.345   0.211  10.643  1.4271 -0.7302 -1.0783
  760TIP3    H223696   0.352   0.122  10.520 -1.3466 -0.9711 -1.1262
  761TIP3   OH223697   3.611   6.644  11.973  0.3494 -0.6342  0.0688
  761TIP3    H123698   3.598   6.694  11.892  2.9939 -0.2990 -0.2383
  761TIP3    H223699   3.610   6.553  11.945 -1.1564 -0.6446  0.0862
  762TIP3   OH223700   1.041   3.237  15.841 -0.4782 -0.1035  0.2331
  762TIP3    H123701   1.092   3.187  15.777 -0.1721  0.4674  0.0241
  762TIP3    H223702   0.954   3.196  15.839 -0.6062  0.1799 -0.8909
  763TIP3   OH223703   0.969   5.047   2.961  0.1717  0.3876  0.1632
  763TIP3    H123704   1.037   5.101   2.999  1.5727 -1.7593  0.8545
  763TIP3    H223705   1.008   4.960   2.951 -1.1486 -0.0074 -3.1857
  764TIP3   OH223706   1.127   0.084   0.839  0.1442 -0.6880  0.0416
  764TIP3    H123707   1.197   0.099   0.903  0.8661 -0.8659 -0.6972
  764TIP3    H223708   1.070   0.160   0.848  1.0850  0.0628 -0.1919
  765TIP3   OH223709   2.440   0.342  17.043 -0.1468  0.1874 -0.3756
  765TIP3    H123710   2.455   0.368  17.134 -0.0719 -0.5127 -0.1807
  765TIP3    H223711   2.394   0.259  17.049 -0.7965  0.4986 -0.9846
  766TIP3   OH223712   3.636   6.590  11.196 -0.1302  0.2815  0.4583
  766TIP3    H123713   3.548   6.556  11.181  0.0544  0.1067 -0.2486
  766TIP3    H223714   3.627   6.645  11.274 -1.3043  1.9053 -0.7457
  767TIP3   OH223715   3.476   0.628  12.193  0.0050  0.2826 -0.4693
  767TIP3    H123716   3.510   0.581  12.270 -1.7479 -0.1697  0.0693
  767TIP3    H223717   3.492   0.567  12.120 -3.3174 -1.8659  0.3797
  768TIP3   OH223718   2.430   4.504  12.887  0.4393 -0.7238  0.0616
  768TIP3    H123719   2.366   4.525  12.820  0.4908 -1.8171 -0.3507
  768TIP3    H223720   2.403   4.555  12.963 -1.8831 -2.3405  0.4026
  769TIP3   OH223721   4.917   1.590  13.074  0.4873 -0.1327 -0.1781
  769TIP3    H123722   4.880   1.674  13.100 -0.7920 -0.2460 -1.5253
  769TIP3    H223723   4.916   1.592  12.978  1.0941 -1.4127 -0.2319
  770TIP3   OH223724   1.879   2.536  11.169  0.3398 -0.3194 -0.3658
  770TIP3    H123725   1.859   2.596  11.096 -1.7552 -0.3433  0.1270
  770TIP3    H223726   1.810   2.470  11.166  0.6295 -0.7371  1.2086
  771TIP3   OH223727   3.934   3.174   3.096 -0.1888  0.5690 -0.3681
  771TIP3    H123728   3.901   3.258   3.128 -0.0276  0.4581  0.0865
  771TIP3    H223729   3.976   3.134   3.171  1.5490  0.9881 -1.0673
  772TIP3   OH223730   4.260   4.476   5.262  0.4913  0.4548  0.2771
  772TIP3    H123731   4.258   4.570   5.276  0.1963  0.5911 -0.6075
  772TIP3    H223732   4.203   4.462   5.186 -1.4226 -0.6885  1.8180
  773TIP3   OH223733   3.189   0.326  16.286 -0.4409  0.1625 -0.0797
  773TIP3    H123734   3.180   0.299  16.194  1.1329 -4.3148  0.8397
  773TIP3    H223735   3.100   0.321  16.320 -0.7335 -0.3414 -0.8759
  774TIP3   OH223736   0.770   5.231   5.778  0.1295  0.9261 -0.1755
  774TIP3    H123737   0.775   5.141   5.810  0.8855  0.7451 -0.7597
  774TIP3    H223738   0.748   5.223   5.686  0.3126  1.3271 -0.2589
  775TIP3   OH223739   0.630   3.353   6.330  0.0558 -0.0184  0.3317
  775TIP3    H123740   0.571   3.427   6.343 -1.7950 -1.6660  1.9100
  775TIP3    H223741   0.672   3.341   6.415  1.3329 -0.0355 -0.2707
  776TIP3   OH223742   1.888   6.327   0.551 -0.0524  0.2928  0.0490
  776TIP3    H123743   1.839   6.252   0.518 -1.5998  1.5242 -0.6048
  776TIP3    H223744   1.977   6.315   0.517 -0.2678 -1.2339 -0.0213
  777TIP3   OH223745   5.827   4.529   1.246 -0.1250  0.1263  0.1028
  777TIP3    H123746   5.906   4.481   1.271 -1.1020 -0.9383  1.3055
  777TIP3    H223747   5.767   4.515   1.319 -0.7997  2.4497  0.0475
  778TIP3   OH223748   3.819   6.079   3.734 -0.3233 -0.1480  0.0918
  778TIP3    H123749   3.817   6.175   3.734  2.3410 -0.0255  0.5281
  778TIP3    H223750   3.806   6.055   3.643  3.1832  0.8940 -0.8272
  779TIP3   OH223751   3.639   1.160  13.320 -0.4631 -0.0821 -0.2938
  779TIP3    H123752   3.672   1.076  13.354  0.4424 -0.4966 -2.0966
  779TIP3    H223753   3.558   1.137  13.275 -1.3847  0.3880  1.0592
  780TIP3   OH223754   2.601   6.712  15.435  0.2684  0.5103 -0.4450
  780TIP3    H123755   2.520   6.713  15.486  0.5351  1.4169 -0.0214
  780TIP3    H223756   2.572   6.719  15.344 -0.2972 -2.6180 -0.6017
  781TIP3   OH223757   4.431   1.807   2.085  0.2499  0.2971 -0.4905
  781TIP3    H123758   4.402   1.804   2.176 -2.3306  0.0271 -1.2582
  781TIP3    H223759   4.487   1.884   2.080 -1.1903  1.4970  0.9076
  782TIP3   OH223760   6.118   3.655   4.442 -0.1724  0.2071  0.3928
  782TIP3    H123761   6.080   3.569   4.420  0.8234 -0.1390 -0.0188
  782TIP3    H223762   6.082   3.714   4.375  1.0922 -0.4025 -0.8757
  783TIP3   OH223763   0.397   0.476   5.648  0.2856 -0.2361  0.2203
  783TIP3    H123764   0.455   0.409   5.612 -0.2361 -1.5651  1.7485
  783TIP3    H223765   0.310   0.453   5.615  0.0276 -0.6334  1.1484
  784TIP3   OH223766   2.533   2.155   1.819  0.2958 -1.0454 -0.4305
  784TIP3    H123767   2.607   2.198   1.776  0.2335 -0.0206  0.4516
  784TIP3    H223768   2.462   2.219   1.814  0.4358 -0.6799  1.6313
  785TIP3   OH223769   6.238   1.853  16.288 -0.4216  0.5926 -0.0704
  785TIP3    H123770   6.208   1.833  16.200  1.5822  0.2924 -0.7464
  785TIP3    H223771   6.300   1.925  16.277 -3.0030  3.2416  1.6167
  786TIP3   OH223772   1.425   3.492  15.484  1.0740  0.7745 -0.1538
  786TIP3    H123773   1.369   3.436  15.538  2.5643 -2.3082 -1.5916
  786TIP3    H223774   1.487   3.530  15.546 -0.7363  1.9574  1.0367
  787TIP3   OH223775   4.222   2.960  15.304 -0.2787 -0.0015  0.4952
  787TIP3    H123776   4.196   2.993  15.390  0.4008  3.1013 -0.3654
  787TIP3    H223777   4.170   3.010  15.242  2.2371  1.0038 -0.9940
  788TIP3   OH223778   0.700   0.079  13.083  0.5350  0.1428  0.4894
  788TIP3    H123779   0.681   0.162  13.126  0.1399  0.3524 -0.0719
  788TIP3    H223780   0.678   0.094  12.991  2.8420  0.2007 -0.1170
  789TIP3   OH223781   1.158   2.341  11.523  0.2186  0.3425  0.2149
  789TIP3    H123782   1.209   2.293  11.588  0.5970  2.1795  1.3516
  789TIP3    H223783   1.211   2.340  11.444  0.0925 -1.2822  0.1172
  790TIP3   OH223784   5.031   1.910  11.249  0.0504  0.3944  0.5820
  790TIP3    H123785   4.939   1.931  11.238  0.0437 -0.8570 -2.6895
  790TIP3    H223786   5.038   1.817  11.227  2.3116  0.8955 -1.2429
  791TIP3   OH223787   4.570   4.052   6.768 -0.0431 -0.3658  0.3078
  791TIP3    H123788   4.623   3.977   6.793  1.3867  0.3530 -0.4359
  791TIP3    H223789   4.625   4.101   6.707 -0.6186  1.6672  1.3308
  792TIP3   OH223790   5.432   3.378  15.838 -0.1555 -0.0089  0.0628
  792TIP3    H123791   5.400   3.366  15.748 -0.0797 -0.2328  0.0665
  792TIP3    H223792   5.420   3.472  15.855 -2.3420 -0.3419  0.6346
  793TIP3   OH223793   1.096   0.998   3.235 -0.5523 -0.2470 -0.2008
  793TIP3    H123794   1.171   0.987   3.177 -0.6716 -1.3676 -0.1632
  793TIP3    H223795   1.093   1.092   3.254 -0.5899  0.1639 -2.1082
  794TIP3   OH223796   0.465   6.165   5.990  0.3611 -0.3506  0.2459
  794TIP3    H123797   0.555   6.174   6.021  1.3600  0.8638 -2.6000
  794TIP3    H223798   0.424   6.250   6.009  0.8091  0.1981 -1.0916
  795TIP3   OH223799   1.829   6.587   5.950  0.1075 -0.3900  0.3639
  795TIP3    H123800   1.832   6.492   5.941 -0.2929 -0.3233 -0.6951
  795TIP3    H223801   1.890   6.607   6.021  0.4096 -1.4084  0.4074
  796TIP3   OH223802   1.576   0.495   4.147  0.0059 -0.3451 -0.0374
  796TIP3    H123803   1.535   0.465   4.065 -0.0575  1.1235 -0.5713
  796TIP3    H223804   1.508   0.545   4.191 -0.2890 -1.9722  1.4540
  797TIP3   OH223805   1.788   0.159   3.031  0.5494 -0.0446  0.0242
  797TIP3    H123806   1.778   0.067   3.056  0.6512 -0.4101 -1.2197
  797TIP3    H223807   1.706   0.183   2.990  0.5543  0.4082  0.2619
  798TIP3   OH223808   4.038   4.415  14.935 -0.1147 -0.3464 -0.0326
  798TIP3    H123809   4.062   4.449  14.849  3.8340 -1.0146  0.5986
  798TIP3    H223810   4.026   4.321  14.920 -2.0356 -0.1019 -0.2302
  799TIP3   OH223811   1.245   2.158   1.399 -0.2590  0.6348  0.0274
  799TIP3    H123812   1.340   2.158   1.412  0.0316  0.2931 -1.9228
  799TIP3    H223813   1.210   2.162   1.488  1.5644  0.1645  0.8246
  800TIP3   OH223814   3.870   4.468  11.401 -0.3781 -0.1990 -0.1845
  800TIP3    H123815   3.957   4.440  11.374 -0.4152 -1.3990  0.8690
  800TIP3    H223816   3.886   4.548  11.452  0.3807 -1.5814  1.8712
  801TIP3   OH223817   4.995   1.919   4.372  0.3098  0.1135 -0.0118
  801TIP3    H123818   4.979   1.826   4.386  0.5183 -0.1789 -1.5209
  801TIP3    H223819   4.937   1.963   4.433  0.6736 -0.9961  1.1847
  802TIP3   OH223820   1.025   4.938  13.418 -0.5109  0.0984  0.5741
  802TIP3    H123821   0.940   4.955  13.458 -0.9134  0.1050 -0.2648
  802TIP3    H223822   1.058   5.024  13.391 -1.0301 -0.0588 -0.6441
  803TIP3   OH223823   5.192   5.856  13.740 -0.1773 -0.1222  0.7424
  803TIP3    H123824   5.246   5.816  13.672 -0.4788 -0.3210  0.6149
  803TIP3    H223825   5.106   5.866  13.699  0.0183  1.1217  0.6039
  804TIP3   OH223826   6.465   5.139  12.998 -0.2655  0.0286  0.0938
  804TIP3    H123827   6.385   5.191  13.013 -1.0168 -1.7470  2.8543
  804TIP3    H223828   6.502   5.126  13.085  2.2932 -0.4508 -0.9865
  805TIP3   OH223829   5.758   0.719  14.552  0.0737 -0.4493  0.7780
  805TIP3    H123830   5.815   0.791  14.578  1.3722 -1.3505  0.5131
  805TIP3    H223831   5.814   0.660  14.501 -1.4876 -0.5559 -0.9384
  806TIP3   OH223832   6.354   0.663   6.700  0.4844 -0.0569  0.2058
  806TIP3    H123833   6.365   0.755   6.725 -0.9681  0.5330 -1.1602
  806TIP3    H223834   6.422   0.648   6.634 -0.5312  0.6991 -1.0823
  807TIP3   OH223835   3.278   4.264   2.761  0.5224  0.0896 -0.4398
  807TIP3    H123836   3.319   4.343   2.727 -0.6951  1.0380  0.2168
  807TIP3    H223837   3.318   4.251   2.847 -1.7297  2.0853  1.0363
  808TIP3   OH223838   4.498   3.840   3.228 -0.2180 -0.1728 -0.2606
  808TIP3    H123839   4.574   3.800   3.184 -0.4542 -1.3619  0.4047
  808TIP3    H223840   4.457   3.893   3.159 -0.1480 -1.4046 -1.2856
  809TIP3   OH223841   4.017   3.530  14.565 -0.6058 -0.5317 -0.1758
  809TIP3    H123842   4.056   3.616  14.582 -0.9027 -0.5851  0.8418
  809TIP3    H223843   3.954   3.518  14.636 -2.8636 -0.2463 -2.0470
  810TIP3   OH223844   5.901   5.403   4.409 -0.0290 -0.9257 -0.2122
  810TIP3    H123845   5.838   5.388   4.339 -0.0492 -2.4633  0.0846
  810TIP3    H223846   5.928   5.315   4.436 -1.2347 -0.5123  2.7973
  811TIP3   OH223847   2.852   2.673   0.833  0.1567 -0.2179 -0.6489
  811TIP3    H123848   2.833   2.602   0.772  0.2733  0.4058 -1.4222
  811TIP3    H223849   2.910   2.634   0.899 -0.3548 -1.0188 -0.6570
  812TIP3   OH223850   0.998   6.257   5.855  0.1307  0.3326 -0.7846
  812TIP3    H123851   0.994   6.183   5.794 -0.4095  0.2775 -0.6818
  812TIP3    H223852   1.028   6.218   5.937  1.3571  0.4911 -1.1403
  813TIP3   OH223853   1.651   0.064  14.523  0.7347  0.5322 -0.1191
  813TIP3    H123854   1.587  -0.007  14.520  0.3480  0.8903 -0.4332
  813TIP3    H223855   1.611   0.130  14.580 -0.2179  1.7427 -2.0840
  814TIP3   OH223856   0.118   2.462  12.175  0.0957 -0.3292  0.0427
  814TIP3    H123857   0.083   2.405  12.244  0.4019  0.9906  1.3327
  814TIP3    H223858   0.170   2.527  12.222 -0.5085  1.2244 -1.3512
  815TIP3   OH223859   2.795   4.686   0.730  0.1092 -0.4090  0.1709
  815TIP3    H123860   2.700   4.692   0.716  0.1947  0.1277 -0.1996
  815TIP3    H223861   2.809   4.725   0.816  0.2315  1.5612 -0.6791
  816TIP3   OH223862   3.142   4.195   0.394 -0.3692  0.7192  0.7335
  816TIP3    H123863   3.112   4.172   0.482  0.9928 -0.8873  0.8263
  816TIP3    H223864   3.192   4.119   0.365 -2.2088  0.4481 -2.1405
  817TIP3   OH223865   0.674   0.456  17.317  0.1108 -0.0229 -0.0747
  817TIP3    H123866   0.669   0.384  17.379 -0.7003 -1.4222 -1.7061
  817TIP3    H223867   0.613   0.522  17.351  0.4598 -0.3117  1.1447
  818TIP3   OH223868   3.387   5.418  11.112  0.7811  0.5726 -0.2510
  818TIP3    H123869   3.462   5.360  11.120 -0.1268 -0.5627  0.3521
  818TIP3    H223870   3.417   5.488  11.055  2.5790  0.6473  0.7148
  819TIP3   OH223871   3.942   1.905  11.048 -0.0140 -0.0499 -0.0133
  819TIP3    H123872   3.849   1.927  11.048 -0.0254 -0.0548  1.0585
  819TIP3    H223873   3.985   1.984  11.014 -0.3655  0.1841  0.0778
  820TIP3   OH223874   4.719   1.260  15.258  0.9442  0.0195 -0.3848
  820TIP3    H123875   4.764   1.282  15.176  1.3600 -0.0580 -0.1813
  820TIP3    H223876   4.659   1.333  15.273 -0.3418 -0.7333 -1.6055
  821TIP3   OH223877   3.152   0.718  14.599 -0.3271  0.5058  0.2915
  821TIP3    H123878   3.161   0.657  14.672  1.5549  1.7025  1.1357
  821TIP3    H223879   3.166   0.804  14.638  1.2699  1.1498 -1.5431
  822TIP3   OH223880   0.753   4.295  14.576 -0.2731  0.0346 -0.6575
  822TIP3    H123881   0.690   4.367  14.585 -0.4762 -0.2869  0.6936
  822TIP3    H223882   0.771   4.268  14.665  0.1105 -1.3383 -1.1310
  823TIP3   OH223883   4.801   4.322  14.479 -0.5624  0.0511  0.0395
  823TIP3    H123884   4.717   4.284  14.455 -1.8943  2.8050  0.0923
  823TIP3    H223885   4.780   4.406  14.519  2.1565  0.2219  1.3270
  824TIP3   OH223886   0.722   0.245   3.066  0.6353 -0.1381  0.2390
  824TIP3    H123887   0.673   0.323   3.092  1.4772  0.1285  1.0889
  824TIP3    H223888   0.770   0.272   2.988  1.3662  0.3983  0.8497
  825TIP3   OH223889   0.640   5.131   0.857  0.5398 -0.3380  0.6616
  825TIP3    H123890   0.707   5.130   0.925  1.0668  0.4337  0.1683
  825TIP3    H223891   0.590   5.050   0.871  0.5414 -0.1139  2.0449
  826TIP3   OH223892   0.887   2.949   3.688  0.3093  0.5216 -0.6699
  826TIP3    H123893   0.890   3.028   3.635 -1.5429  0.3334 -1.1237
  826TIP3    H223894   0.895   2.877   3.624  0.1618  0.3210 -0.4632
  827TIP3   OH223895   4.933   0.487  14.067  0.5341  0.0177  0.8905
  827TIP3    H123896   4.916   0.393  14.063  0.2222  0.1061 -0.1686
  827TIP3    H223897   4.871   0.519  14.133  0.5026 -0.4847  1.1159
  828TIP3   OH223898   1.907   2.291   2.691 -0.0130 -0.1733 -0.3718
  828TIP3    H123899   1.920   2.196   2.696 -0.2786 -0.1851  0.1263
  828TIP3    H223900   1.834   2.309   2.751  0.5227  0.4451  0.1080
  829TIP3   OH223901   1.869   1.961   5.957 -0.4274  0.2253  0.6250
  829TIP3    H123902   1.957   1.956   5.996 -0.5355 -1.1329  0.7560
  829TIP3    H223903   1.828   1.878   5.982 -1.4421  0.4754 -0.1798
  830TIP3   OH223904   1.469   2.552  12.561 -0.3660  0.5078 -0.3341
  830TIP3    H123905   1.522   2.494  12.506  0.2207 -0.4228  1.1594
  830TIP3    H223906   1.524   2.629  12.575  0.5269 -0.3297  0.9675
  831TIP3   OH223907   0.492   5.829   1.220  0.1823  0.3203 -0.2715
  831TIP3    H123908   0.444   5.798   1.143  1.9768 -0.4099 -1.1528
  831TIP3    H223909   0.501   5.751   1.275 -1.4899  0.9347  0.9639
  832TIP3   OH223910   0.023   3.375  13.057  0.1698  0.0578  0.2225
  832TIP3    H123911   0.097   3.321  13.086 -2.4796 -2.8191  2.3868
  832TIP3    H223912   0.005   3.433  13.131 -1.6306 -1.6445  1.2538
  833TIP3   OH223913   0.218   2.076  15.047  0.0584 -0.2348  0.8192
  833TIP3    H123914   0.160   2.092  14.972  0.3570 -1.9033  0.2016
  833TIP3    H223915   0.161   2.036  15.112  0.6610 -2.9275 -0.2015
  834TIP3   OH223916   5.399   4.242  15.230  0.0650  0.1573  0.4066
  834TIP3    H123917   5.437   4.326  15.255 -0.8510  0.7232 -0.0352
  834TIP3    H223918   5.368   4.255  15.141 -1.0767 -0.2843  0.7180
  835TIP3   OH223919   4.806   2.672  13.531  0.4072 -0.3001 -0.3182
  835TIP3    H123920   4.878   2.722  13.494  0.2042 -0.4301 -0.8950
  835TIP3    H223921   4.816   2.584  13.495 -0.0805 -0.2987 -0.4711
  836TIP3   OH223922   6.245   2.734   0.273 -0.2179  0.1960  0.0623
  836TIP3    H123923   6.155   2.702   0.266  0.2550 -0.9625 -1.1374
  836TIP3    H223924   6.286   2.674   0.335 -0.1005  0.3077  0.0917
  837TIP3   OH223925   0.109   5.133   1.380  0.2946 -0.4718 -0.0779
  837TIP3    H123926   0.174   5.196   1.410  0.2667  0.0086 -0.9706
  837TIP3    H223927   0.132   5.051   1.423 -0.6872  0.5106  2.4948
  838TIP3   OH223928   5.096   3.157  14.541 -0.9395 -0.3875  0.1587
  838TIP3    H123929   5.026   3.118  14.489 -0.8173 -1.4453  0.7581
  838TIP3    H223930   5.054   3.180  14.624 -1.1180  1.2363 -0.3422
  839TIP3   OH223931   1.886   0.036   2.086 -0.3638  0.0056 -0.5945
  839TIP3    H123932   1.961   0.049   2.145 -0.6094 -0.0380 -0.2727
  839TIP3    H223933   1.925   0.002   2.006  0.0173  0.4091 -0.5898
  840TIP3   OH223934   2.628   5.267  11.344  0.0890 -0.0739  0.1782
  840TIP3    H123935   2.612   5.283  11.251  1.2568 -2.0485 -0.4169
  840TIP3    H223936   2.723   5.261  11.351  0.0053 -0.1142  1.4822
  841TIP3   OH223937   2.847   5.050  15.499 -0.2628  0.0728  0.3320
  841TIP3    H123938   2.880   5.136  15.523 -0.8567  0.1599  0.8683
  841TIP3    H223939   2.759   5.047  15.536 -0.3793 -0.6322  0.0177
  842TIP3   OH223940   3.095   5.569   6.124 -0.2233  0.3512 -0.4801
  842TIP3    H123941   3.046   5.647   6.149 -4.3134 -1.9725 -0.4248
  842TIP3    H223942   3.107   5.577   6.029  1.1272  1.7832 -0.2461
  843TIP3   OH223943   4.526   3.005  11.470  0.1009  0.2163  0.1116
  843TIP3    H123944   4.601   2.947  11.460 -0.8206 -1.2992  1.4589
  843TIP3    H223945   4.502   3.029  11.381  0.1925 -1.9357 -0.5514
  844TIP3   OH223946   2.084   3.111  11.120 -0.6993  0.2617 -0.8700
  844TIP3    H123947   1.995   3.147  11.114  0.0124  2.0167 -1.5817
  844TIP3    H223948   2.073   3.018  11.104 -2.4259  0.4233 -0.8277
  845TIP3   OH223949   3.453   6.536   2.147  0.0040 -0.7417  0.6168
  845TIP3    H123950   3.399   6.523   2.069  0.1392 -1.1116  0.5811
  845TIP3    H223951   3.423   6.619   2.185  1.2372  0.4905 -0.9167
  846TIP3   OH223952   5.818   3.965  15.087  0.3193  0.3250  0.2822
  846TIP3    H123953   5.817   3.870  15.074 -1.2596  0.2133  1.0144
  846TIP3    H223954   5.727   3.992  15.074  1.1898  2.2454 -3.1956
  847TIP3   OH223955   3.964   6.138  13.265  0.4576  0.4864  0.1494
  847TIP3    H123956   4.053   6.109  13.248  0.7008  0.8860  0.7130
  847TIP3    H223957   3.948   6.116  13.357 -0.0783  0.2862  0.0179
  848TIP3   OH223958   4.864   4.131  10.757 -0.0214 -0.4182 -0.3378
  848TIP3    H123959   4.894   4.179  10.834 -0.2575 -1.1910  0.2535
  848TIP3    H223960   4.813   4.059  10.793  1.4893 -1.9522 -1.1176
  849TIP3   OH223961   5.927   2.534   0.631  0.1016  0.1812  0.5572
  849TIP3    H123962   5.956   2.506   0.545  0.1761  1.0324  0.2977
  849TIP3    H223963   5.888   2.455   0.670 -0.5781 -0.0414 -0.5226
  850TIP3   OH223964   2.748   3.515  11.991  0.2242  0.2725 -0.1178
  850TIP3    H123965   2.682   3.585  11.997  0.3545  0.4382 -0.5733
  850TIP3    H223966   2.697   3.436  11.972 -0.0734 -0.0410  1.7966
  851TIP3   OH223967   4.398   1.809  14.096  0.3050  0.2797 -0.1684
  851TIP3    H123968   4.355   1.819  14.011  2.5467  2.3625 -1.1736
  851TIP3    H223969   4.409   1.899  14.127  3.0367 -0.1748  0.4208
  852TIP3   OH223970   4.116   4.035   1.781 -0.2560  0.5043  0.5679
  852TIP3    H123971   4.143   4.054   1.691 -2.7887  0.7848 -0.2227
  852TIP3    H223972   4.156   3.951   1.802 -0.2353  0.0659 -1.1231
  853TIP3   OH223973   4.724   1.428  13.512  0.2067 -0.0378  0.2093
  853TIP3    H123974   4.688   1.346  13.479 -0.1925  0.8051 -1.5803
  853TIP3    H223975   4.790   1.454  13.447  1.1619  0.4817  1.3502
  854TIP3   OH223976   1.099   5.192   3.375  0.4077  0.1780 -0.4409
  854TIP3    H123977   1.006   5.195   3.396  0.1040  2.4910 -1.7318
  854TIP3    H223978   1.134   5.274   3.411  1.7496 -0.2440 -0.7249
  855TIP3   OH223979   4.568   1.580   1.272 -0.0918  0.5252  0.1248
  855TIP3    H123980   4.475   1.556   1.267 -0.1456  0.5779  0.8047
  855TIP3    H223981   4.610   1.525   1.206 -0.5124  0.0100  0.2774
  856TIP3   OH223982   0.703   2.173  12.991  0.2423  0.1344 -0.3158
  856TIP3    H123983   0.788   2.189  13.033 -0.0778  0.1743  0.3326
  856TIP3    H223984   0.684   2.081  13.010  0.5549 -0.1385 -1.2459
  857TIP3   OH223985   1.394   2.650  14.794 -0.1748 -0.3184 -0.1064
  857TIP3    H123986   1.464   2.714  14.807  0.5106 -0.8499 -1.0214
  857TIP3    H223987   1.314   2.694  14.823  0.6250  0.0566  1.6713
  858TIP3   OH223988   2.189   5.843  13.436 -0.1114  0.2985  0.8412
  858TIP3    H123989   2.240   5.874  13.511 -0.0284 -0.1333  0.9655
  858TIP3    H223990   2.165   5.923  13.389  0.2853  0.5363  1.0340
  859TIP3   OH223991   3.158   5.986   3.007 -0.1604 -0.2499 -0.3721
  859TIP3    H123992   3.096   5.922   3.042 -1.0661 -0.0775 -1.5658
  859TIP3    H223993   3.102   6.057   2.974  0.6886  0.0807 -1.1518
  860TIP3   OH223994   2.269   6.769  13.680 -0.3301  0.1760 -0.4122
  860TIP3    H123995   2.258   6.833  13.750 -0.6735 -0.8251  0.4738
  860TIP3    H223996   2.193   6.712  13.688 -0.4530  0.1310 -1.7110
  861TIP3   OH223997   2.479   3.832  10.985 -0.0114  0.5505 -0.3770
  861TIP3    H123998   2.551   3.770  10.995 -0.2011  0.3292 -0.3859
  861TIP3    H223999   2.411   3.783  10.940 -0.1533  0.7728 -0.4048
  862TIP3   OH224000   1.582   3.286   3.704  0.1426  0.0881 -0.3517
  862TIP3    H124001   1.582   3.331   3.788  1.7115 -0.5198  0.0120
  862TIP3    H224002   1.494   3.250   3.696  0.0202 -0.0092  1.1228
  863TIP3   OH224003   5.781   1.601   5.704 -1.0282  0.0380  0.1572
  863TIP3    H124004   5.768   1.677   5.646  0.0309 -0.3248 -0.5767
  863TIP3    H224005   5.695   1.587   5.743 -1.9398 -0.0492 -1.7546
  864TIP3   OH224006   0.331   1.772   6.020 -0.7870 -0.2350 -0.1940
  864TIP3    H124007   0.303   1.781   5.929 -1.8369  0.5301  0.1804
  864TIP3    H224008   0.252   1.744   6.067 -0.8283  1.3885  0.7968
  865TIP3   OH224009   3.364   1.443  11.723  0.1984  0.7354  0.1512
  865TIP3    H124010   3.332   1.359  11.757 -0.0421  0.5503 -0.5168
  865TIP3    H224011   3.328   1.508  11.783  2.0425  0.2568  1.8876
  866TIP3   OH224012   5.967   4.580   3.074 -0.7637 -0.0414 -0.5317
  866TIP3    H124013   5.948   4.671   3.094 -2.4141 -0.7172  1.2658
  866TIP3    H224014   6.022   4.550   3.146  2.9206  0.3706 -2.8923
  867TIP3   OH224015   3.821   1.080   5.241 -0.0393  0.6451 -0.2176
  867TIP3    H124016   3.757   1.151   5.238  0.9513  1.6232  0.7810
  867TIP3    H224017   3.905   1.124   5.250  0.7751 -0.6169 -1.3338
  868TIP3   OH224018   6.115   4.837  14.482  0.6950  1.0842 -0.2655
  868TIP3    H124019   6.092   4.812  14.571  3.8468  0.2435  0.4317
  868TIP3    H224020   6.060   4.914  14.464 -1.4426  0.1098  1.5904
  869TIP3   OH224021   1.891   2.148   3.296  0.3654 -0.3232  0.2398
  869TIP3    H124022   1.866   2.069   3.343  0.3379 -0.0015  0.7689
  869TIP3    H224023   1.840   2.218   3.336 -0.3301 -0.1762 -0.8535
  870TIP3   OH224024   3.556   1.852   0.315  0.1509 -0.3939  0.1418
  870TIP3    H124025   3.629   1.912   0.302 -0.1624 -0.2093 -0.8105
  870TIP3    H224026   3.503   1.860   0.236 -0.7997 -0.6774  0.7339
  871TIP3   OH224027   1.906   0.271  11.527  0.0274  0.4367  0.4631
  871TIP3    H124028   1.822   0.314  11.547 -0.6655 -0.4756 -0.3794
  871TIP3    H224029   1.882   0.181  11.506  1.2213  0.1889  0.1170
  872TIP3   OH224030   1.018   2.051  11.766 -0.8027 -0.2058  0.1667
  872TIP3    H124031   0.981   2.135  11.738  0.4737 -0.5651 -3.0484
  872TIP3    H224032   1.093   2.074  11.820 -1.1144  0.6700  0.2469
  873TIP3   OH224033   2.444   6.273   4.077 -0.3009 -0.8732 -0.1508
  873TIP3    H124034   2.511   6.322   4.030 -1.1406 -1.0516 -1.6149
  873TIP3    H224035   2.462   6.181   4.056 -0.9092 -0.9276 -0.4784
  874TIP3   OH224036   5.483   3.341  15.075  0.6659  0.3603  0.0549
  874TIP3    H124037   5.473   3.247  15.057 -0.9309  0.7818 -1.4990
  874TIP3    H224038   5.572   3.349  15.109  1.5129 -1.4936 -1.5130
  875TIP3   OH224039   4.407   0.500  12.191 -0.2964 -0.4151  0.3271
  875TIP3    H124040   4.458   0.563  12.140 -1.5020 -0.9005 -1.6230
  875TIP3    H224041   4.451   0.495  12.275  3.2274 -1.2005 -1.3814
  876TIP3   OH224042   2.718   4.635   4.836  0.2596 -0.7416  0.1736
  876TIP3    H124043   2.628   4.604   4.843  0.4823 -1.4765 -0.1651
  876TIP3    H224044   2.772   4.557   4.849  0.9088 -0.0077  2.2874
  877TIP3   OH224045   0.107   1.894   4.141 -0.0772  0.1986 -0.0915
  877TIP3    H124046   0.029   1.869   4.092 -0.2674  0.2625  0.1752
  877TIP3    H224047   0.176   1.901   4.075  0.1895 -1.8719 -0.0721
  878TIP3   OH224048   2.055   2.411  16.902 -0.5366  0.3542  0.3814
  878TIP3    H124049   1.970   2.426  16.942 -0.4889 -1.6489  1.3128
  878TIP3    H224050   2.039   2.345  16.835  0.4846 -1.2699  1.6492
  879TIP3   OH224051   3.189   4.737   1.804 -0.0902  0.1276  0.0031
  879TIP3    H124052   3.144   4.663   1.763 -1.6176  0.5021  0.9385
  879TIP3    H224053   3.130   4.766   1.873  1.9963  0.0645  1.9335
  880TIP3   OH224054   5.327   5.387   3.363 -0.7648  0.3225  0.7835
  880TIP3    H124055   5.407   5.385   3.415 -0.7814 -1.7035  0.8044
  880TIP3    H224056   5.342   5.457   3.299  1.7198 -1.0203 -0.2501
  881TIP3   OH224057   4.770   3.288  12.772  0.3284  0.5240 -0.6482
  881TIP3    H124058   4.718   3.279  12.693  1.3768  0.0569 -1.2969
  881TIP3    H224059   4.710   3.263  12.843  0.0863 -1.4793 -1.4976
  882TIP3   OH224060   4.356   1.098  16.919  0.2049 -0.3146 -0.1647
  882TIP3    H124061   4.384   1.040  16.990  0.0343 -1.4362 -0.9776
  882TIP3    H224062   4.325   1.177  16.963 -0.7103 -1.3214  1.0750
  883TIP3   OH224063   4.016   4.372  13.246  0.0457  0.3524 -0.0785
  883TIP3    H124064   4.075   4.300  13.221  0.8942 -0.2247  3.1397
  883TIP3    H224065   4.049   4.447  13.197  0.5542 -0.9327 -1.8281
  884TIP3   OH224066   2.001   0.657  15.241 -0.0755  0.0260 -0.8194
  884TIP3    H124067   1.976   0.750  15.242  0.4150  0.1783  1.1869
  884TIP3    H224068   2.093   0.657  15.218  0.0992  0.1057 -0.1407
  885TIP3   OH224069   3.630   1.526  12.882  0.3018  0.3932 -0.3505
  885TIP3    H124070   3.663   1.464  12.818  0.0811  1.5583 -1.6240
  885TIP3    H224071   3.545   1.554  12.848 -1.1323 -0.9980  1.8332
  886TIP3   OH224072   4.745   5.559  13.189  0.9682  0.7262  0.2603
  886TIP3    H124073   4.689   5.541  13.265  1.2522  1.7977  0.7372
  886TIP3    H224074   4.741   5.654  13.178  2.3758  0.7821  0.0571
  887TIP3   OH224075   0.425   3.834   4.289 -0.1512  0.0173 -0.2127
  887TIP3    H124076   0.507   3.842   4.337 -0.0562 -1.4311 -0.0722
  887TIP3    H224077   0.446   3.863   4.200  0.0329  1.3637  0.2579
  888TIP3   OH224078   6.067   3.127   4.057 -0.4288  0.3205  0.2499
  888TIP3    H124079   5.992   3.076   4.027 -0.6834  1.1898 -0.6695
  888TIP3    H224080   6.050   3.141   4.150 -0.7001 -0.6595  0.3657
  889TIP3   OH224081   6.766   4.723  16.545  0.2772  0.3122 -0.1388
  889TIP3    H124082   6.771   4.803  16.493  1.2028 -1.1642 -2.4954
  889TIP3    H224083   6.729   4.751  16.629 -0.6043  2.9738 -1.2995
  890TIP3   OH224084   4.003   5.552   0.038  0.0600  0.0663 -0.9963
  890TIP3    H124085   3.987   5.612  -0.035  0.4713 -0.2356 -1.3411
  890TIP3    H224086   4.041   5.474  -0.003 -1.3254 -0.8145 -0.6747
  891TIP3   OH224087   0.932   0.260   0.824  0.2631 -0.5694  0.2328
  891TIP3    H124088   0.968   0.297   0.743  0.3354  1.8257  1.2884
  891TIP3    H224089   0.867   0.325   0.853  0.7961 -0.9833  2.4997
  892TIP3   OH224090   5.799   5.828  12.172  0.5150  0.8192 -0.4889
  892TIP3    H124091   5.732   5.891  12.145 -0.0493  0.3131 -0.3007
  892TIP3    H224092   5.750   5.750  12.196  1.3187 -0.9027 -3.8378
  893TIP3   OH224093   4.729   5.896   1.499 -0.0867  0.0116  0.2023
  893TIP3    H124094   4.778   5.846   1.434  0.2318  1.4725 -0.7368
  893TIP3    H224095   4.661   5.836   1.529  0.1075 -0.8878 -1.0811
  894TIP3   OH224096   4.153   2.384   1.089 -0.2390 -0.0240 -0.3139
  894TIP3    H124097   4.120   2.411   1.004 -2.8770  0.2685  0.7190
  894TIP3    H224098   4.129   2.455   1.148  2.8156  0.4800  0.5303
  895TIP3   OH224099   2.493   1.598  17.170  0.1356 -0.1311 -0.2861
  895TIP3    H124100   2.418   1.550  17.205 -1.4065  1.2117 -1.6065
  895TIP3    H224101   2.473   1.690  17.187  2.7622  0.1795  1.6771
  896TIP3   OH224102   1.416   5.863   0.358  0.4744 -0.9945 -0.2410
  896TIP3    H124103   1.429   5.769   0.356  0.6686 -0.9740 -0.0025
  896TIP3    H224104   1.415   5.890   0.266 -1.2757 -1.4535 -0.3943
  897TIP3   OH224105   6.230   0.950  14.152 -0.3882 -0.1934  0.1128
  897TIP3    H124106   6.234   0.977  14.244  1.0799  2.3294 -0.5875
  897TIP3    H224107   6.296   0.881  14.144 -1.5704 -1.5221  1.1892
  898TIP3   OH224108   5.735   3.784  14.500 -0.3514  0.3973  0.7521
  898TIP3    H124109   5.723   3.872  14.464 -0.5524  0.6043  1.3247
  898TIP3    H224110   5.649   3.761  14.536 -1.0446 -1.0298 -1.5557
  899TIP3   OH224111   6.691   3.403  13.881  0.0780 -0.1635  0.1773
  899TIP3    H124112   6.644   3.461  13.942  0.7059  2.3830 -1.6066
  899TIP3    H224113   6.628   3.334  13.860 -1.0272  0.3216  1.7120
  900TIP3   OH224114   3.519   2.973   2.967  0.1071  0.3347  0.4580
  900TIP3    H124115   3.476   3.003   2.887  3.5299  0.6901 -1.4424
  900TIP3    H224116   3.507   3.046   3.029  0.7993  1.9012 -1.1445
  901TIP3   OH224117   1.754   0.207  13.373  0.4064 -0.7471  0.3077
  901TIP3    H124118   1.778   0.122  13.335  0.6914 -0.7825  0.5709
  901TIP3    H224119   1.661   0.197  13.396  0.1464 -0.6250 -0.6561
  902TIP3   OH224120   5.389   3.417   4.905 -0.0537  0.3979 -0.4089
  902TIP3    H124121   5.429   3.386   4.986  1.6491 -1.8091 -1.9823
  902TIP3    H224122   5.306   3.456   4.933 -0.3014 -1.7193  2.2287
  903TIP3   OH224123   1.238   6.369  16.793 -0.0464  0.3285 -0.0953
  903TIP3    H124124   1.261   6.318  16.870  1.1255 -0.0569 -0.6760
  903TIP3    H224125   1.298   6.444  16.794 -0.2802  0.5275 -0.4292
  904TIP3   OH224126   3.362   0.958  11.109  0.1625 -0.4004  0.5501
  904TIP3    H124127   3.381   0.937  11.018  0.2077  1.9297 -0.0454
  904TIP3    H224128   3.357   0.873  11.153  1.1288 -1.5371 -1.4102
  905TIP3   OH224129   6.762   1.097  15.724 -0.9199  1.0368  1.0698
  905TIP3    H124130   6.751   1.003  15.741  0.2313  0.6684 -0.0977
  905TIP3    H224131   6.700   1.116  15.654 -1.4206  1.2508  1.5584
  906TIP3   OH224132   0.966   0.692   0.813 -0.0258 -0.1839  0.3407
  906TIP3    H124133   1.050   0.736   0.815  0.0002 -0.2260  0.2039
  906TIP3    H224134   0.923   0.726   0.735  0.2195 -0.8093 -0.0712
  907TIP3   OH224135   4.543   4.698  16.238 -0.2610  0.3916 -0.2919
  907TIP3    H124136   4.593   4.655  16.308 -0.0517  0.8240 -0.1712
  907TIP3    H224137   4.603   4.764  16.204 -0.5489  0.5276 -0.5345
  908TIP3   OH224138   2.749   0.326   4.884  0.1221 -0.0651  0.2716
  908TIP3    H124139   2.693   0.352   4.811 -0.1208  1.2583  0.9086
  908TIP3    H224140   2.836   0.357   4.861  0.2914 -0.7029  0.0183
  909TIP3   OH224141   2.826   1.716  13.595 -0.3836 -0.5268  0.0468
  909TIP3    H124142   2.848   1.808  13.612 -0.8023 -0.3531 -0.3296
  909TIP3    H224143   2.895   1.666  13.639 -0.5343 -0.0486  0.8517
  910TIP3   OH224144   0.645   2.935   1.129 -0.2624 -0.1065 -0.3502
  910TIP3    H124145   0.582   2.875   1.169  0.4962 -0.3411  0.5356
  910TIP3    H224146   0.593   2.988   1.069 -1.3753  0.0165  0.6865
  911TIP3   OH224147   4.813   2.824   0.734 -0.1171  0.4606  0.6692
  911TIP3    H124148   4.756   2.892   0.770 -0.0308 -0.0752  1.8668
  911TIP3    H224149   4.822   2.760   0.805 -0.5947 -1.0508 -0.5705
  912TIP3   OH224150   4.400   4.826   0.537  0.2559  0.1001 -0.4852
  912TIP3    H124151   4.459   4.855   0.606  0.7839 -0.9658 -0.4747
  912TIP3    H224152   4.323   4.793   0.584  0.0157  0.6767 -0.4668
  913TIP3   OH224153   5.445   0.042   5.293  0.5149 -0.0120 -0.2155
  913TIP3    H124154   5.483  -0.044   5.313  1.2059 -0.3514 -2.7336
  913TIP3    H224155   5.507   0.104   5.332 -0.7377 -0.5265  2.9374
  914TIP3   OH224156   4.160   3.556   2.440 -0.1856  0.1986  0.3640
  914TIP3    H124157   4.118   3.520   2.362  0.6371 -2.8411  1.1751
  914TIP3    H224158   4.250   3.573   2.413 -0.7083  2.3343 -0.1652
  915TIP3   OH224159   3.098   4.771   6.163  0.3061  0.1421  0.1401
  915TIP3    H124160   3.051   4.811   6.235 -0.0484  3.8706 -1.9012
  915TIP3    H224161   3.191   4.783   6.185  0.1993  1.1199  0.1039
  916TIP3   OH224162   4.722   4.441  10.623  0.2723 -0.6922  0.0983
  916TIP3    H124163   4.631   4.421  10.644 -1.0232  2.1462 -2.1879
  916TIP3    H224164   4.745   4.377  10.555  0.1785 -1.6776  0.9690
  917TIP3   OH224165   5.502   5.239   3.149  0.2593 -0.7653  0.1501
  917TIP3    H124166   5.506   5.184   3.228 -1.0994 -0.7511  0.2504
  917TIP3    H224167   5.533   5.325   3.179  0.1187 -0.8594  0.5786
  918TIP3   OH224168   3.549   5.469   0.273 -0.1849 -0.7549  0.3687
  918TIP3    H124169   3.620   5.487   0.334 -0.1650 -0.7578  0.3461
  918TIP3    H224170   3.536   5.374   0.279  0.3615 -0.8762 -0.2393
  919TIP3   OH224171   3.608   6.031   1.244  0.1783  0.1185 -0.7913
  919TIP3    H124172   3.615   6.098   1.176  1.7805  1.3823  0.5150
  919TIP3    H224173   3.639   5.951   1.202  0.5772  0.7496 -1.7324
  920TIP3   OH224174   1.563   3.174   1.114 -0.1742 -0.1888  0.5376
  920TIP3    H124175   1.628   3.218   1.168  0.2025  0.2695 -0.2713
  920TIP3    H224176   1.556   3.228   1.035 -2.4676  0.4798  1.1259
  921TIP3   OH224177   3.324   0.511  11.750 -0.2655  0.2439 -0.1972
  921TIP3    H124178   3.372   0.594  11.752 -0.3090  0.3426 -1.8580
  921TIP3    H224179   3.387   0.448  11.716 -0.8522  0.0545 -0.9524
  922TIP3   OH224180   6.356   4.002   3.339  0.1672 -0.6454  0.0678
  922TIP3    H124181   6.292   4.009   3.410  0.5145 -2.2106  0.5651
  922TIP3    H224182   6.308   3.962   3.267  0.2604 -0.6138 -0.0129
  923TIP3   OH224183   1.920   4.664  14.029 -0.3504  0.4758  0.3905
  923TIP3    H124184   1.987   4.614  14.074 -0.9026 -1.1346 -0.4872
  923TIP3    H224185   1.959   4.750  14.014  2.1249 -0.8670 -1.4570
  924TIP3   OH224186   5.629   1.405   4.101  0.9730  0.1448 -0.7897
  924TIP3    H124187   5.642   1.381   4.193  0.4140  3.1905  0.1742
  924TIP3    H224188   5.703   1.462   4.081 -0.1516  1.4138 -1.4559
  925TIP3   OH224189   6.262   0.029  11.782 -0.1014 -0.4159  0.2988
  925TIP3    H124190   6.349   0.057  11.752  0.0576 -0.2320  0.9025
  925TIP3    H224191   6.201   0.067  11.719  0.2807 -0.9798 -0.4333
  926TIP3   OH224192   1.890   4.533  11.986 -0.3994 -0.6539 -0.7615
  926TIP3    H124193   1.912   4.463  12.048  0.1821  0.4226  0.2747
  926TIP3    H224194   1.818   4.580  12.027  0.5192  0.5610 -0.5087
  927TIP3   OH224195   1.777   0.141  14.258  0.6889  0.1887 -0.0420
  927TIP3    H124196   1.711   0.098  14.204  2.1017 -0.9152 -0.9815
  927TIP3    H224197   1.744   0.133  14.348 -0.3117 -0.5845 -0.4616
  928TIP3   OH224198   4.179   1.626  16.622 -0.2765 -0.3245 -0.5365
  928TIP3    H124199   4.120   1.566  16.668  0.1064  0.8530  1.6018
  928TIP3    H224200   4.197   1.695  16.686  2.0481  0.2456 -1.7244
  929TIP3   OH224201   3.252   4.641   2.241 -0.5814 -0.4970 -0.4818
  929TIP3    H124202   3.219   4.593   2.317  0.4510 -0.2310  0.1644
  929TIP3    H224203   3.342   4.665   2.266 -1.3774  2.7066 -0.2770
  930TIP3   OH224204   5.591   2.499  14.209 -0.1904  0.4318 -0.0006
  930TIP3    H124205   5.566   2.584  14.172  0.4194  0.7016  0.1933
  930TIP3    H224206   5.514   2.471  14.258 -0.6075  0.5928 -0.5558
  931TIP3   OH224207   0.896   0.752  13.393 -0.2225 -0.0360  0.2443
  931TIP3    H124208   0.979   0.752  13.344  0.4297  1.8945  1.2648
  931TIP3    H224209   0.902   0.827  13.452 -1.9606 -0.9162  1.6547
  932TIP3   OH224210   2.142   0.568   3.904 -0.0110  0.4622 -0.1787
  932TIP3    H124211   2.225   0.531   3.874  0.6199  0.5697  1.3221
  932TIP3    H224212   2.146   0.561   3.999 -1.1152  1.7724  0.0026
  933TIP3   OH224213   5.670   3.710  11.323  0.1670  0.0802 -0.0978
  933TIP3    H124214   5.670   3.800  11.289 -0.2165  0.4527  0.8322
  933TIP3    H224215   5.676   3.721  11.418 -1.4037 -0.8314  0.1427
  934TIP3   OH224216   6.323   3.092   3.373 -0.2515 -0.4433  0.6034
  934TIP3    H124217   6.240   3.066   3.414 -0.8061 -2.3750 -1.5351
  934TIP3    H224218   6.329   3.186   3.390 -1.9328 -0.5809  2.3974
  935TIP3   OH224219   1.355   2.689  15.485  0.2139  0.2401 -0.1209
  935TIP3    H124220   1.428   2.702  15.425  1.0197  0.1180  0.8049
  935TIP3    H224221   1.281   2.730  15.442  0.7873  0.1960 -1.1674
  936TIP3   OH224222   0.680   4.629  17.012  0.7273 -0.1106 -0.0327
  936TIP3    H124223   0.732   4.622  17.092  0.4000  1.1044  0.3192
  936TIP3    H224224   0.714   4.708  16.969 -0.9274  0.8548  0.3216
  937TIP3   OH224225   1.192   2.810   4.702 -0.5010 -0.1560 -0.1025
  937TIP3    H124226   1.205   2.797   4.608  1.0850 -2.7334  0.3554
  937TIP3    H224227   1.098   2.799   4.716 -0.8190  0.7034 -1.4084
  938TIP3   OH224228   4.345   5.265   6.642  0.2363  0.4579  0.6878
  938TIP3    H124229   4.374   5.352   6.614  0.8659 -0.3821 -1.4028
  938TIP3    H224230   4.253   5.261   6.615  0.7478 -0.2233 -1.0305
  939TIP3   OH224231   5.403   2.649  12.814 -0.0591 -0.4386 -0.6531
  939TIP3    H124232   5.320   2.617  12.780 -0.1950 -0.8434  0.0417
  939TIP3    H224233   5.428   2.719  12.754 -1.0617 -0.0957 -0.6884
  940TIP3   OH224234   0.273   1.798  16.705  0.5676 -0.2017 -0.4468
  940TIP3    H124235   0.197   1.749  16.675  1.0175 -1.1858 -0.0351
  940TIP3    H224236   0.248   1.890  16.698 -0.7863 -0.5209  0.0163
  941TIP3   OH224237   6.683   5.414  11.464 -0.2623 -0.0626 -0.2587
  941TIP3    H124238   6.677   5.403  11.369 -0.7095  1.3584 -0.4117
  941TIP3    H224239   6.596   5.444  11.491 -0.0153 -0.0424  0.5407
  942TIP3   OH224240   5.525   3.805  11.825 -0.3515  0.5625 -0.0914
  942TIP3    H124241   5.436   3.784  11.856  0.5758  0.0773  2.5437
  942TIP3    H224242   5.582   3.753  11.882  1.6333  0.6385 -1.9175
  943TIP3   OH224243   5.311   6.367   3.265 -0.7068  0.1696 -0.1929
  943TIP3    H124244   5.384   6.307   3.280  0.3946  1.4998 -0.0366
  943TIP3    H224245   5.280   6.390   3.352 -1.6031 -0.6971 -0.2635
  944TIP3   OH224246   3.807   3.957   3.818  0.0078  0.0412 -0.3421
  944TIP3    H124247   3.880   3.993   3.868  0.4725 -1.3956  0.0892
  944TIP3    H224248   3.777   3.883   3.871 -0.9912 -0.1062 -1.0890
  945TIP3   OH224249   5.386   1.889  12.731  1.0260 -0.2467  0.2178
  945TIP3    H124250   5.361   1.811  12.681  0.7625  0.3471 -0.5888
  945TIP3    H224251   5.472   1.913  12.697  0.4627  0.6744 -0.5874
  946TIP3   OH224252   6.562   3.524  17.082 -0.2782  0.1767  0.3925
  946TIP3    H124253   6.488   3.510  17.141 -0.2871 -0.8231  0.1604
  946TIP3    H224254   6.531   3.591  17.021 -2.0311 -2.0117 -1.3370
  947TIP3   OH224255   3.136   4.023  12.141 -0.8869 -0.1315  0.7650
  947TIP3    H124256   3.062   4.023  12.080 -1.3985 -0.7082  1.3721
  947TIP3    H224257   3.193   4.093  12.110 -0.2229 -1.5569 -1.4638
  948TIP3   OH224258   6.769   6.080  12.637  0.1403 -0.8303  0.3145
  948TIP3    H124259   6.776   6.018  12.564 -0.0694  0.4243 -0.8113
  948TIP3    H224260   6.852   6.129  12.635 -0.7371  0.7065 -0.5216
  949TIP3   OH224261   3.861   6.161   1.996 -0.4353 -0.2801  0.2342
  949TIP3    H124262   3.805   6.171   1.920 -1.4167  0.2446  0.9999
  949TIP3    H224263   3.945   6.198   1.969 -0.6329 -0.5106 -0.7291
  950TIP3   OH224264   1.459   4.344  12.103  0.4926  0.3996  0.4912
  950TIP3    H124265   1.500   4.304  12.027 -0.1381  1.1186 -0.2464
  950TIP3    H224266   1.523   4.332  12.174  0.5047 -1.5104  0.2138
  951TIP3   OH224267   2.693   1.801   6.385 -0.5493  0.4891 -0.0285
  951TIP3    H124268   2.601   1.777   6.399 -0.3688 -0.1820  0.0429
  951TIP3    H224269   2.698   1.893   6.409 -1.3035  0.6496 -0.4652
  952TIP3   OH224270   2.249   6.621  14.741 -0.9966  0.5780 -0.0860
  952TIP3    H124271   2.195   6.549  14.773 -2.4626  1.9565  0.6754
  952TIP3    H224272   2.299   6.583  14.668 -2.1034 -1.0610 -0.0381
  953TIP3   OH224273   3.530   4.083   2.092  0.1389  0.1375  0.7954
  953TIP3    H124274   3.599   4.039   2.143  0.0494  0.1865  0.9562
  953TIP3    H224275   3.543   4.176   2.109 -0.7218  0.0831  1.7811
  954TIP3   OH224276   2.628   1.406   2.208  0.1501  0.0987  0.1211
  954TIP3    H124277   2.687   1.357   2.151  1.1020  0.9860  0.3145
  954TIP3    H224278   2.561   1.442   2.149  1.3239  1.3121 -0.5300
  955TIP3   OH224279   0.758   5.232  11.736 -0.2628  0.0399  0.0664
  955TIP3    H124280   0.849   5.225  11.706 -0.7243 -1.9042 -1.0164
  955TIP3    H224281   0.752   5.320  11.775  1.6529  0.8017 -1.2441
  956TIP3   OH224282   1.445   3.087  13.571 -0.2764 -0.3855  0.1695
  956TIP3    H124283   1.533   3.049  13.580 -0.1489 -0.0532  0.3265
  956TIP3    H224284   1.422   3.072  13.479  0.4023  0.5183 -0.1540
  957TIP3   OH224285   1.039   1.921   0.318 -0.0557 -0.4697  0.1596
  957TIP3    H124286   1.111   1.878   0.364  0.1518 -0.6054 -0.2832
  957TIP3    H224287   0.966   1.918   0.380  0.1373 -0.8976  0.3750
  958TIP3   OH224288   2.253   5.599   0.631 -0.0036 -0.5822  0.0092
  958TIP3    H124289   2.328   5.652   0.658  0.0584 -0.7442  0.1518
  958TIP3    H224290   2.271   5.512   0.665 -0.1688 -0.6657 -0.1152
  959TIP3   OH224291   3.305   6.541   0.530 -0.2586 -0.3885 -0.4326
  959TIP3    H124292   3.394   6.560   0.501 -0.1298 -1.1344 -0.5638
  959TIP3    H224293   3.305   6.560   0.624 -0.3851  1.0348 -0.7032
  960TIP3   OH224294   3.569   1.024  16.391  0.0460 -0.0788 -0.1755
  960TIP3    H124295   3.608   1.077  16.460 -0.2742 -0.1523  0.0675
  960TIP3    H224296   3.477   1.014  16.418  0.5024 -2.3604  0.7994
  961TIP3   OH224297   6.472   1.415  13.279 -0.8876 -0.4467 -0.4179
  961TIP3    H124298   6.434   1.500  13.259 -0.8796 -0.4416 -0.4128
  961TIP3    H224299   6.556   1.436  13.320 -0.6557 -0.4667 -0.8821
  962TIP3   OH224300   3.638   6.066   2.568 -0.3158  0.4045  0.2783
  962TIP3    H124301   3.645   6.115   2.649  1.8300 -0.3316  0.5833
  962TIP3    H224302   3.622   5.976   2.596  0.4066  0.1529 -0.0903
  963TIP3   OH224303   6.382   2.679   3.826 -0.2658 -0.4930  0.7818
  963TIP3    H124304   6.427   2.763   3.823  0.0675 -0.6833 -1.4932
  963TIP3    H224305   6.294   2.699   3.795  0.7229 -1.3874 -3.0792
  964TIP3   OH224306   4.546   2.057  11.360 -0.2150  0.0214 -0.1571
  964TIP3    H124307   4.628   2.099  11.387  0.4872  0.7361 -3.0432
  964TIP3    H224308   4.486   2.130  11.346 -1.0464 -0.4363  0.8538
  965TIP3   OH224309   0.967   1.669  10.980 -0.0433 -0.2367  0.3892
  965TIP3    H124310   0.891   1.710  11.020  0.1296  0.4967 -0.0173
  965TIP3    H224311   0.987   1.723  10.904  1.3341  0.0370  0.9032
  966TIP3   OH224312   5.617   5.409   0.569  0.1988 -0.0553 -0.0375
  966TIP3    H124313   5.665   5.359   0.635 -0.3991 -1.4825 -0.6459
  966TIP3    H224314   5.543   5.447   0.617  0.4318 -0.0975  0.3587
  967TIP3   OH224315   1.104   2.372  12.774  0.3839 -0.0219 -0.4253
  967TIP3    H124316   1.164   2.447  12.774  0.7310 -0.2971 -0.9110
  967TIP3    H224317   1.042   2.392  12.844  2.4660 -0.8498  1.7920
  968TIP3   OH224318   3.179   1.868  14.325 -0.3947 -0.4769 -0.5538
  968TIP3    H124319   3.094   1.845  14.364 -0.2325  0.0947  0.1555
  968TIP3    H224320   3.194   1.800  14.259 -0.7848 -1.3318  0.2124
  969TIP3   OH224321   5.799   0.400  12.913 -0.2068  0.3509 -0.2863
  969TIP3    H124322   5.771   0.464  12.979  1.0925  0.8287 -0.1856
  969TIP3    H224323   5.741   0.415  12.839 -0.7108  0.8076  0.1929
  970TIP3   OH224324   2.754   5.892  11.342 -0.1167  0.2694  0.4606
  970TIP3    H124325   2.746   5.909  11.248  1.1008 -2.3974 -0.2019
  970TIP3    H224326   2.687   5.948  11.382 -0.4370  1.7387 -1.9209
  971TIP3   OH224327   6.451   4.989  13.548  0.6532 -0.0299  0.4287
  971TIP3    H124328   6.421   4.953  13.465  0.2512 -0.7487  0.8781
  971TIP3    H224329   6.529   5.041  13.525  0.8933 -0.7026 -0.3130
  972TIP3   OH224330   2.272   0.542   5.129  0.0476  0.4157  0.0272
  972TIP3    H124331   2.327   0.464   5.120 -0.9007 -0.2593  0.0028
  972TIP3    H224332   2.182   0.510   5.121 -0.4884  1.1466  2.3395
  973TIP3   OH224333   1.349   3.495  15.066 -0.1097  0.6428  0.4771
  973TIP3    H124334   1.350   3.576  15.118 -1.1270  1.9618 -1.4527
  973TIP3    H224335   1.291   3.515  14.993 -0.9545 -2.0964  0.3104
  974TIP3   OH224336   0.776   0.039  14.202 -0.0370  0.4019  0.3679
  974TIP3    H124337   0.791  -0.020  14.128 -0.6893 -1.5480  1.6743
  974TIP3    H224338   0.827  -0.001  14.274 -1.0392  1.0489  1.4745
  975TIP3   OH224339   5.543   5.282   5.788 -0.1374  0.4787  0.2586
  975TIP3    H124340   5.472   5.218   5.790  0.6630 -0.3917  1.4135
  975TIP3    H224341   5.520   5.346   5.856  0.6313 -0.3186  1.2936
  976TIP3   OH224342   6.664   4.151  16.322  0.0730 -0.1412  0.4782
  976TIP3    H124343   6.620   4.141  16.237  3.0426 -0.9330 -1.0857
  976TIP3    H224344   6.664   4.245  16.337 -4.1173 -0.1371  1.8068
  977TIP3   OH224345   3.732   3.393  13.956 -0.4947 -0.3662  0.2754
  977TIP3    H124346   3.808   3.450  13.963  0.4054 -1.4907 -0.0403
  977TIP3    H224347   3.679   3.432  13.886  0.4473 -0.2813 -0.4157
  978TIP3   OH224348   4.874   0.204   1.550 -0.3015 -0.6369 -0.3094
  978TIP3    H124349   4.801   0.264   1.569 -0.8131 -0.5846 -2.2637
  978TIP3    H224350   4.952   0.259   1.553 -0.5875 -0.2204 -0.4621
  979TIP3   OH224351   3.636   1.335   0.975 -0.2607 -0.4860 -0.0323
  979TIP3    H124352   3.650   1.421   0.935 -1.6280 -1.0013 -1.7406
  979TIP3    H224353   3.558   1.345   1.030 -0.5656 -0.6820 -0.4238
  980TIP3   OH224354   1.463   6.555  16.777  0.0707  0.0735 -0.1818
  980TIP3    H124355   1.464   6.634  16.831 -0.1204 -0.0360 -0.0167
  980TIP3    H224356   1.553   6.546  16.746  0.3408 -0.2526  0.6869
  981TIP3   OH224357   6.768   3.616   0.491 -0.3551 -0.4055  0.1155
  981TIP3    H124358   6.700   3.553   0.471  0.0442 -0.7783 -0.0889
  981TIP3    H224359   6.722   3.692   0.527 -0.8683 -0.6590 -0.0116
  982TIP3   OH224360   3.006   4.390  16.321 -0.2457 -0.6217 -0.3723
  982TIP3    H124361   2.990   4.327  16.392  0.4661  0.1549  0.5112
  982TIP3    H224362   3.072   4.348  16.266  0.3255 -0.6027  0.2859
  983TIP3   OH224363   6.253   5.391  16.503  0.5957 -0.0484 -0.2367
  983TIP3    H124364   6.161   5.418  16.493 -0.1113 -2.7307 -2.1047
  983TIP3    H224365   6.253   5.298  16.481  3.7520 -0.2228  0.0572
  984TIP3   OH224366   4.232   2.206  13.598  0.6350 -0.1971 -0.2467
  984TIP3    H124367   4.237   2.130  13.541  0.4545 -1.1086  0.9009
  984TIP3    H224368   4.322   2.224  13.622  0.5611 -1.2196  0.9184
  985TIP3   OH224369   3.510   0.231  17.212  0.0812  0.1067 -0.2743
  985TIP3    H124370   3.533   0.220  17.120  0.5771 -0.6276 -0.0755
  985TIP3    H224371   3.445   0.163  17.229  0.8550 -0.5399  0.1963
  986TIP3   OH224372   4.993   3.364   2.010  0.2063 -0.3446 -0.4576
  986TIP3    H124373   4.990   3.457   2.031 -0.2743 -0.7152  1.2833
  986TIP3    H224374   4.903   3.341   1.989  0.7049  0.0603 -3.4126
  987TIP3   OH224375   5.085   4.248  13.963  0.1549 -0.6549  0.5387
  987TIP3    H124376   5.140   4.191  13.909  0.2425  1.4725 -1.7742
  987TIP3    H224377   5.075   4.328  13.912 -0.8328  1.0462  3.1712
  988TIP3   OH224378   0.036   1.711  15.877 -0.2141  0.3118  0.0502
  988TIP3    H124379   0.030   1.661  15.795  1.4066 -2.0509  1.2412
  988TIP3    H224380   0.114   1.764  15.867 -0.2457  0.3300 -0.0991
  989TIP3   OH224381   6.018   3.548  12.487  0.1509 -0.4523  0.1720
  989TIP3    H124382   5.956   3.610  12.449 -0.8084 -2.0057 -0.8743
  989TIP3    H224383   6.095   3.554  12.430  0.8869  1.1742  1.2352
  990TIP3   OH224384   0.951   5.308  13.665 -0.7083 -0.3695 -0.2153
  990TIP3    H124385   0.932   5.398  13.691  0.7914  0.7946 -2.7534
  990TIP3    H224386   0.926   5.255  13.741 -1.8974  2.1271  1.2598
  991TIP3   OH224387   6.652   4.425  15.403  0.5842 -0.1653 -0.2110
  991TIP3    H124388   6.599   4.354  15.364  0.6493 -0.8754  0.9502
  991TIP3    H224389   6.742   4.398  15.388  0.6448  0.6993 -1.5633
  992TIP3   OH224390   0.924   5.464   0.589  0.1601 -0.2786  0.2179
  992TIP3    H124391   0.953   5.441   0.501  0.7819  1.4534 -0.0653
  992TIP3    H224392   0.985   5.419   0.647  0.3006 -0.6988 -0.2523
  993TIP3   OH224393   3.099   1.196  14.560 -0.1765  0.1692  0.6690
  993TIP3    H124394   3.162   1.190  14.489 -0.0631 -1.4673  0.8799
  993TIP3    H224395   3.071   1.288  14.560 -0.5425  0.1088 -1.7816
  994TIP3   OH224396   1.944   1.862   0.811  0.2054 -0.5179 -0.2981
  994TIP3    H124397   1.864   1.897   0.852  0.9203 -0.6293  1.2864
  994TIP3    H224398   1.998   1.939   0.794  0.2848 -0.5495 -0.1874
  995TIP3   OH224399   6.450   6.212   3.761  0.9306 -0.3319  0.5394
  995TIP3    H124400   6.425   6.201   3.853 -0.1804  1.3643  0.4710
  995TIP3    H224401   6.404   6.291   3.732 -0.0078 -1.6566 -1.9281
  996TIP3   OH224402   1.369   1.653  12.350  0.8386  0.1353 -0.4771
  996TIP3    H124403   1.447   1.629  12.299  1.0532  1.6756 -0.9198
  996TIP3    H224404   1.402   1.709  12.420  0.1486  0.6092 -0.5260
  997TIP3   OH224405   3.977   0.694  16.393  0.3187  0.0564 -0.0777
  997TIP3    H124406   3.916   0.723  16.325  0.1982 -0.6035 -0.2584
  997TIP3    H224407   3.993   0.601  16.373 -0.8535 -0.5474  1.6368
  998TIP3   OH224408   6.107   4.501   2.844 -0.0581  0.0843  0.1594
  998TIP3    H124409   6.201   4.522   2.851 -0.2942  0.5804  2.8066
  998TIP3    H224410   6.063   4.586   2.852 -0.7688 -0.3190  0.6292
  999TIP3   OH224411   0.992   4.197  13.520 -0.3498  0.2158 -0.2443
  999TIP3    H124412   0.908   4.218  13.560 -0.0757  0.8777  0.0096
  999TIP3    H224413   0.985   4.105  13.494 -0.3877 -0.3997  1.7468
 1000TIP3   OH224414   4.016   5.409   0.696  0.6383  0.1816 -0.2548
 1000TIP3    H124415   3.994   5.502   0.688 -0.6290 -0.0932 -0.0892
 1000TIP3    H224416   3.963   5.366   0.629 -0.0029 -0.5989  0.7283
 1001TIP3   OH224417   0.330   4.044  15.590  0.3755  0.1506 -0.2400
 1001TIP3    H124418   0.305   4.130  15.624 -1.4970 -1.2467  2.2415
 1001TIP3    H224419   0.375   4.001  15.662 -1.5004 -2.0200 -0.2339
 1002TIP3   OH224420   1.563   0.811  15.170 -0.8280  0.3391 -0.2174
 1002TIP3    H124421   1.527   0.872  15.235  0.8540  1.1987 -0.0388
 1002TIP3    H224422   1.502   0.817  15.096 -2.3394 -0.0708  0.9352
 1003TIP3   OH224423   1.271   5.367   4.412  0.0670 -0.1603  0.2881
 1003TIP3    H124424   1.179   5.381   4.432  0.1836  0.7112  0.2541
 1003TIP3    H224425   1.278   5.382   4.317  0.0111 -1.5544  0.0426
 1004TIP3   OH224426   0.533   3.257  14.288 -0.1634 -0.7689  0.1344
 1004TIP3    H124427   0.545   3.263  14.193  1.0144  4.0051  0.3505
 1004TIP3    H224428   0.439   3.259  14.301 -0.3160  1.0465 -0.9628
 1005TIP3   OH224429   4.158   1.039   5.248 -0.3224 -0.2137 -0.1937
 1005TIP3    H124430   4.089   1.030   5.182  0.2792  0.2357 -0.9023
 1005TIP3    H224431   4.227   1.088   5.203  0.7942 -1.3437  0.2487
 1006TIP3   OH224432   2.554   1.312   2.772  0.3251 -0.3074  0.1161
 1006TIP3    H124433   2.487   1.254   2.809 -0.2210 -0.0305 -0.4248
 1006TIP3    H224434   2.568   1.377   2.840 -0.8278  0.3219 -0.2156
 1007TIP3   OH224435   0.953   1.420   1.875  0.1091 -0.0792 -0.1726
 1007TIP3    H124436   0.885   1.353   1.883 -0.9696  1.1817  1.9173
 1007TIP3    H224437   1.000   1.418   1.958 -1.0261  2.7850  0.6754
 1008TIP3   OH224438   3.818   0.910  17.217 -0.2616 -0.3473  0.4792
 1008TIP3    H124439   3.836   1.002  17.199  0.8312 -0.7849 -0.8437
 1008TIP3    H224440   3.801   0.906  17.311  0.8681  1.0093  0.7691
 1009TIP3   OH224441   6.158   6.576  13.170 -0.4539  0.1651 -0.1334
 1009TIP3    H124442   6.142   6.669  13.185 -2.1265 -0.1390  0.2316
 1009TIP3    H224443   6.251   6.570  13.150 -0.7066  2.1871 -2.2968
 1010TIP3   OH224444   6.078   4.567   3.952  0.9956  0.5567 -0.1170
 1010TIP3    H124445   6.026   4.502   3.905  0.9643  0.5418 -0.0615
 1010TIP3    H224446   6.020   4.599   4.021  1.2782  0.0639  0.3566
 1011TIP3   OH224447   4.620   1.249   0.600 -0.0871  0.3778  0.0187
 1011TIP3    H124448   4.663   1.243   0.515  0.0701 -1.5997  0.1940
 1011TIP3    H224449   4.527   1.234   0.581  0.0515 -0.9324  0.2478
 1012TIP3   OH224450   4.634   0.839   0.489 -0.4822  0.4292 -0.1816
 1012TIP3    H124451   4.581   0.760   0.492 -1.0637  0.7751 -1.0534
 1012TIP3    H224452   4.709   0.820   0.546 -0.6658 -0.7042 -0.3016
 1013TIP3   OH224453   1.163   2.755  11.623  0.1682 -0.5491 -0.4404
 1013TIP3    H124454   1.168   2.829  11.684  1.4210 -1.1694  0.2420
 1013TIP3    H224455   1.221   2.689  11.661  2.1447 -0.4395 -3.0064
 1014TIP3   OH224456   5.198   6.771   6.530 -0.1172 -0.0677 -0.3345
 1014TIP3    H124457   5.233   6.814   6.608 -1.2742 -0.8182  0.6449
 1014TIP3    H224458   5.275   6.753   6.476  0.8880 -0.6330  1.2105
 1015TIP3   OH224459   0.394   4.373   3.287 -0.1673 -0.2195  0.5416
 1015TIP3    H124460   0.456   4.432   3.328 -1.6361  0.0662  2.4820
 1015TIP3    H224461   0.362   4.422   3.211  0.4452  0.4567  0.7070
 1016TIP3   OH224462   0.666   4.882   2.796 -0.2059  0.0780  0.0157
 1016TIP3    H124463   0.581   4.843   2.818 -0.0553 -1.5534 -2.0406
 1016TIP3    H224464   0.730   4.824   2.839 -0.0803  0.6997  0.6873
 1017TIP3   OH224465   5.824   5.025  16.357 -0.0132  0.0034  0.1436
 1017TIP3    H124466   5.810   5.077  16.435 -0.8641 -0.9076  0.6080
 1017TIP3    H224467   5.897   5.068  16.312  0.7946  0.2643  1.6685
 1018TIP3   OH224468   4.499   2.874   2.681  0.2643  0.0850  0.6824
 1018TIP3    H124469   4.509   2.817   2.757 -0.6314 -0.0389  0.7279
 1018TIP3    H224470   4.541   2.956   2.706  2.4251 -0.8208  0.2573
 1019TIP3   OH224471   1.845   1.161   4.270 -0.5823  0.1881  0.0479
 1019TIP3    H124472   1.894   1.173   4.188 -2.4944 -1.1888 -1.3730
 1019TIP3    H224473   1.888   1.221   4.332  0.3488  2.0108 -2.1952
 1020TIP3   OH224474   1.693   1.263   3.372  0.3874  0.4022 -0.4000
 1020TIP3    H124475   1.629   1.250   3.441 -0.5091  2.1611 -0.8522
 1020TIP3    H224476   1.768   1.305   3.416  0.6467 -0.3037 -0.1506
 1021TIP3   OH224477   5.291   1.526  11.879  0.0505 -0.2584 -0.2359
 1021TIP3    H124478   5.312   1.462  11.948  0.0918  0.1551  0.1437
 1021TIP3    H224479   5.273   1.473  11.802 -1.2630 -0.8116  0.4093
 1022TIP3   OH224480   6.684   1.275  16.760 -0.1378 -0.3197 -0.1774
 1022TIP3    H124481   6.618   1.207  16.746  0.1238 -0.4926 -0.5663
 1022TIP3    H224482   6.658   1.316  16.843 -1.2975  0.2707 -0.8128
 1023TIP3   OH224483   4.451   0.420   6.700 -0.3707  0.3346 -0.5840
 1023TIP3    H124484   4.416   0.503   6.734  0.9817  1.3156 -1.4585
 1023TIP3    H224485   4.455   0.433   6.606 -0.1950 -0.7652 -0.7348
 1024TIP3   OH224486   4.451   0.681   1.750 -0.1173 -0.6324 -0.3963
 1024TIP3    H124487   4.418   0.621   1.684 -1.1047  0.8423 -1.3047
 1024TIP3    H224488   4.373   0.728   1.781  0.4214 -0.8038  1.3350
 1025TIP3   OH224489   1.134   5.521   4.134  0.1264 -0.1834 -0.1842
 1025TIP3    H124490   1.103   5.561   4.053 -1.7738  1.5713  1.3137
 1025TIP3    H224491   1.077   5.445   4.147  0.3104 -0.3575 -0.3919
 1026TIP3   OH224492   0.156   0.365  12.752  0.1557 -0.0136  0.1171
 1026TIP3    H124493   0.143   0.328  12.839 -0.6912 -3.6487 -1.3679
 1026TIP3    H224494   0.095   0.438  12.748 -0.9633 -0.7500  2.0498
 1027TIP3   OH224495   3.537   2.068  12.378 -0.6130  0.1023 -0.1391
 1027TIP3    H124496   3.464   2.049  12.320 -0.1950  0.1834 -0.7024
 1027TIP3    H224497   3.613   2.076  12.320  0.0039 -0.7952  0.5092
 1028TIP3   OH224498   3.164   2.099  15.661  0.0440 -0.9443  0.2457
 1028TIP3    H124499   3.200   2.128  15.745  1.8775  0.4534 -0.9606
 1028TIP3    H224500   3.237   2.054  15.618 -0.4447 -0.4383 -1.1529
 1029TIP3   OH224501   1.451   4.261   4.476  0.5303  0.4143  0.1496
 1029TIP3    H124502   1.488   4.238   4.562 -0.9280  2.7843  1.5243
 1029TIP3    H224503   1.359   4.236   4.483  0.8326 -1.5663 -1.6972
 1030TIP3   OH224504   0.649   5.656  12.105  0.0193  0.4565  0.9826
 1030TIP3    H124505   0.689   5.707  12.034  0.5335  0.4615  1.2745
 1030TIP3    H224506   0.713   5.588  12.124  0.1895  0.8644  1.9071
 1031TIP3   OH224507   1.842   5.519   2.743 -0.8806 -0.0924 -0.1177
 1031TIP3    H124508   1.780   5.484   2.807 -0.5670  1.5947  1.1510
 1031TIP3    H224509   1.788   5.573   2.685 -0.7212  0.7182  0.4895
 1032TIP3   OH224510   4.258   1.546   5.476 -0.1074 -0.3997 -0.0937
 1032TIP3    H124511   4.259   1.562   5.571 -0.3459 -1.6818  0.1445
 1032TIP3    H224512   4.165   1.538   5.454 -0.0195 -3.3693  0.2051
 1033TIP3   OH224513   1.981   3.155  11.726  0.0266  0.5841  0.5522
 1033TIP3    H124514   2.018   3.220  11.665  0.5086  0.6841  0.9423
 1033TIP3    H224515   1.960   3.080  11.671  1.0816  0.4187  0.3453
 1034TIP3   OH224516   2.548   3.675  17.102  0.7305 -0.4128 -0.3751
 1034TIP3    H124517   2.539   3.632  17.187  0.7634 -2.8576 -1.5365
 1034TIP3    H224518   2.545   3.768  17.123 -1.3384 -0.8945  2.0860
 1035TIP3   OH224519   1.105   5.625   5.009 -0.1972  1.0075 -0.3191
 1035TIP3    H124520   1.196   5.621   5.038 -0.1080 -0.8688 -0.6950
 1035TIP3    H224521   1.054   5.637   5.089  0.2756 -0.1164  0.1743
 1036TIP3   OH224522   4.543   1.883  17.073  0.5634  0.1107 -0.5590
 1036TIP3    H124523   4.525   1.888  16.979 -1.0386  0.1589 -0.2805
 1036TIP3    H224524   4.586   1.799  17.085  1.5440  0.4682 -1.4342
 1037TIP3   OH224525   3.267   1.626   3.549  0.2849  0.6462  0.9660
 1037TIP3    H124526   3.220   1.543   3.553  0.2246  0.6818  0.9927
 1037TIP3    H224527   3.291   1.636   3.457  0.8227  0.3024  1.0623
 1038TIP3   OH224528   3.982   1.757  13.211  0.7838 -0.3440  0.6772
 1038TIP3    H124529   4.055   1.697  13.197  0.5626 -0.5843  0.5530
 1038TIP3    H224530   3.905   1.701  13.216  0.7177 -0.1785  1.8092
 1039TIP3   OH224531   4.032   3.469   2.996  0.3001 -0.3602  0.0994
 1039TIP3    H124532   4.003   3.390   2.951 -0.5940 -0.1104  0.2287
 1039TIP3    H224533   3.954   3.503   3.039  0.9003  0.0308  0.8995
 1040TIP3   OH224534   0.416   1.128  13.199  0.1958 -0.6654 -0.0914
 1040TIP3    H124535   0.420   1.216  13.236 -1.2075  0.3514 -2.1550
 1040TIP3    H224536   0.499   1.088  13.224  0.4312  0.8441  1.7892
 1041TIP3   OH224537   2.093   2.985  15.287 -0.3554 -0.2810 -0.3491
 1041TIP3    H124538   2.101   3.050  15.356 -0.4823 -0.1791 -0.4307
 1041TIP3    H224539   2.074   2.903  15.333 -0.1874 -0.2617 -0.2472
 1042TIP3   OH224540   5.018   5.206  15.428 -0.2301  0.1780 -0.1767
 1042TIP3    H124541   5.108   5.235  15.418 -0.4603  0.7856 -0.4896
 1042TIP3    H224542   4.979   5.217  15.341 -1.1282  1.7110  0.3856
 1043TIP3   OH224543   2.740   2.885  12.497  0.2450 -0.0158  0.1375
 1043TIP3    H124544   2.738   2.936  12.578  1.4877  1.5087 -0.7479
 1043TIP3    H224545   2.795   2.935  12.438 -1.0316 -0.8328 -1.8557
 1044TIP3   OH224546   3.475   4.473   1.642 -0.4035 -0.4055  0.1462
 1044TIP3    H124547   3.500   4.552   1.593  1.8714 -1.0279  0.2106
 1044TIP3    H224548   3.532   4.404   1.607 -1.2774 -1.6841  1.1671
 1045TIP3   OH224549   6.012   3.820  14.475  0.6251  0.1162  0.0468
 1045TIP3    H124550   5.997   3.913  14.491  1.0273  0.0518  0.8249
 1045TIP3    H224551   5.925   3.781  14.475  0.3716  0.6109 -1.1606
 1046TIP3   OH224552   4.996   1.912   0.285 -0.3007 -0.0090 -0.2496
 1046TIP3    H124553   5.000   1.861   0.366  2.4163  0.8235  0.2523
 1046TIP3    H224554   4.998   2.003   0.315  3.1486  0.3439 -1.1761
 1047TIP3   OH224555   5.073   1.542   3.111 -0.5381 -0.4229 -0.2684
 1047TIP3    H124556   5.043   1.568   3.024  2.5704 -1.6154 -1.8349
 1047TIP3    H224557   5.165   1.521   3.100 -0.0889 -0.9913  3.2798
 1048TIP3   OH224558   4.890   4.637   2.066  0.3776  0.3559  0.2911
 1048TIP3    H124559   4.900   4.731   2.055  1.2772  0.1470 -0.8614
 1048TIP3    H224560   4.979   4.602   2.065  0.0099 -0.6562 -0.9717
 1049TIP3   OH224561   4.308   0.119   0.546 -0.1963 -0.4197 -0.2836
 1049TIP3    H124562   4.250   0.096   0.619  1.7994  2.2494  2.4241
 1049TIP3    H224563   4.275   0.203   0.515  0.8994  0.0773 -0.1574
 1050TIP3   OH224564   3.374   2.365  16.230 -0.0520  0.0041  0.2499
 1050TIP3    H124565   3.346   2.288  16.279 -0.8896 -0.5398 -1.0175
 1050TIP3    H224566   3.451   2.397  16.276 -0.5206 -0.7684  1.6113
 1051TIP3   OH224567   1.073   4.029   1.737 -0.1219 -0.2105  0.2319
 1051TIP3    H124568   1.090   3.942   1.700 -0.1839 -0.1536  0.0705
 1051TIP3    H224569   1.130   4.034   1.813 -0.6377 -0.6783  0.6612
 1052TIP3   OH224570   3.459   6.447  16.217  0.5154 -0.4348  0.3695
 1052TIP3    H124571   3.546   6.408  16.219  0.1711 -1.3211 -1.0158
 1052TIP3    H224572   3.472   6.533  16.178  0.6710 -0.8490 -0.5024
 1053TIP3   OH224573   3.364   1.385  13.027  0.3183  0.1743 -0.5452
 1053TIP3    H124574   3.409   1.317  12.977 -0.4526 -0.5925 -0.2197
 1053TIP3    H224575   3.335   1.448  12.961 -0.6040 -0.7741 -1.0769
 1054TIP3   OH224576   3.071   5.277   6.060 -0.0118  0.4880  0.5323
 1054TIP3    H124577   2.995   5.221   6.043 -1.1432  2.2638 -0.5541
 1054TIP3    H224578   3.120   5.275   5.978 -0.7709  2.0693 -0.0014
 1055TIP3   OH224579   0.295   3.412   3.097 -0.0969 -0.2065 -0.0641
 1055TIP3    H124580   0.263   3.489   3.143 -0.8265 -0.9918  0.7767
 1055TIP3    H224581   0.277   3.430   3.004 -0.4219  0.5448  0.1360
 1056TIP3   OH224582   4.435   5.507   5.302  0.0700 -0.1812  0.2841
 1056TIP3    H124583   4.417   5.561   5.380  1.4363 -1.1517  1.3122
 1056TIP3    H224584   4.530   5.501   5.299  0.2072  1.6662 -2.7988
 1057TIP3   OH224585   5.320   2.113  14.648 -0.2422 -0.4327  0.1017
 1057TIP3    H124586   5.353   2.055  14.579  0.8217 -0.8867  0.9624
 1057TIP3    H224587   5.347   2.071  14.730 -0.0270  0.9385  0.7589
 1058TIP3   OH224588   0.176   2.922   4.015  0.0821 -0.1405  0.4059
 1058TIP3    H124589   0.264   2.912   3.979 -0.7266  0.4161 -1.8319
 1058TIP3    H224590   0.126   2.851   3.976 -0.6564  0.0208  1.0421
 1059TIP3   OH224591   6.665   1.192   3.121 -0.3595 -0.3173  0.1065
 1059TIP3    H124592   6.742   1.238   3.089  0.5910 -1.7741  0.2133
 1059TIP3    H224593   6.690   1.162   3.209 -1.0403 -0.8200  0.1356
 1060TIP3   OH224594   0.784   4.559  12.791 -0.3055 -0.3855 -0.0568
 1060TIP3    H124595   0.735   4.504  12.851 -1.0933 -0.1035 -0.4345
 1060TIP3    H224596   0.867   4.575  12.835 -1.3757  0.9519  1.5815
 1061TIP3   OH224597   5.439   6.281  16.249 -0.1808  0.3504 -0.1301
 1061TIP3    H124598   5.350   6.276  16.215 -0.1401  1.7930 -0.5223
 1061TIP3    H224599   5.495   6.280  16.171  0.0746  0.6119  0.0457
 1062TIP3   OH224600   5.609   2.516  13.802  0.2567  0.1240  0.6488
 1062TIP3    H124601   5.542   2.557  13.748  0.4541  0.3108  0.5446
 1062TIP3    H224602   5.628   2.433  13.759  1.6767  1.0382 -0.5640
 1063TIP3   OH224603   1.178   1.628  13.938  0.3083 -0.2001  0.3640
 1063TIP3    H124604   1.099   1.598  13.894  1.1728  0.3256 -1.6519
 1063TIP3    H224605   1.249   1.579  13.897  1.3198  1.5609 -0.0972
 1064TIP3   OH224606   5.207   2.494   0.929  0.0076  0.2409  1.0106
 1064TIP3    H124607   5.242   2.413   0.966 -0.2022  0.0304  0.7478
 1064TIP3    H224608   5.283   2.535   0.886 -0.2435 -0.6577 -0.3441
 1065TIP3   OH224609   4.769   5.856  13.354 -0.5260  0.0383 -0.5774
 1065TIP3    H124610   4.773   5.876  13.261  1.5809  0.1812 -0.5048
 1065TIP3    H224611   4.851   5.810  13.372 -0.1142  1.4126  1.4842
 1066TIP3   OH224612   0.825   4.940   3.605 -0.4849 -0.1833 -0.0358
 1066TIP3    H124613   0.881   4.884   3.659 -1.4546 -1.3978 -0.2655
 1066TIP3    H224614   0.760   4.974   3.667 -0.5207 -0.1381 -0.0987
 1067TIP3   OH224615   2.119   1.746  14.685 -0.1165 -0.1903 -0.3859
 1067TIP3    H124616   2.062   1.797  14.744  0.8713 -1.0782  1.4329
 1067TIP3    H224617   2.122   1.797  14.604 -0.5109  1.7784  0.7697
 1068TIP3   OH224618   4.615   5.879  17.240 -0.2444  0.1344  0.6665
 1068TIP3    H124619   4.533   5.874  17.190  0.2800  0.5141 -0.2498
 1068TIP3    H224620   4.684   5.865  17.175  0.3916 -2.2863  1.7317
 1069TIP3   OH224621   5.303   4.982   2.743 -0.3919 -0.6135 -0.1064
 1069TIP3    H124622   5.326   5.023   2.826 -0.0353 -1.0408  0.0138
 1069TIP3    H224623   5.283   5.055   2.684  1.1184 -0.2022 -0.1568
 1070TIP3   OH224624   1.030   2.713  14.549  0.3350 -0.5311  0.6371
 1070TIP3    H124625   0.950   2.713  14.497  0.4349  1.7589  0.3530
 1070TIP3    H224626   1.007   2.666  14.629 -1.1956 -0.2113  0.4121
 1071TIP3   OH224627   5.869   1.383   0.611  0.1722  0.2365 -0.3317
 1071TIP3    H124628   5.921   1.326   0.555 -0.0493  0.2727 -0.5841
 1071TIP3    H224629   5.789   1.398   0.560  0.0346  0.3971 -0.0683
 1072TIP3   OH224630   4.970   3.001  14.326  0.3936 -0.4494 -0.2738
 1072TIP3    H124631   5.011   2.918  14.352  0.5530 -0.2499  0.1123
 1072TIP3    H224632   5.032   3.040  14.264  1.2638  0.3026  1.0248
 1073TIP3   OH224633   2.522   2.691   3.200  0.2881  0.4001  0.0961
 1073TIP3    H124634   2.559   2.647   3.276  0.7878  0.6708  0.0192
 1073TIP3    H224635   2.593   2.691   3.135 -0.5747 -1.0528 -0.8902
 1074TIP3   OH224636   0.023   2.380   1.483 -0.1627  0.2234  0.4298
 1074TIP3    H124637  -0.059   2.336   1.462  0.4186 -0.2623 -0.8511
 1074TIP3    H224638   0.060   2.330   1.556 -0.5535 -0.1067  0.4001
 1075TIP3   OH224639   2.082   6.461  11.238 -0.5026 -0.2154 -0.6188
 1075TIP3    H124640   2.158   6.499  11.282  0.2452 -1.3203 -0.8872
 1075TIP3    H224641   2.044   6.401  11.302 -0.5993 -0.3439 -0.7940
 1076TIP3   OH224642   5.241   2.358   2.476 -0.2609  0.4808  0.4200
 1076TIP3    H124643   5.276   2.447   2.474  0.7087  0.0975 -0.3560
 1076TIP3    H224644   5.171   2.362   2.542 -1.5007  2.2651 -0.8803
 1077TIP3   OH224645   4.814   1.363  15.013  0.1714  0.7010  0.5672
 1077TIP3    H124646   4.897   1.408  14.995  0.0251  1.2457  1.2287
 1077TIP3    H224647   4.750   1.433  15.026 -1.0030  0.3223 -2.4418
 1078TIP3   OH224648   2.426   6.367   2.671 -0.0861  0.5494  0.1908
 1078TIP3    H124649   2.458   6.440   2.724 -0.3611  0.1451  0.9299
 1078TIP3    H224650   2.477   6.292   2.701  0.7254  0.5752 -1.0947
 1079TIP3   OH224651   4.261   3.605   5.124  0.4120  0.2462 -0.1618
 1079TIP3    H124652   4.218   3.682   5.160 -1.7082  0.1497 -2.2270
 1079TIP3    H224653   4.211   3.531   5.159  1.1700 -0.0795  0.2399
 1080TIP3   OH224654   3.942   2.789   5.936 -0.7882  0.4148 -0.7254
 1080TIP3    H124655   3.968   2.875   5.968 -0.5134  0.5320 -1.2424
 1080TIP3    H224656   3.870   2.762   5.993  0.8357 -0.1936  1.1816
 1081TIP3   OH224657   1.608   0.465  11.937 -0.3735 -0.1146 -0.4025
 1081TIP3    H124658   1.553   0.485  12.014  0.7426 -0.1282  0.4243
 1081TIP3    H224659   1.671   0.536  11.934 -0.0925 -0.3888 -1.0101
 1082TIP3   OH224660   4.662   1.992   0.975 -0.7679 -0.4327 -0.0098
 1082TIP3    H124661   4.656   2.045   1.055  0.2457  0.3733 -0.4451
 1082TIP3    H224662   4.584   1.935   0.978 -0.6185 -0.6030  1.6672
 1083TIP3   OH224663   5.359   1.863   4.037 -0.0624 -0.1161 -0.1137
 1083TIP3    H124664   5.277   1.900   4.070  0.4194  0.2197  0.7266
 1083TIP3    H224665   5.397   1.932   3.982 -0.3039 -0.2465 -0.4478
 1084TIP3   OH224666   4.220   5.696   2.586  0.4291 -0.4447 -0.8512
 1084TIP3    H124667   4.209   5.699   2.491 -0.2474  0.0025 -0.7628
 1084TIP3    H224668   4.258   5.609   2.602  2.3824  0.1887 -1.6987
 1085TIP3   OH224669   5.100   6.111   4.671 -0.1043 -0.3852  0.1437
 1085TIP3    H124670   5.124   6.146   4.757  1.3440  0.2948 -0.5015
 1085TIP3    H224671   5.045   6.179   4.632 -2.1769 -1.4025  1.1279
 1086TIP3   OH224672   6.748   5.507  13.810  0.0496 -0.2932  0.1475
 1086TIP3    H124673   6.745   5.417  13.777 -1.0868  0.2441 -1.3523
 1086TIP3    H224674   6.837   5.537  13.790  0.8899 -1.4722  1.8872
 1087TIP3   OH224675   5.090   4.274   0.608  0.4726  0.4002  0.3747
 1087TIP3    H124676   5.051   4.223   0.537  0.5813 -0.3092  0.8124
 1087TIP3    H224677   5.131   4.349   0.565 -1.6921  1.4075 -0.0717
 1088TIP3   OH224678   3.588   6.697   2.854  0.6232  0.1375 -0.1507
 1088TIP3    H124679   3.613   6.622   2.800  0.5800 -0.0368  0.0692
 1088TIP3    H224680   3.493   6.689   2.863  0.4013  1.0448 -1.3572
 1089TIP3   OH224681   2.816   1.832   2.266  0.1129 -0.1288  0.2885
 1089TIP3    H124682   2.797   1.836   2.172  0.5842 -0.7614  0.1617
 1089TIP3    H224683   2.853   1.745   2.279 -0.0473 -0.0807  1.0825
 1090TIP3   OH224684   1.954   5.246  12.940  0.0498 -0.3156  0.0231
 1090TIP3    H124685   1.917   5.328  12.908  0.2907 -0.2098  0.0102
 1090TIP3    H224686   1.972   5.262  13.032  0.2274 -0.3049 -0.0118
 1091TIP3   OH224687   4.929   6.394  16.088 -0.2084 -0.7205 -0.3933
 1091TIP3    H124688   5.014   6.434  16.108 -0.1493 -1.5894  1.2088
 1091TIP3    H224689   4.877   6.408  16.166 -1.3545 -0.7297 -1.1405
 1092TIP3   OH224690   6.692   5.828   6.902  0.2747  0.2282 -0.2153
 1092TIP3    H124691   6.701   5.921   6.881  0.5552  0.3446  0.4049
 1092TIP3    H224692   6.692   5.785   6.816  1.9692  0.6503 -0.4760
 1093TIP3   OH224693   0.363   6.258  13.360  0.5217  0.3240 -0.3287
 1093TIP3    H124694   0.273   6.273  13.388  0.6348 -1.1177  0.9214
 1093TIP3    H224695   0.416   6.299  13.428  0.8084  0.2602 -0.5126
 1094TIP3   OH224696   6.611   5.351  14.369 -0.2918  0.4054 -0.1295
 1094TIP3    H124697   6.546   5.393  14.425 -0.3689  0.5899 -0.3556
 1094TIP3    H224698   6.627   5.414  14.299 -0.6607 -0.0790 -0.6602
 1095TIP3   OH224699   3.843   0.915  12.628 -0.5437 -0.4220 -0.0188
 1095TIP3    H124700   3.849   0.915  12.724  0.6452 -1.7409 -0.0630
 1095TIP3    H224701   3.824   0.824  12.605 -0.2889 -0.2235 -1.0640
 1096TIP3   OH224702   6.650   3.182   2.038 -0.0228 -0.4368  0.2255
 1096TIP3    H124703   6.670   3.224   2.121  0.7392 -3.0678  1.4980
 1096TIP3    H224704   6.608   3.250   1.985  1.9445  2.0803  1.7193
 1097TIP3   OH224705   2.944   3.068   5.238 -0.0621  0.0168  0.1706
 1097TIP3    H124706   2.984   3.136   5.183  1.0140 -0.3284  0.5100
 1097TIP3    H224707   2.903   3.117   5.310 -1.1519  0.4406 -0.7088
 1098TIP3   OH224708   6.158   2.184   2.531  0.0597  0.0211 -0.2064
 1098TIP3    H124709   6.152   2.266   2.579 -2.5508 -0.0967 -0.2015
 1098TIP3    H224710   6.147   2.116   2.598  0.6710 -0.2968 -0.4174
 1099TIP3   OH224711   4.788   0.403  12.628 -0.0786  0.3174  0.3201
 1099TIP3    H124712   4.780   0.374  12.537 -2.8359  1.7187 -0.0096
 1099TIP3    H224713   4.872   0.448  12.632  0.5691 -0.6562 -1.2226
 1100TIP3   OH224714   1.601   1.133  15.965 -0.0681 -0.4350  0.3002
 1100TIP3    H124715   1.557   1.116  15.882 -0.2342 -0.2577  0.3508
 1100TIP3    H224716   1.532   1.127  16.031 -0.2867  1.1171  0.2552
 1101TIP3   OH224717   1.742   0.491   4.870 -0.4623 -0.2180 -0.2479
 1101TIP3    H124718   1.677   0.476   4.938  0.0284 -1.1450  0.0366
 1101TIP3    H224719   1.713   0.439   4.796  1.2695 -2.8203  0.7563
 1102TIP3   OH224720   5.511   2.546  11.853 -0.1745  0.5472 -0.9241
 1102TIP3    H124721   5.427   2.592  11.857 -1.2658 -1.4546  0.6441
 1102TIP3    H224722   5.567   2.593  11.915 -0.2735  1.5277 -1.5473
 1103TIP3   OH224723   5.674   1.394   1.457 -0.7324 -0.2692  0.2306
 1103TIP3    H124724   5.761   1.413   1.422  0.1715  0.0459  2.4839
 1103TIP3    H224725   5.648   1.314   1.412 -0.1826  0.7024 -1.9405
 1104TIP3   OH224726   3.076   5.249   6.432 -0.0259 -0.1507 -0.6623
 1104TIP3    H124727   3.022   5.223   6.507 -0.1409  1.4873 -0.1492
 1104TIP3    H224728   3.158   5.201   6.444 -0.5907 -1.0783 -0.3381
 1105TIP3   OH224729   5.467   4.759   2.129  0.2991  0.0988  0.0065
 1105TIP3    H124730   5.441   4.678   2.174 -1.0194  0.3033 -0.3676
 1105TIP3    H224731   5.539   4.731   2.072  0.9940 -0.4605  1.1054
 1106TIP3   OH224732   4.932   4.803  16.543 -0.1178  0.0345 -0.0676
 1106TIP3    H124733   4.957   4.807  16.635  2.2660 -0.4021 -0.6305
 1106TIP3    H224734   5.009   4.835  16.496 -0.1765 -2.4279 -2.0229
 1107TIP3   OH224735   5.260   6.126  13.864  0.2448 -0.1772  0.0944
 1107TIP3    H124736   5.233   6.053  13.809 -1.9140  1.0730 -0.6482
 1107TIP3    H224737   5.252   6.203  13.807  0.7049  0.8515  1.3583
 1108TIP3   OH224738   5.305   3.099  10.708  0.2504 -0.2855 -0.4487
 1108TIP3    H124739   5.274   3.094  10.618 -1.9489  1.7508  0.1132
 1108TIP3    H224740   5.394   3.134  10.700  0.0808 -0.1037 -1.8235
 1109TIP3   OH224741   0.068   1.320   6.624 -0.1515 -0.0769 -0.4101
 1109TIP3    H124742  -0.015   1.320   6.672  0.3511 -0.9239  0.4867
 1109TIP3    H224743   0.134   1.304   6.691  0.7589  0.6580 -1.1030
 1110TIP3   OH224744   3.969   4.738   4.292 -0.3556  0.3506 -0.4706
 1110TIP3    H124745   4.022   4.740   4.212 -0.2557  0.8774 -0.4002
 1110TIP3    H224746   4.028   4.772   4.359 -0.8529  1.1727 -0.4365
 1111TIP3   OH224747   1.051   2.787  16.872 -0.2856 -0.0295  0.2807
 1111TIP3    H124748   1.146   2.781  16.867  0.0544  2.9738  1.4927
 1111TIP3    H224749   1.027   2.848  16.803 -1.3254 -0.4970  0.2060
 1112TIP3   OH224750   2.921   3.429   3.879  0.1796  0.3783  0.3765
 1112TIP3    H124751   2.935   3.355   3.938 -0.2641  1.2025  1.5403
 1112TIP3    H224752   3.006   3.445   3.839 -0.2548 -2.5434 -2.0935
 1113TIP3   OH224753   0.155   4.923  11.619 -0.0457 -0.6666 -0.2489
 1113TIP3    H124754   0.156   4.862  11.693  2.4288  1.8147  1.9709
 1113TIP3    H224755   0.066   4.959  11.619 -0.0453 -0.5818  1.6988
 1114TIP3   OH224756   2.854   4.504  15.405  0.0444  0.1722  0.4166
 1114TIP3    H124757   2.793   4.576  15.421  0.5169  1.1138 -1.6861
 1114TIP3    H224758   2.837   4.478  15.315  1.2448 -1.0393  0.5090
 1115TIP3   OH224759   2.313   5.888  17.376  0.1326  0.6560 -0.1803
 1115TIP3    H124760   2.365   5.931  17.308 -0.4528  0.2162 -0.9106
 1115TIP3    H224761   2.258   5.957  17.412  1.1247  1.1111  0.5399
 1116TIP3   OH224762   0.543   3.245   2.882  0.0614 -0.3657 -0.1413
 1116TIP3    H124763   0.552   3.315   2.947  0.3303 -1.2965  0.8565
 1116TIP3    H224764   0.449   3.229   2.876  0.0144 -0.0669 -0.2239
 1117TIP3   OH224765   0.597   1.181  13.759  0.4577  0.4093 -0.0966
 1117TIP3    H124766   0.604   1.183  13.855  0.7674  0.1490 -0.1146
 1117TIP3    H224767   0.624   1.269  13.732  0.0741  0.5822  0.0730
 1118TIP3   OH224768   5.726   5.771  15.519  0.2669 -0.0419 -0.0130
 1118TIP3    H124769   5.633   5.751  15.521  0.4478 -0.8763  0.3751
 1118TIP3    H224770   5.737   5.841  15.584 -0.4326  1.6958 -1.6608
 1119TIP3   OH224771   0.151   1.024   3.341 -0.1275  0.0652 -0.2339
 1119TIP3    H124772   0.148   1.020   3.245  0.2512  1.7002 -0.3483
 1119TIP3    H224773   0.079   1.084   3.364 -0.2247 -0.3268  0.5070
 1120TIP3   OH224774   3.534   0.490   2.542 -0.3011  0.8047  0.1520
 1120TIP3    H124775   3.578   0.575   2.535  0.6283  0.3076 -0.1775
 1120TIP3    H224776   3.527   0.459   2.452  0.8679 -0.1954  0.3667
 1121TIP3   OH224777   1.892   3.970   0.645 -0.7315 -0.0101 -0.0961
 1121TIP3    H124778   1.968   4.028   0.657 -0.6575  1.4499 -5.0821
 1121TIP3    H224779   1.822   4.011   0.696  0.6863  1.3702  0.8234
 1122TIP3   OH224780   3.132   2.470  13.116  0.3051 -0.3774 -0.5176
 1122TIP3    H124781   3.038   2.479  13.132  0.0236 -0.9549 -1.6949
 1122TIP3    H224782   3.155   2.384  13.149  0.5540 -0.0194  0.2727
 1123TIP3   OH224783   0.061   0.897   1.412  0.4628  0.2442 -0.5654
 1123TIP3    H124784   0.039   0.984   1.380 -0.3463 -0.2237 -1.2991
 1123TIP3    H224785  -0.023   0.858   1.437  0.9646  0.2762  1.3796
 1124TIP3   OH224786   0.926   0.820  12.283  0.1775  0.2306 -0.0180
 1124TIP3    H124787   0.836   0.831  12.312 -0.0206  1.6675 -1.0410
 1124TIP3    H224788   0.925   0.845  12.191  1.4490 -0.6345 -0.2914
 1125TIP3   OH224789   4.579   3.044   3.818 -0.3786  0.0706 -0.1315
 1125TIP3    H124790   4.495   3.071   3.856 -0.3366 -0.9991  0.7613
 1125TIP3    H224791   4.555   2.980   3.750 -0.3199  0.2972 -0.3680
 1126TIP3   OH224792   1.767   1.545   0.938 -0.0657  0.0129  0.4495
 1126TIP3    H124793   1.697   1.483   0.917 -1.2327  0.6478  2.2730
 1126TIP3    H224794   1.722   1.626   0.961  1.3494  0.9396  0.1123
 1127TIP3   OH224795   6.312   1.509   5.114 -0.4969  0.6805 -0.6003
 1127TIP3    H124796   6.340   1.562   5.189 -2.9661  0.8728  0.2811
 1127TIP3    H224797   6.309   1.571   5.041  1.0243  0.6963 -0.6888
 1128TIP3   OH224798   2.274   3.478  12.823 -0.2900 -0.1724 -0.4998
 1128TIP3    H124799   2.202   3.468  12.885  0.1759  2.9061  0.7270
 1128TIP3    H224800   2.353   3.472  12.877  0.2958 -1.1533 -1.4383
 1129TIP3   OH224801   2.758   1.166   3.952  0.4175 -0.4197  0.1693
 1129TIP3    H124802   2.815   1.102   3.909  1.0141  0.2005  0.0286
 1129TIP3    H224803   2.733   1.227   3.883  1.7456  0.8506  0.7502
 1130TIP3   OH224804   3.597   3.293  15.521  0.1809 -0.0823 -0.7968
 1130TIP3    H124805   3.590   3.385  15.495  1.1089 -0.2769 -1.7917
 1130TIP3    H224806   3.676   3.289  15.575  0.1783 -0.3070 -0.8087
 1131TIP3   OH224807   6.169   0.469   2.934 -0.1708 -0.1170 -0.5195
 1131TIP3    H124808   6.105   0.472   2.863 -0.3395 -0.3294 -0.3782
 1131TIP3    H224809   6.215   0.387   2.921  0.1068  0.0599 -0.6490
 1132TIP3   OH224810   4.970   6.226  16.316 -0.0172  0.0067 -0.6788
 1132TIP3    H124811   4.922   6.300  16.353  0.6561 -0.1888  0.6354
 1132TIP3    H224812   4.906   6.155  16.311  0.4744 -0.9403  3.1032
 1133TIP3   OH224813   6.461   4.456  17.292 -0.3997 -0.3446  0.0507
 1133TIP3    H124814   6.432   4.546  17.300 -0.9078 -0.4749 -0.2842
 1133TIP3    H224815   6.542   4.460  17.241  0.4392  0.0647  1.3699
 1134TIP3   OH224816   0.753   5.591  11.531  0.2662  0.0606 -0.2601
 1134TIP3    H124817   0.718   5.608  11.619  1.0417 -0.5250  0.1833
 1134TIP3    H224818   0.682   5.613  11.472  0.2350  1.9616  0.4156
 1135TIP3   OH224819   4.170   5.821  11.733  0.2572  0.1615 -0.0531
 1135TIP3    H124820   4.087   5.855  11.700  0.1387  1.8810  1.8127
 1135TIP3    H224821   4.147   5.739  11.777 -0.0206 -0.6550 -1.6680
 1136TIP3   OH224822   4.840   2.522   0.002 -0.4251  0.0124 -0.3079
 1136TIP3    H124823   4.762   2.468  -0.006  0.2123 -1.3107  1.5324
 1136TIP3    H224824   4.913   2.460  -0.003  0.5307  1.1661 -1.6624
 1137TIP3   OH224825   3.804   0.698   5.153 -0.3308 -0.1833  0.3302
 1137TIP3    H124826   3.879   0.757   5.162  0.1544 -0.8527  0.7986
 1137TIP3    H224827   3.770   0.716   5.066  0.4979  0.0005  0.0328
 1138TIP3   OH224828   2.180   5.312   6.111 -0.1117  0.2987  0.1407
 1138TIP3    H124829   2.114   5.332   6.045 -1.1098 -0.1402  0.9847
 1138TIP3    H224830   2.225   5.235   6.077 -1.2065 -0.4586  0.3589
 1139TIP3   OH224831   4.620   3.432  17.296  0.3298  0.1780 -0.1278
 1139TIP3    H124832   4.533   3.454  17.331 -1.3426 -1.1086 -3.0869
 1139TIP3    H224833   4.657   3.516  17.269 -0.1023  0.7143  0.8958
 1140TIP3   OH224834   0.803   4.268  14.229  0.2375  0.2943  0.3534
 1140TIP3    H124835   0.790   4.209  14.154  2.1425  0.9655 -0.5663
 1140TIP3    H224836   0.714   4.290  14.257 -0.5506  0.0040 -1.7160
 1141TIP3   OH224837   4.301   5.482  17.241 -0.2320  0.6068 -0.1072
 1141TIP3    H124838   4.291   5.449  17.152  1.0888  0.8157 -0.3597
 1141TIP3    H224839   4.318   5.575  17.230  0.5904  0.5159  0.3086
 1142TIP3   OH224840   0.893   5.784  13.913 -0.3805  0.2065  0.3777
 1142TIP3    H124841   0.827   5.737  13.963 -0.3501 -1.8751 -1.4099
 1142TIP3    H224842   0.848   5.863  13.882 -0.9601  0.5465  1.9815
 1143TIP3   OH224843   6.450   6.061   0.165  0.1949 -0.2551  0.0638
 1143TIP3    H124844   6.485   6.041   0.252 -0.5228 -1.2900  0.1309
 1143TIP3    H224845   6.525   6.051   0.106  0.3451 -1.0094  0.3800
 1144TIP3   OH224846   2.921   2.897  11.244 -0.3620  0.2715 -0.0152
 1144TIP3    H124847   2.891   2.815  11.283  1.6766 -0.3826  0.2730
 1144TIP3    H224848   2.955   2.872  11.158 -0.5772  0.9800 -0.3148
 1145TIP3   OH224849   4.057   0.961  13.523 -0.2383 -0.4026 -0.2508
 1145TIP3    H124850   4.105   1.040  13.500  0.7294 -1.2345 -1.1953
 1145TIP3    H224851   4.093   0.893  13.465 -1.8245 -1.2888 -0.2518
 1146TIP3   OH224852   3.923   4.611  16.955 -0.0703  0.3240 -0.1895
 1146TIP3    H124853   3.841   4.577  16.992 -0.3443 -0.1745 -1.2193
 1146TIP3    H224854   3.937   4.694  17.001 -1.3729  0.6196 -0.2789
 1147TIP3   OH224855   2.639   0.402  14.495  0.4542  0.4174 -0.0700
 1147TIP3    H124856   2.593   0.439  14.420  1.1652  1.3863 -0.0580
 1147TIP3    H224857   2.711   0.351  14.456 -0.9910 -1.7203 -0.1173
 1148TIP3   OH224858   0.992   2.358  13.810 -0.5477  0.1626  0.2173
 1148TIP3    H124859   0.929   2.297  13.773 -1.7651  1.0500  0.7333
 1148TIP3    H224860   0.989   2.434  13.752  1.9472 -0.6961 -1.2072
 1149TIP3   OH224861   1.262   3.103   6.053 -0.5743  0.1501 -0.2188
 1149TIP3    H124862   1.179   3.060   6.031  1.7497 -4.3292 -1.5760
 1149TIP3    H224863   1.285   3.067   6.139  1.1206 -0.9284 -1.0650
 1150TIP3   OH224864   1.352   6.095  12.372  0.0536 -0.7154  0.5153
 1150TIP3    H124865   1.293   6.067  12.302 -2.5695 -1.8449  2.9933
 1150TIP3    H224866   1.405   6.164  12.332 -1.9169 -0.6639 -2.3117
 1151TIP3   OH224867   1.492   3.022   6.988  0.2281  0.3221  0.1118
 1151TIP3    H124868   1.526   3.086   6.925 -0.8705  0.8792  0.0704
 1151TIP3    H224869   1.551   3.030   7.063  3.4538 -2.4591 -1.8360
 1152TIP3   OH224870   5.807   2.531  15.925  0.0315  0.0760  0.1518
 1152TIP3    H124871   5.805   2.473  16.002  2.7151 -1.5385 -0.8504
 1152TIP3    H224872   5.753   2.486  15.860 -0.9006  0.6265  0.5172
 1153TIP3   OH224873   1.888   6.135   2.152 -0.0738  0.2461 -0.8086
 1153TIP3    H124874   1.911   6.226   2.171 -1.5229  0.4086  0.3633
 1153TIP3    H224875   1.958   6.104   2.095  1.5568  1.4640  0.4400
 1154TIP3   OH224876   3.596   4.934  11.085  0.1357  0.6529 -0.0071
 1154TIP3    H124877   3.643   4.924  11.002 -2.4785  2.1299 -1.8029
 1154TIP3    H224878   3.556   4.848  11.100 -0.3221  0.6973 -0.9136
 1155TIP3   OH224879   1.635   2.936  15.319 -0.7417  0.2328 -0.4521
 1155TIP3    H124880   1.547   2.974  15.327 -0.3273  1.1367 -0.0171
 1155TIP3    H224881   1.679   2.992  15.255 -0.4594 -0.1867 -0.6293
 1156TIP3   OH224882   5.164   3.058  16.896 -0.6382 -0.2847 -0.2447
 1156TIP3    H124883   5.166   3.101  16.982  0.0853 -0.6205 -0.0836
 1156TIP3    H224884   5.201   3.123  16.836  0.7481 -0.7708  0.0518
 1157TIP3   OH224885   3.493   4.752  12.363  0.4973  0.2620  0.0339
 1157TIP3    H124886   3.510   4.694  12.437 -0.7875  1.2241  1.1170
 1157TIP3    H224887   3.398   4.754  12.356  0.4579  2.8858  0.5737
 1158TIP3   OH224888   3.580   0.607   1.347  0.4032 -0.1863 -0.6839
 1158TIP3    H124889   3.636   0.532   1.370 -1.5638 -1.2067  1.1767
 1158TIP3    H224890   3.629   0.683   1.376  1.2346 -0.9868  0.1013
 1159TIP3   OH224891   2.971   1.322   3.657 -0.0513 -0.4976  0.0387
 1159TIP3    H124892   2.985   1.398   3.600 -0.6439 -0.2553  0.2092
 1159TIP3    H224893   3.028   1.254   3.620  0.1190 -0.1224 -0.4077
 1160TIP3   OH224894   6.688   5.297   4.992  0.1884 -0.0119 -0.2791
 1160TIP3    H124895   6.748   5.366   4.963  0.9892 -1.3387 -1.9819
 1160TIP3    H224896   6.601   5.329   4.968  0.6336  0.0325 -1.9548
 1161TIP3   OH224897   1.351   3.166   3.696  0.2770  0.2537 -0.2909
 1161TIP3    H124898   1.282   3.212   3.743  0.7109 -0.3948  1.0274
 1161TIP3    H224899   1.306   3.121   3.624 -0.7067 -0.3051  0.6571
 1162TIP3   OH224900   1.628   4.654   2.099 -0.2860 -0.1564 -0.5146
 1162TIP3    H124901   1.646   4.646   2.193  0.0259  0.0482 -0.5543
 1162TIP3    H224902   1.654   4.744   2.078 -1.1681  0.0835 -0.6226
 1163TIP3   OH224903   2.318   5.362  16.731  0.4321 -0.0838 -0.4299
 1163TIP3    H124904   2.326   5.457  16.742 -0.2667 -0.0113 -0.4537
 1163TIP3    H224905   2.316   5.328  16.821  0.1585 -0.0176 -0.4074
 1164TIP3   OH224906   5.473   0.060   5.820 -0.4563  0.9515 -0.0927
 1164TIP3    H124907   5.519   0.047   5.737 -0.5988  0.6110 -0.1183
 1164TIP3    H224908   5.464   0.155   5.827  0.2195  1.0217 -0.1026
 1165TIP3   OH224909   4.193   0.423   2.410  0.1168  0.2794  0.1283
 1165TIP3    H124910   4.276   0.386   2.377 -0.4462 -0.4831 -0.4736
 1165TIP3    H224911   4.207   0.518   2.408  1.2484  0.1495  0.7653
 1166TIP3   OH224912   4.128   2.698   6.186 -0.1155 -0.7895 -0.1878
 1166TIP3    H124913   4.125   2.617   6.135  0.8526 -1.0096  0.0881
 1166TIP3    H224914   4.177   2.675   6.264 -0.1164 -0.0109  0.0498
 1167TIP3   OH224915   0.370   2.715  13.233 -0.2131 -0.3453 -0.2150
 1167TIP3    H124916   0.379   2.797  13.283 -0.3453 -0.5070  0.0772
 1167TIP3    H224917   0.433   2.724  13.162  0.2660 -0.2840  0.2119
 1168TIP3   OH224918   0.910   2.988   1.153 -0.2976  0.0494  0.2575
 1168TIP3    H124919   0.886   3.069   1.197 -0.2130  0.1986  0.0302
 1168TIP3    H224920   0.827   2.944   1.135 -0.3227 -0.1065  0.7418
 1169TIP3   OH224921   2.008   1.547   5.708 -0.3744  1.1423  0.0348
 1169TIP3    H124922   2.043   1.626   5.748  0.3422  0.1324  1.4965
 1169TIP3    H224923   1.947   1.579   5.641  1.6391  2.9340 -1.0556
 1170TIP3   OH224924   1.241   0.405  11.911 -0.2453  0.1125 -1.0514
 1170TIP3    H124925   1.312   0.432  11.852  0.2659 -0.3184 -0.6447
 1170TIP3    H224926   1.219   0.485  11.960 -1.6549  0.8561 -2.7843
 1171TIP3   OH224927   3.512   5.720   5.339  0.5819 -0.7323 -0.7662
 1171TIP3    H124928   3.514   5.687   5.250 -1.3444 -1.5340 -0.5683
 1171TIP3    H224929   3.476   5.648   5.391 -1.3965  0.7454  0.0909
 1172TIP3   OH224930   6.086   2.648   3.899  0.4127 -0.1459 -0.0076
 1172TIP3    H124931   6.067   2.726   3.847 -1.4196  0.1807  1.0529
 1172TIP3    H224932   6.025   2.582   3.866  0.1717 -0.3431  0.7958
 1173TIP3   OH224933   1.821   6.502   6.303  0.1518 -0.8736 -0.3276
 1173TIP3    H124934   1.910   6.523   6.277  0.3178 -1.8404 -0.5930
 1173TIP3    H224935   1.784   6.585   6.335  0.8137 -0.2540 -1.1468
 1174TIP3   OH224936   2.899   2.444  16.482  0.0386  0.3842 -0.1683
 1174TIP3    H124937   2.881   2.386  16.408 -1.1366 -0.5091  0.7815
 1174TIP3    H224938   2.824   2.504  16.485  0.4754  0.9470 -0.1788
 1175TIP3   OH224939   3.741   2.580  16.585  0.5567 -0.3220  0.5360
 1175TIP3    H124940   3.704   2.580  16.673  0.2298  0.9242  0.4254
 1175TIP3    H224941   3.835   2.574  16.598  0.5069 -0.1628  0.9783
 1176TIP3   OH224942   4.550   0.006   1.132 -0.9029  0.7560  0.2006
 1176TIP3    H124943   4.456   0.015   1.151 -1.0281  3.1411 -1.1546
 1176TIP3    H224944   4.589   0.085   1.170  0.4623  0.1612  0.0785
 1177TIP3   OH224945   1.745   3.481   1.477 -0.1227  0.2818 -0.2141
 1177TIP3    H124946   1.820   3.461   1.532 -0.8160  0.8656  1.0023
 1177TIP3    H224947   1.733   3.576   1.487 -1.0579  0.1820 -0.3046
 1178TIP3   OH224948   2.622   0.779   4.945  0.4442  0.1167 -0.3026
 1178TIP3    H124949   2.591   0.834   5.017 -1.2360  0.3618 -1.1706
 1178TIP3    H224950   2.552   0.715   4.932  1.5114 -1.0398 -0.5874
 1179TIP3   OH224951   5.549   2.096   5.441  0.3561 -0.1687 -0.0333
 1179TIP3    H124952   5.622   2.123   5.496  0.1748 -0.7757  0.5182
 1179TIP3    H224953   5.541   2.166   5.376  1.4449 -0.1199 -0.1255
 1180TIP3   OH224954   0.549   0.765   4.284  0.4931 -0.8506 -0.3325
 1180TIP3    H124955   0.548   0.727   4.196  2.9328 -0.1860 -0.7187
 1180TIP3    H224956   0.640   0.759   4.311  0.5854  2.5741  0.5339
 1181TIP3   OH224957   5.522   4.980  12.627  0.0340 -0.0311 -0.1639
 1181TIP3    H124958   5.466   5.003  12.701 -0.4038 -1.4383 -0.0169
 1181TIP3    H224959   5.597   4.935  12.667 -0.2027 -0.7935 -0.5675
 1182TIP3   OH224960   5.069   1.562   5.059 -0.0251 -0.5706  0.7981
 1182TIP3    H124961   5.153   1.532   5.023  0.0039  0.4739 -0.0740
 1182TIP3    H224962   5.093   1.608   5.140  0.4744  1.1220 -0.2474
 1183TIP3   OH224963   5.366   6.052  16.614  0.1063 -0.2604  0.1292
 1183TIP3    H124964   5.417   6.132  16.599  0.5656 -0.4803  0.4803
 1183TIP3    H224965   5.280   6.071  16.577  0.0802  0.5495  0.5925
 1184TIP3   OH224966   4.892   3.585   0.864 -0.1956  0.3274  0.3077
 1184TIP3    H124967   4.860   3.516   0.806  3.3172 -0.2926 -1.1555
 1184TIP3    H224968   4.850   3.664   0.832 -0.8688 -0.5023 -0.9411
 1185TIP3   OH224969   4.214   3.925   6.384 -0.2225 -0.6589  0.1702
 1185TIP3    H124970   4.212   3.832   6.408  1.2675 -0.9643 -0.7883
 1185TIP3    H224971   4.258   3.967   6.458  1.0733 -1.0606 -0.3493
 1186TIP3   OH224972   0.581   6.086   4.157  1.2199 -0.0760  0.3137
 1186TIP3    H124973   0.565   6.115   4.247 -1.1182 -0.0671 -0.0613
 1186TIP3    H224974   0.623   6.001   4.167  0.0011 -0.5735  1.4355
 1187TIP3   OH224975   5.083   0.139   2.939 -0.0057  0.0842  0.9255
 1187TIP3    H124976   5.067   0.045   2.924  0.6644  0.2239 -0.9340
 1187TIP3    H224977   5.177   0.146   2.950 -0.2798  0.2275  4.1764
 1188TIP3   OH224978   2.096   4.591   1.354  0.4717 -0.3093  0.6793
 1188TIP3    H124979   2.184   4.578   1.389  0.4101  1.2857  1.5311
 1188TIP3    H224980   2.098   4.679   1.316 -1.2221  0.5328  2.3465
 1189TIP3   OH224981   3.196   5.494  15.264  0.1950  0.5777 -0.0567
 1189TIP3    H124982   3.280   5.512  15.221  0.4696  0.5369  0.4573
 1189TIP3    H224983   3.212   5.511  15.357 -0.4514  0.8726  0.0108
 1190TIP3   OH224984   4.367   4.886  10.291  0.3638  0.1303  0.3065
 1190TIP3    H124985   4.422   4.813  10.262  0.7896  0.3751  0.4840
 1190TIP3    H224986   4.387   4.895  10.384 -0.6355 -0.3455  0.5866
 1191TIP3   OH224987   5.244   3.081   5.310 -0.3812 -0.3972 -0.2983
 1191TIP3    H124988   5.269   3.173   5.324  0.4411 -0.8599  1.4500
 1191TIP3    H224989   5.255   3.069   5.215  1.4138  0.7832 -0.3043
 1192TIP3   OH224990   1.579   0.126  15.868  0.0114 -0.2120  0.1549
 1192TIP3    H124991   1.489   0.148  15.895  0.4465  1.1217  0.5746
 1192TIP3    H224992   1.625   0.109  15.950  0.7803  1.6836  0.1555
 1193TIP3   OH224993   4.025   2.101   0.441 -0.1087  0.1592  0.2305
 1193TIP3    H124994   4.000   2.096   0.533 -2.5140  0.1857 -0.3473
 1193TIP3    H224995   4.116   2.130   0.442  0.0476 -0.2300  2.5887
 1194TIP3   OH224996   5.182   0.095  12.725  0.0229 -0.2635 -0.3096
 1194TIP3    H124997   5.159   0.004  12.707 -1.0974 -0.6838  2.6995
 1194TIP3    H224998   5.098   0.137  12.745  0.4722  1.5940 -2.0032
 1195TIP3   OH224999   4.851   5.969   4.853 -0.4513  0.0289 -0.0111
 1195TIP3    H125000   4.913   6.021   4.904 -1.9197  1.5579  0.3169
 1195TIP3    H225001   4.852   6.010   4.766 -0.5576 -0.3305 -0.1843
 1196TIP3   OH225002   3.401   5.103  14.049  0.2660  0.6600 -0.3506
 1196TIP3    H125003   3.428   5.011  14.043  1.9747  1.1369 -0.3487
 1196TIP3    H225004   3.424   5.129  14.138 -0.5669  0.9995 -0.2240
 1197TIP3   OH225005   2.900   6.290  15.815 -0.1584  0.2356 -0.3283
 1197TIP3    H125006   2.844   6.225  15.772  0.8399 -0.2669 -0.9125
 1197TIP3    H225007   2.988   6.253  15.809  0.1920  0.8245  0.9271
 1198TIP3   OH225008   5.442   4.232   0.697  0.2937 -0.0687 -0.3728
 1198TIP3    H125009   5.421   4.315   0.655 -1.3504 -1.1437 -1.8164
 1198TIP3    H225010   5.439   4.251   0.791  0.7005  1.6398 -0.6691
 1199TIP3   OH225011   0.978   1.308   4.968  0.4260  0.7005 -0.2374
 1199TIP3    H125012   0.940   1.222   4.984  2.4715  0.0383  1.4788
 1199TIP3    H225013   0.916   1.369   5.008 -1.1172  0.1189 -1.5935
 1200TIP3   OH225014   2.138   2.847   0.369  0.6250 -0.8421 -0.4813
 1200TIP3    H125015   2.189   2.811   0.441  0.2933 -1.0472 -0.3477
 1200TIP3    H225016   2.127   2.939   0.391  1.5655 -0.6189 -0.8749
 1201TIP3   OH225017   5.925   5.299  11.452  0.2596  0.0858 -0.0085
 1201TIP3    H125018   5.966   5.261  11.374  0.0443 -0.6169  0.2075
 1201TIP3    H225019   5.895   5.223  11.502  0.3851  0.5309  0.7535
 1202TIP3   OH225020   1.731   1.392   0.293 -0.1679 -0.2936  0.0454
 1202TIP3    H125021   1.790   1.316   0.292  0.9974  0.4353  2.8473
 1202TIP3    H225022   1.778   1.459   0.244  0.4920 -0.3234  0.6115
 1203TIP3   OH225023   1.905   2.682   5.152 -0.4935  0.1004 -0.1334
 1203TIP3    H125024   1.959   2.677   5.231  0.6218 -1.5594 -0.9453
 1203TIP3    H225025   1.891   2.776   5.138 -2.2069  0.4392  2.9695
 1204TIP3   OH225026   0.409   4.209   3.618 -0.1978  0.5544 -0.3413
 1204TIP3    H125027   0.417   4.182   3.710  0.1554  0.1957 -0.4802
 1204TIP3    H225028   0.444   4.298   3.617  0.1308  0.4277 -0.1974
 1205TIP3   OH225029   3.083   4.765   5.540 -0.1457  0.1618  0.2341
 1205TIP3    H125030   3.053   4.674   5.542 -0.2725  0.0602 -2.3029
 1205TIP3    H225031   3.017   4.811   5.489  1.3953  1.0116 -1.1056
 1206TIP3   OH225032   3.455   4.873   0.976 -0.3947 -0.6820  0.2627
 1206TIP3    H125033   3.381   4.933   0.985  0.4859  0.5481 -0.3444
 1206TIP3    H225034   3.529   4.929   0.951  0.7212 -1.8862  0.7082
 1207TIP3   OH225035   4.142   1.868  14.635 -0.2395 -0.3995 -0.0858
 1207TIP3    H125036   4.129   1.838  14.545  0.4742  0.9648 -0.6798
 1207TIP3    H225037   4.145   1.963  14.628  3.5589 -0.2750  0.7805
 1208TIP3   OH225038   1.914   0.175   4.210  0.1310 -0.4007 -0.2353
 1208TIP3    H125039   1.867   0.099   4.177 -1.0319  0.3606 -0.3723
 1208TIP3    H225040   1.913   0.237   4.138 -1.0477  0.6725  0.6665
 1209TIP3   OH225041   2.881   0.070  14.740  0.5606  0.1638  0.1129
 1209TIP3    H125042   2.876   0.012  14.664 -1.1052  0.7131 -0.2420
 1209TIP3    H225043   2.799   0.118  14.738  1.6657  2.1936  0.6737
 1210TIP3   OH225044   4.447   3.516  16.978  0.3414 -0.1942  0.0740
 1210TIP3    H125045   4.390   3.576  17.026 -0.7392 -1.7938  0.8674
 1210TIP3    H225046   4.533   3.527  17.019  0.4899  1.7056 -0.6414
 1211TIP3   OH225047   2.217   3.704   1.044  0.6066 -0.4548 -0.6672
 1211TIP3    H125048   2.271   3.712   0.966 -1.8507 -1.6940 -2.6381
 1211TIP3    H225049   2.187   3.613   1.043 -0.7098 -0.0920  0.8670
 1212TIP3   OH225050   3.830   5.270   5.657  0.4369 -0.0627 -0.0594
 1212TIP3    H125051   3.915   5.263   5.613  0.7245  1.2344  0.2660
 1212TIP3    H225052   3.785   5.340   5.611 -0.0301 -0.0194  0.4589
 1213TIP3   OH225053   2.980   2.498  13.532  0.1391 -0.4752 -0.9995
 1213TIP3    H125054   2.994   2.589  13.509  2.0496 -0.0073  1.6823
 1213TIP3    H225055   2.886   2.492  13.551 -0.3877  0.3842 -3.0074
 1214TIP3   OH225056   6.733   0.591  12.726  0.5525  0.0823  0.4238
 1214TIP3    H125057   6.646   0.562  12.751  0.7561 -0.7713  0.1614
 1214TIP3    H225058   6.721   0.633  12.641  0.7025 -2.0012 -0.6923
 1215TIP3   OH225059   2.910   1.630  15.898 -0.3530 -0.6276  0.0162
 1215TIP3    H125060   2.948   1.688  15.963 -0.4263 -1.3760  0.7444
 1215TIP3    H225061   2.821   1.662  15.886  0.1413  0.4732 -0.9004
 1216TIP3   OH225062   0.874   2.627  14.783  0.6660  0.0551  0.6576
 1216TIP3    H125063   0.833   2.711  14.802 -0.9170 -0.4230 -0.3820
 1216TIP3    H225064   0.817   2.562  14.826  0.7171 -0.5901 -0.2171
 1217TIP3   OH225065   4.062   4.389   5.087 -0.5974  0.3368  0.0038
 1217TIP3    H125066   3.968   4.394   5.104 -1.0654 -2.5501 -1.0579
 1217TIP3    H225067   4.069   4.379   4.992  1.0847  3.5576 -0.3653
 1218TIP3   OH225068   2.080   0.980   5.126 -0.1965 -0.4192  0.0073
 1218TIP3    H125069   2.161   0.933   5.106 -0.3048 -0.4042 -0.4676
 1218TIP3    H225070   2.023   0.914   5.164 -0.1088 -0.5193 -0.0349
 1219TIP3   OH225071   5.886   1.845  12.518  0.2980 -0.1222  0.1801
 1219TIP3    H125072   5.868   1.800  12.435  0.3141  0.8637 -0.3822
 1219TIP3    H225073   5.908   1.934  12.491 -0.5409  0.4450  1.3033
 1220TIP3   OH225074   5.453   4.937  15.932 -0.6831  0.0747 -0.4421
 1220TIP3    H125075   5.430   4.891  15.851 -0.5532  0.6420 -0.8059
 1220TIP3    H225076   5.480   5.024  15.904  2.7431 -0.7443 -0.1281
 1221TIP3   OH225077   5.872   0.548   5.447 -0.0576  0.4076  0.1218
 1221TIP3    H125078   5.862   0.453   5.449 -1.8346  0.5584 -0.0856
 1221TIP3    H225079   5.904   0.570   5.535 -0.1173 -0.3335  0.3416
 1222TIP3   OH225080   5.019   1.562  17.181  0.0005 -0.6233  0.0410
 1222TIP3    H125081   5.091   1.518  17.136  0.6647 -0.1721  0.6537
 1222TIP3    H225082   4.966   1.599  17.111 -0.0709 -1.6114 -0.4482
 1223TIP3   OH225083   1.190   6.344   4.061  0.1764 -0.1636  0.0492
 1223TIP3    H125084   1.167   6.340   4.154 -0.5775  0.9429 -0.0834
 1223TIP3    H225085   1.155   6.427   4.030 -0.7221 -1.0863 -1.5474
 1224TIP3   OH225086   0.703   2.515   0.264  0.0001  0.3665 -0.2687
 1224TIP3    H125087   0.670   2.567   0.190 -0.2579  2.8426  1.4688
 1224TIP3    H225088   0.639   2.445   0.273 -0.2479  0.3013 -2.0479
 1225TIP3   OH225089   4.573   0.294  11.717  0.1815 -0.0361 -0.8198
 1225TIP3    H125090   4.486   0.295  11.676  0.2466  0.2619 -0.9515
 1225TIP3    H225091   4.610   0.380  11.698 -0.0766  0.3829  0.5063
 1226TIP3   OH225092   5.833   3.148  15.777  0.4926 -0.2073 -0.5252
 1226TIP3    H125093   5.790   3.097  15.708 -1.1529  1.6909 -0.9990
 1226TIP3    H225094   5.917   3.172  15.739  1.1986 -2.2701 -0.3869
 1227TIP3   OH225095   5.552   3.313  12.639  0.1805 -0.3161  0.2839
 1227TIP3    H125096   5.486   3.292  12.705 -0.6283 -0.8953 -0.6721
 1227TIP3    H225097   5.531   3.255  12.565  0.6718  0.7239 -0.7142
 1228TIP3   OH225098   5.185   3.326   4.575  0.2636  0.3761  0.2441
 1228TIP3    H125099   5.234   3.267   4.633  0.1739  0.7534  0.7044
 1228TIP3    H225100   5.251   3.385   4.539  0.1229  1.0277  1.0371
 1229TIP3   OH225101   4.635   4.626  11.709 -0.1557 -0.1276 -0.1530
 1229TIP3    H125102   4.676   4.577  11.780 -0.4108  1.2848  1.0073
 1229TIP3    H225103   4.694   4.699  11.693 -0.4980  0.0032 -0.8620
 1230TIP3   OH225104   0.910   3.693  10.891 -0.2126  0.8017  0.2252
 1230TIP3    H125105   0.857   3.623  10.928  0.5717  1.7092  3.3946
 1230TIP3    H225106   0.952   3.734  10.967  3.1550  1.6414 -1.8707
 1231TIP3   OH225107   0.709   6.256  16.903 -0.1729 -0.1696  0.4656
 1231TIP3    H125108   0.715   6.349  16.880 -1.4130 -0.0002  0.7034
 1231TIP3    H225109   0.790   6.238  16.950 -0.6951  1.3123  2.0765
 1232TIP3   OH225110   1.307   0.307  13.010  0.3449 -0.4501 -0.3362
 1232TIP3    H125111   1.269   0.220  13.018 -0.3015 -0.3428 -1.9148
 1232TIP3    H225112   1.394   0.293  12.972  0.9754 -0.5106  1.0592
 1233TIP3   OH225113   0.476   0.514  10.780  0.3148  0.7015  0.1083
 1233TIP3    H125114   0.565   0.497  10.812  0.1383  0.2794  0.3824
 1233TIP3    H225115   0.488   0.579  10.711  1.1002 -1.0450 -1.4740
 1234TIP3   OH225116   0.822   4.814  12.339  0.1125 -0.0479  0.0988
 1234TIP3    H125117   0.749   4.772  12.384 -1.0933 -0.1552 -1.8313
 1234TIP3    H225118   0.844   4.890  12.393 -0.4464 -0.8185  1.4509
 1235TIP3   OH225119   5.993   0.739  15.598  0.2750 -0.7005  0.0722
 1235TIP3    H125120   5.957   0.828  15.604 -0.5348 -0.9754 -0.5193
 1235TIP3    H225121   6.004   0.713  15.689  0.9350  0.1586  0.2560
 1236TIP3   OH225122   1.761   2.360  14.696 -1.0079 -0.0861  0.2983
 1236TIP3    H125123   1.715   2.356  14.612  0.2895  0.2277 -0.4451
 1236TIP3    H225124   1.691   2.363  14.761 -2.0756  1.3716 -0.8409
 1237TIP3   OH225125   3.786   0.677   5.633 -0.2345 -0.3011  0.2406
 1237TIP3    H125126   3.772   0.762   5.590 -2.7894  0.5371  2.3998
 1237TIP3    H225127   3.760   0.613   5.567  2.7461  0.3967 -1.8116
 1238TIP3   OH225128   6.300   5.743  16.630  0.0637 -0.5901  0.3018
 1238TIP3    H125129   6.292   5.822  16.683 -0.7139  0.5395 -1.3982
 1238TIP3    H225130   6.211   5.712  16.619  0.0037  0.0760 -1.5278
 1239TIP3   OH225131   6.170   1.739   5.019  0.1401  0.0758  0.3371
 1239TIP3    H125132   6.143   1.749   5.110  2.3535  1.4849  0.9102
 1239TIP3    H225133   6.151   1.647   4.999 -0.2122 -0.3200  2.2839
 1240TIP3   OH225134   5.306   5.309  15.146 -0.0688 -0.1465  0.2540
 1240TIP3    H125135   5.385   5.260  15.168 -0.2396 -1.3395 -1.5795
 1240TIP3    H225136   5.338   5.387  15.101  0.0965 -0.3174  0.0702
 1241TIP3   OH225137   6.175   6.488  15.846 -0.1963  0.0452 -0.2857
 1241TIP3    H125138   6.195   6.582  15.849  0.5195 -0.1079 -0.2963
 1241TIP3    H225139   6.085   6.483  15.879 -1.2421  1.0068 -2.7403
 1242TIP3   OH225140   1.319   0.574  13.901  0.2981 -0.4539 -0.1447
 1242TIP3    H125141   1.260   0.597  13.973  0.4387  0.3682 -0.2812
 1242TIP3    H225142   1.269   0.513  13.847  0.4937 -1.7731  1.1001
 1243TIP3   OH225143   1.754   0.012  11.519 -0.4093 -0.2655  0.2986
 1243TIP3    H125144   1.756  -0.077  11.485  0.4159  0.0883 -0.6450
 1243TIP3    H225145   1.767   0.003  11.613  1.9922 -1.0551 -0.0292
 1244TIP3   OH225146   1.605   1.494   5.804  0.3079  0.3273  0.5672
 1244TIP3    H125147   1.604   1.567   5.743  0.0754 -0.0801  0.0781
 1244TIP3    H225148   1.622   1.534   5.889  2.1620  0.7476  0.0348
 1245TIP3   OH225149   0.184   0.530   1.894  0.4133  0.1168  0.2618
 1245TIP3    H125150   0.186   0.521   1.989 -1.1694 -4.4338  0.1275
 1245TIP3    H225151   0.090   0.537   1.873  0.6660 -0.0683 -1.0067
 1246TIP3   OH225152   2.907   1.324   1.295  0.0707 -0.0594 -0.2554
 1246TIP3    H125153   2.910   1.298   1.203 -0.7673  1.5264 -0.7583
 1246TIP3    H225154   2.903   1.419   1.293 -0.3785 -0.0209  1.4117
 1247TIP3   OH225155   1.903   4.646  17.161 -0.5066  0.3539 -0.3416
 1247TIP3    H125156   1.928   4.564  17.202  0.4278  1.0274  0.4828
 1247TIP3    H225157   1.933   4.714  17.222  0.8642  1.3991 -2.0944
 1248TIP3   OH225158   0.411   0.837  10.893  0.4920 -0.1057  0.2340
 1248TIP3    H125159   0.424   0.793  10.809  2.7412 -1.9531  1.4373
 1248TIP3    H225160   0.417   0.767  10.958  1.2797  1.5924  2.0866
 1249TIP3   OH225161   0.841   0.039   5.412  0.4472 -0.6542  0.8835
 1249TIP3    H125162   0.866  -0.052   5.395  2.0908  0.2650 -2.2980
 1249TIP3    H225163   0.763   0.052   5.358 -0.2255 -0.3409  1.9109
 1250TIP3   OH225164   3.124   4.570   1.512 -0.7048 -0.4330 -0.0042
 1250TIP3    H125165   3.194   4.511   1.539 -0.2124 -0.7990 -1.8980
 1250TIP3    H225166   3.164   4.625   1.445 -2.4309 -1.3347 -1.9091
 1251TIP3   OH225167   3.224   1.917   2.478  0.6848  0.3200 -0.2006
 1251TIP3    H125168   3.226   1.892   2.385  1.6770 -1.7574  0.3147
 1251TIP3    H225169   3.309   1.889   2.512  0.6001  1.6692  1.2129
 1252TIP3   OH225170   5.371   4.693  13.477  0.2300  0.2675 -0.5981
 1252TIP3    H125171   5.298   4.640  13.446  0.1964  1.1490 -2.1724
 1252TIP3    H225172   5.425   4.633  13.528  0.5397 -1.4582 -2.8132
 1253TIP3   OH225173   3.465   2.722  15.034  0.3321  0.2149  0.0602
 1253TIP3    H125174   3.387   2.680  15.069 -0.1222  0.1031 -1.0342
 1253TIP3    H225175   3.470   2.806  15.080  0.0060 -0.1058  0.6882
 1254TIP3   OH225176   6.199   6.164   6.412  0.2932  0.7784 -0.2799
 1254TIP3    H125177   6.185   6.256   6.433 -0.2140  0.2095  2.0979
 1254TIP3    H225178   6.113   6.133   6.382 -0.1709  0.5616  1.1842
 1255TIP3   OH225179   5.712   0.688   6.135  0.4260 -0.0932 -0.5870
 1255TIP3    H125180   5.695   0.782   6.139 -1.2754 -0.3955 -0.1269
 1255TIP3    H225181   5.807   0.682   6.121  0.3867  1.6981 -2.1072
 1256TIP3   OH225182   1.290   0.537  12.402  0.5131 -0.1667  0.2129
 1256TIP3    H125183   1.321   0.543  12.493 -0.7063  0.6602  0.5989
 1256TIP3    H225184   1.347   0.471  12.362  1.5882  0.0216  1.3560
 1257TIP3   OH225185   2.444   5.197   2.118  0.4723 -0.2048 -0.3125
 1257TIP3    H125186   2.480   5.278   2.080 -1.4706  0.4855 -0.7854
 1257TIP3    H225187   2.432   5.218   2.210  1.2835 -0.4650 -0.1346
 1258TIP3   OH225188   2.054   4.046   5.080  0.3456 -0.2901 -0.4661
 1258TIP3    H125189   1.987   4.101   5.121 -0.4494 -0.7334 -1.1268
 1258TIP3    H225190   2.078   3.983   5.148  0.4763  0.2024 -0.0529
 1259TIP3   OH225191   6.662   1.338   1.525 -0.3317 -0.9832  0.0042
 1259TIP3    H125192   6.598   1.293   1.469 -1.7206  2.0543 -1.0462
 1259TIP3    H225193   6.613   1.365   1.602 -0.6950  2.1381 -1.1972
 1260TIP3   OH225194   3.813   1.596  16.532  0.4732  0.2785  0.3987
 1260TIP3    H125195   3.771   1.631  16.454  0.5671  0.2795  0.3484
 1260TIP3    H225196   3.865   1.669  16.566 -0.0927  0.4857  0.8429
 1261TIP3   OH225197   0.969   4.155   1.480  0.2562 -0.4626 -0.2614
 1261TIP3    H125198   0.919   4.091   1.429  0.1498 -1.1159  0.6268
 1261TIP3    H225199   0.962   4.123   1.570 -1.0087  1.5849  0.4366
 1262TIP3   OH225200   6.655   0.810   6.792 -0.0760  0.0192 -0.2304
 1262TIP3    H125201   6.644   0.818   6.697 -1.8141  0.3593 -0.0398
 1262TIP3    H225202   6.701   0.727   6.804 -0.5439 -0.4232 -1.3308
 1263TIP3   OH225203   0.450   3.079  12.839 -0.0114 -0.3451  0.4042
 1263TIP3    H125204   0.503   3.148  12.799 -1.3636  1.4901  1.6068
 1263TIP3    H225205   0.514   3.021  12.881  1.1362  2.0445  2.2062
 1264TIP3   OH225206   5.287   0.955   5.411 -0.1850  0.3904  0.0465
 1264TIP3    H125207   5.322   1.043   5.394 -1.7799  0.8162 -1.4162
 1264TIP3    H225208   5.274   0.918   5.323 -3.6305  0.4440  0.3986
 1265TIP3   OH225209   5.127   5.712   1.727  0.4782  0.4299 -1.0584
 1265TIP3    H125210   5.158   5.629   1.691  0.4125  0.4827 -1.2372
 1265TIP3    H225211   5.140   5.775   1.656  0.6531  0.6000 -0.8761
 1266TIP3   OH225212   6.038   2.686  16.882  0.4693 -0.5537 -0.2524
 1266TIP3    H125213   5.948   2.657  16.866 -0.0491  1.4312 -1.1163
 1266TIP3    H225214   6.031   2.745  16.957  1.2681 -1.3517  0.4703
 1267TIP3   OH225215   4.419   1.496   0.570 -0.0670 -0.1017 -0.1889
 1267TIP3    H125216   4.498   1.548   0.560  1.3301 -2.1043 -0.1686
 1267TIP3    H225217   4.408   1.453   0.485 -1.0368  0.0069 -0.1288
 1268TIP3   OH225218   0.517   3.149  11.657 -0.5233 -0.1525  0.2233
 1268TIP3    H125219   0.511   3.063  11.615  0.0578 -1.1779  2.0968
 1268TIP3    H225220   0.568   3.202  11.596 -0.9212 -1.1063 -0.9898
 1269TIP3   OH225221   2.415   0.413   0.178  0.3103  0.1043  0.1489
 1269TIP3    H125222   2.334   0.401   0.228 -0.4173 -1.6658 -1.3268
 1269TIP3    H225223   2.467   0.334   0.197  0.0847 -0.5314 -1.6837
 1270TIP3   OH225224   2.998   1.549   4.666  0.4538 -0.1063 -0.1884
 1270TIP3    H125225   3.009   1.628   4.718  1.5476 -0.3828  0.0204
 1270TIP3    H225226   3.087   1.520   4.647  0.1196  0.3187 -2.7340
 1271TIP3   OH225227   6.084   4.833   5.511 -0.3000  0.3458 -0.3916
 1271TIP3    H125228   6.016   4.781   5.554  0.3579 -0.4477 -0.2840
 1271TIP3    H225229   6.146   4.855   5.582 -0.3660  0.9391 -0.5131
 1272TIP3   OH225230   0.640   2.775  12.173 -0.0868 -0.4162 -0.4643
 1272TIP3    H125231   0.592   2.697  12.201 -1.4808 -0.3661 -2.5004
 1272TIP3    H225232   0.590   2.809  12.099  1.5111  1.3746 -0.8138
 1273TIP3   OH225233   3.019   2.326   2.242  0.3391 -0.2153 -0.1951
 1273TIP3    H125234   3.114   2.321   2.253  0.3609 -0.9146 -0.6881
 1273TIP3    H225235   2.991   2.235   2.232 -0.1047  0.1060 -2.3508
 1274TIP3   OH225236   4.380   4.925   4.811  0.0232 -0.2274 -0.4719
 1274TIP3    H125237   4.426   4.969   4.882 -0.1733 -0.1125 -0.4149
 1274TIP3    H225238   4.295   4.902   4.848  0.1850 -0.8111 -0.4453
 1275TIP3   OH225239   3.272   2.522  11.480 -0.5324  0.1935  0.3774
 1275TIP3    H125240   3.203   2.574  11.523 -0.6489  0.7232 -0.4291
 1275TIP3    H225241   3.337   2.507  11.549 -0.6931  1.0657  0.7340
 1276TIP3   OH225242   5.562   3.070  13.229 -0.4133  0.6355 -0.4305
 1276TIP3    H125243   5.485   3.113  13.267 -0.3514  1.4248 -1.1667
 1276TIP3    H225244   5.589   3.128  13.158 -0.3827 -0.6699 -1.5200
 1277TIP3   OH225245   6.473   4.105  13.369  0.5352 -0.2973 -0.0575
 1277TIP3    H125246   6.457   4.029  13.313 -1.3504 -0.2290  0.3259
 1277TIP3    H225247   6.537   4.074  13.433  0.9893 -1.0609 -0.8514
 1278TIP3   OH225248   6.619   6.522   5.383 -0.8383 -0.3498  0.3957
 1278TIP3    H125249   6.596   6.597   5.329 -1.8099 -0.6504  0.3624
 1278TIP3    H225250   6.706   6.496   5.354 -0.3846  0.9081  0.5827
 1279TIP3   OH225251   0.230   5.183  15.840 -0.0808 -0.6179  0.5873
 1279TIP3    H125252   0.269   5.098  15.858 -0.1889 -0.4824  1.5362
 1279TIP3    H225253   0.139   5.164  15.817  1.0015 -1.2116 -4.4211
 1280TIP3   OH225254   5.317   1.827   0.345  0.2111  0.6425  0.3743
 1280TIP3    H125255   5.340   1.893   0.280 -2.2221  1.5989  0.3938
 1280TIP3    H225256   5.228   1.850   0.372 -0.1537 -1.8054  1.4708
 1281TIP3   OH225257   1.845   2.455   0.567 -0.3588 -0.0187  0.2830
 1281TIP3    H125258   1.840   2.517   0.494 -0.9871  0.3837  0.6529
 1281TIP3    H225259   1.789   2.494   0.635 -0.9039 -1.0696  0.4576
 1282TIP3   OH225260   2.286   3.840   4.430  0.0994  0.1243 -0.3153
 1282TIP3    H125261   2.262   3.874   4.517 -0.2115  0.4580 -0.5288
 1282TIP3    H225262   2.202   3.830   4.385  0.1657 -1.1309 -0.1910
 1283TIP3   OH225263   4.246   3.551  14.870  0.0960 -0.5412 -0.3110
 1283TIP3    H125264   4.257   3.604  14.791 -0.6133 -1.0047 -0.7296
 1283TIP3    H225265   4.242   3.616  14.941  1.2833 -0.1495 -0.5766
 1284TIP3   OH225266   3.503   2.619   3.594  0.3417  0.5611 -0.1761
 1284TIP3    H125267   3.599   2.616   3.587  0.5357  0.8161  1.7644
 1284TIP3    H225268   3.472   2.567   3.520  1.9365  1.4010 -1.4967
 1285TIP3   OH225269   1.194   3.288   4.563 -0.4919 -0.5342 -0.0952
 1285TIP3    H125270   1.222   3.346   4.493  1.6045 -0.0813  1.0168
 1285TIP3    H225271   1.161   3.210   4.518 -1.7757  0.8005 -1.5774
 1286TIP3   OH225272   6.560   6.257  17.002  0.1973 -0.3524  0.2746
 1286TIP3    H125273   6.505   6.294  17.072 -1.1854 -1.9994  0.1141
 1286TIP3    H225274   6.645   6.298  17.015 -0.6054  1.0262  1.5843
 1287TIP3   OH225275   1.528   3.075   4.844  0.0643  0.1428 -0.2940
 1287TIP3    H125276   1.566   3.064   4.757 -1.2924 -2.3886 -0.6478
 1287TIP3    H225277   1.546   2.992   4.888 -2.8322 -0.2187  0.3669
 1288TIP3   OH225278   3.159   4.578   4.540  0.3235  0.0761  0.0714
 1288TIP3    H125279   3.208   4.532   4.609  1.1500  0.2263 -0.4097
 1288TIP3    H225280   3.069   4.578   4.572  1.0076  2.1958  2.3038
 1289TIP3   OH225281   2.335   1.057  12.056  0.0410  0.2249 -0.0134
 1289TIP3    H125282   2.418   1.025  12.023 -0.1023 -1.9490  1.5479
 1289TIP3    H225283   2.343   1.051  12.152 -1.4356  1.2464  0.2110
 1290TIP3   OH225284   4.100   2.343   3.352 -0.2957  0.1987  0.2804
 1290TIP3    H125285   4.042   2.414   3.380 -0.4970 -0.4668  1.5981
 1290TIP3    H225286   4.077   2.270   3.408  0.4910 -0.6690 -0.5045
 1291TIP3   OH225287   1.097   2.961  13.202 -0.4178 -0.0169  0.2682
 1291TIP3    H125288   1.148   2.956  13.122 -2.2242 -1.2835 -0.9009
 1291TIP3    H225289   1.082   3.054  13.217  2.8194  0.4793  1.1561
 1292TIP3   OH225290   0.552   6.297  13.849  0.4798 -0.1956 -0.0496
 1292TIP3    H125291   0.558   6.393  13.846 -0.6372 -0.0681 -3.8256
 1292TIP3    H225292   0.627   6.267  13.797  1.2579 -1.4610  1.7289
 1293TIP3   OH225293   3.689   1.709   0.593  0.2125  0.0873 -0.1092
 1293TIP3    H125294   3.696   1.619   0.561  2.1581  0.4404 -0.7610
 1293TIP3    H225295   3.600   1.735   0.568  0.1506 -1.1214 -1.3026
 1294TIP3   OH225296   6.413   3.729   3.751  0.3446 -0.2809 -0.2031
 1294TIP3    H125297   6.428   3.751   3.659  3.3682  1.6659  0.6103
 1294TIP3    H225298   6.320   3.747   3.765  0.3449  1.8436 -2.2936
 1295TIP3   OH225299   3.775   2.319  16.011  0.0362  0.2156 -0.0923
 1295TIP3    H125300   3.862   2.349  16.037  0.5234  0.2583 -1.6614
 1295TIP3    H225301   3.717   2.392  16.034  0.5459  0.5509  0.1573
 1296TIP3   OH225302   4.784   4.359   2.997 -0.4890 -0.2368  0.1108
 1296TIP3    H125303   4.789   4.313   2.913 -0.9715 -0.0877 -0.0038
 1296TIP3    H225304   4.869   4.401   3.007  0.0106 -1.2523  0.2757
 1297TIP3   OH225305   5.070   2.752  11.262  0.4349  0.2999  0.5572
 1297TIP3    H125306   5.021   2.681  11.220 -0.7496  1.3395  0.1295
 1297TIP3    H225307   5.105   2.713  11.342  1.8027 -1.4149 -0.8067
 1298TIP3   OH225308   6.373   5.847  13.757  1.0864  0.1228  0.9226
 1298TIP3    H125309   6.291   5.886  13.787  1.6167  2.2863 -0.2668
 1298TIP3    H225310   6.348   5.761  13.723 -0.9673  1.2908 -0.7198
 1299TIP3   OH225311   2.341   0.503   0.584 -0.2088  0.8880  0.2492
 1299TIP3    H125312   2.306   0.482   0.498  0.8880 -1.0551  0.2264
 1299TIP3    H225313   2.265   0.508   0.641 -0.7599 -0.2683 -0.3718
 1300TIP3   OH225314   1.268   3.114  11.290  0.1642  0.6811  0.2275
 1300TIP3    H125315   1.300   3.173  11.222  0.2415 -0.0033 -0.3471
 1300TIP3    H225316   1.343   3.101  11.348  0.6251 -0.0452 -0.4982
 1301TIP3   OH225317   1.421   5.073   3.040  0.6286  0.1664 -0.5587
 1301TIP3    H125318   1.461   5.040   2.959  0.1901 -0.4701 -0.5184
 1301TIP3    H225319   1.418   4.997   3.098  0.1733  0.4230 -0.2401
 1302TIP3   OH225320   3.080   3.930  15.576 -0.5256  0.2051  0.4965
 1302TIP3    H125321   3.043   4.016  15.557 -0.2400  0.3206  0.4675
 1302TIP3    H225322   3.006   3.879  15.609 -0.7561  0.3764  0.2514
 1303TIP3   OH225323   4.387   1.285  10.762 -0.3626  0.7792 -0.3080
 1303TIP3    H125324   4.299   1.247  10.767 -0.6101  1.2756 -0.7832
 1303TIP3    H225325   4.372   1.380  10.758  0.3002  1.0725  2.4387
 1304TIP3   OH225326   5.503   1.887  13.255 -0.0039  0.0455  0.3349
 1304TIP3    H125327   5.545   1.963  13.216 -0.1357  0.4532  0.9861
 1304TIP3    H225328   5.477   1.833  13.180 -1.6974  1.5745 -0.2231
 1305TIP3   OH225329   2.315   2.679   2.722 -0.0868 -0.0770 -0.6028
 1305TIP3    H125330   2.252   2.751   2.719  1.0389  0.8997 -1.4031
 1305TIP3    H225331   2.353   2.684   2.810 -0.5098 -0.1312 -0.4174
 1306TIP3   OH225332   3.148   0.979  14.704  0.0342 -0.1020 -0.3038
 1306TIP3    H125333   3.127   0.986  14.797  1.4525  0.7826 -0.0110
 1306TIP3    H225334   3.100   1.052  14.663 -0.4143 -0.3589 -0.2441
 1307TIP3   OH225335   6.534   6.301  14.955  0.6522 -0.1792  0.6427
 1307TIP3    H125336   6.559   6.375  15.010  1.2892  0.1876 -0.1116
 1307TIP3    H225337   6.616   6.274  14.913  0.0431  0.1216 -0.8035
 1308TIP3   OH225338   3.131   1.791   4.864 -0.5183  0.7074  0.1133
 1308TIP3    H125339   3.084   1.757   4.940 -0.5099 -1.7316 -0.8819
 1308TIP3    H225340   3.210   1.831   4.900 -0.9982  0.4940  1.4397
 1309TIP3   OH225341   4.682   0.707   1.389 -0.4988  0.1255  0.0321
 1309TIP3    H125342   4.603   0.734   1.435 -1.5473 -0.2355 -1.4977
 1309TIP3    H225343   4.742   0.781   1.399 -1.3324  0.7573  0.4654
 1310TIP3   OH225344   4.982   3.126  13.390 -0.1690 -0.1698  0.2287
 1310TIP3    H125345   4.987   3.172  13.474 -0.1442  0.1793  0.0371
 1310TIP3    H225346   5.057   3.159  13.340 -0.5199  0.0527 -0.1490
 1311TIP3   OH225347   2.723   0.398  17.366 -0.2006 -0.4823 -0.4798
 1311TIP3    H125348   2.791   0.443  17.316  0.2178 -1.6823 -1.0317
 1311TIP3    H225349   2.641   0.441  17.341  0.4448  2.1614  1.4953
 1312TIP3   OH225350   3.553   2.700   2.932  0.2926 -0.2908 -0.1438
 1312TIP3    H125351   3.535   2.790   2.905  1.2578  0.0797  0.3924
 1312TIP3    H225352   3.480   2.649   2.897  0.4172  0.4913 -1.6071
 1313TIP3   OH225353   5.232   5.828  11.241 -0.2356  0.2569 -0.1412
 1313TIP3    H125354   5.321   5.797  11.227 -0.9071 -1.4824 -0.9371
 1313TIP3    H225355   5.182   5.788  11.169 -1.6726  1.0844  0.3643
 1314TIP3   OH225356   0.076   4.004   4.749  0.1824  0.1381  0.0788
 1314TIP3    H125357   0.056   3.913   4.771 -1.9218  0.5006 -0.1671
 1314TIP3    H225358   0.078   4.049   4.834  0.9826 -0.0686  0.1806
 1315TIP3   OH225359   2.362   2.295   5.876  0.2549  0.4100  0.9612
 1315TIP3    H125360   2.384   2.290   5.969  0.0761  0.1954  0.9930
 1315TIP3    H225361   2.298   2.225   5.863 -1.5309  1.9005  1.2145
 1316TIP3   OH225362   2.940   3.584  16.060 -0.2851 -0.3418 -0.3682
 1316TIP3    H125363   2.872   3.649  16.046  1.2826  1.5507  0.3826
 1316TIP3    H225364   2.954   3.543  15.974 -2.0538 -0.4935 -0.6033
 1317TIP3   OH225365   3.594   0.637  15.724 -0.7803  0.6585 -0.5408
 1317TIP3    H125366   3.504   0.657  15.750 -1.2751 -0.9520 -0.9331
 1317TIP3    H225367   3.644   0.640  15.806 -1.1629  1.6199 -0.3271
 1318TIP3   OH225368   5.238   5.867   5.012  0.3118 -0.5843 -0.2096
 1318TIP3    H125369   5.180   5.820   5.072  0.5312  0.9726  1.2944
 1318TIP3    H225370   5.325   5.860   5.053  0.1884  1.9298  0.6524
 1319TIP3   OH225371   2.346   2.208   4.301 -0.1653  0.7433  0.0214
 1319TIP3    H125372   2.436   2.228   4.327  0.8418 -2.4248 -0.4786
 1319TIP3    H225373   2.298   2.200   4.384  0.7423 -0.2639  0.4742
 1320TIP3   OH225374   4.334   3.694  14.639 -0.4683 -0.5188 -0.2933
 1320TIP3    H125375   4.348   3.622  14.578 -0.5063 -0.2424 -0.6373
 1320TIP3    H225376   4.411   3.750  14.628 -0.1755 -0.7876  0.3745
 1321TIP3   OH225377   2.334   0.795  11.138  0.1820 -0.2686 -0.2091
 1321TIP3    H125378   2.396   0.722  11.147  1.5175  0.8958  0.2772
 1321TIP3    H225379   2.335   0.814  11.044 -1.0352 -1.5793 -0.5171
 1322TIP3   OH225380   0.645   5.027   3.779  0.4108  0.1448  0.1354
 1322TIP3    H125381   0.572   4.983   3.822 -0.2704  0.3321 -0.7929
 1322TIP3    H225382   0.656   5.109   3.828  0.4290 -0.1884  0.6850
 1323TIP3   OH225383   0.730   3.526  13.347  0.7424 -0.1856 -0.2373
 1323TIP3    H125384   0.687   3.601  13.387 -0.8125 -1.0400 -0.2265
 1323TIP3    H225385   0.711   3.534  13.254 -0.8849 -1.3835 -0.0687
 1324TIP3   OH225386   5.408   0.773  15.478 -0.6165 -0.2964  0.5674
 1324TIP3    H125387   5.389   0.837  15.547 -1.8251 -0.2583  0.2067
 1324TIP3    H225388   5.497   0.743  15.498 -0.9907 -0.3890  2.2319
 1325TIP3   OH225389   2.870   0.932   3.844  0.7440  0.5986 -0.6536
 1325TIP3    H125390   2.922   0.945   3.764  0.7039 -0.0353 -0.7841
 1325TIP3    H225391   2.780   0.921   3.813  0.4180  2.2674 -0.3934
 1326TIP3   OH225392   3.616   1.012  14.914 -0.0500  0.1264 -0.4346
 1326TIP3    H125393   3.695   0.987  14.961 -0.3946 -2.5063 -1.1071
 1326TIP3    H225394   3.551   1.029  14.983  0.0518 -1.5651  0.1318
 1327TIP3   OH225395   1.604   2.350   0.713  0.7996  0.2316 -0.1330
 1327TIP3    H125396   1.549   2.420   0.678 -0.7503 -0.9446 -0.1700
 1327TIP3    H225397   1.566   2.332   0.799  0.4509 -1.2940 -0.5805
 1328TIP3   OH225398   3.703   3.005  11.921 -0.0807  0.2453 -0.0823
 1328TIP3    H125399   3.650   2.929  11.942  0.0342  0.1894  0.0070
 1328TIP3    H225400   3.643   3.079  11.929 -0.2867  0.1318 -0.5384
 1329TIP3   OH225401   5.267   4.767  11.932 -0.1054 -0.3881  0.5298
 1329TIP3    H125402   5.345   4.730  11.891 -0.0104  1.1504 -0.7743
 1329TIP3    H225403   5.301   4.820  12.004  0.4024  2.3497 -1.5450
 1330TIP3   OH225404   6.759   4.498   3.099  0.8070 -0.5955  0.4825
 1330TIP3    H125405   6.852   4.521   3.100  0.4319  0.9775  1.4394
 1330TIP3    H225406   6.743   4.459   3.185  0.8075 -1.9842 -0.1122
 1331TIP3   OH225407   2.556   0.042   4.133  0.7430 -0.4830  0.0480
 1331TIP3    H125408   2.549   0.037   4.228  2.2973 -0.0287  0.2250
 1331TIP3    H225409   2.476   0.087   4.104 -0.5895 -2.1946  0.9403
 1332TIP3   OH225410   3.194   4.290  12.752  0.1948  0.1437  0.4594
 1332TIP3    H125411   3.098   4.285  12.754  0.1319  0.8600 -0.3996
 1332TIP3    H225412   3.216   4.279  12.660  1.0101 -1.0398  0.7791
 1333TIP3   OH225413   3.556   6.007  11.688 -0.3128 -0.6899 -0.3124
 1333TIP3    H125414   3.629   5.945  11.688 -0.4020 -0.8136 -1.5864
 1333TIP3    H225415   3.567   6.057  11.607 -2.3983 -1.6277 -1.2477
 1334TIP3   OH225416   4.489   4.743  14.224  0.0499 -0.2724  0.0925
 1334TIP3    H125417   4.483   4.830  14.265 -0.9898 -0.9274  1.4143
 1334TIP3    H225418   4.565   4.703  14.265  0.7678  0.1427 -0.8093
 1335TIP3   OH225419   4.544   3.639   5.387 -0.1087 -0.3335  0.8870
 1335TIP3    H125420   4.500   3.578   5.328 -0.1008  1.3211 -0.9169
 1335TIP3    H225421   4.637   3.619   5.379 -0.1868 -0.8461  1.2165
 1336TIP3   OH225422   2.453   1.048  12.554  0.5853 -0.0153 -0.5720
 1336TIP3    H125423   2.465   0.968  12.606 -0.3932  0.2062  0.0172
 1336TIP3    H225424   2.491   1.118  12.608  0.6722  0.0435 -0.7087
 1337TIP3   OH225425   6.324   4.834   3.311 -0.0966 -0.0779 -0.5039
 1337TIP3    H125426   6.357   4.744   3.312 -0.9065 -0.3924 -0.7964
 1337TIP3    H225427   6.390   4.883   3.262  1.3805 -0.0660  1.3792
 1338TIP3   OH225428   1.877   1.969   2.760 -0.2128  0.3116  0.1999
 1338TIP3    H125429   1.905   1.978   2.851  0.5178  0.7143 -0.0557
 1338TIP3    H225430   1.793   1.923   2.765 -0.8188  1.4805  1.1497
 1339TIP3   OH225431   0.723   4.207   5.194 -0.4680  0.1972 -0.0477
 1339TIP3    H125432   0.783   4.146   5.151 -0.3871 -0.8973  1.5139
 1339TIP3    H225433   0.771   4.289   5.198  0.8809 -0.5944  0.9426
 1340TIP3   OH225434   5.602   2.199  11.762 -0.0169  0.2090  0.1045
 1340TIP3    H125435   5.539   2.215  11.832  1.5759 -1.1172  1.9242
 1340TIP3    H225436   5.661   2.275  11.764  1.6276 -1.0307  2.0916
 1341TIP3   OH225437   4.495   0.008   5.513  0.0496 -0.3601 -0.0275
 1341TIP3    H125438   4.567   0.032   5.571  0.3652 -2.5772  0.5854
 1341TIP3    H225439   4.432  -0.036   5.571 -0.1403 -1.6164 -1.1627
 1342TIP3   OH225440   1.047   6.511   0.189  0.0835  0.0204  0.3375
 1342TIP3    H125441   1.052   6.541   0.280  0.4034 -1.2561  0.7660
 1342TIP3    H225442   1.130   6.540   0.150  2.4759 -3.8372  1.9337
 1343TIP3   OH225443   3.522   4.566   4.867 -0.3556 -0.1115  0.0203
 1343TIP3    H125444   3.582   4.607   4.804 -1.6971  0.8423 -0.6839
 1343TIP3    H225445   3.535   4.615   4.948 -0.3117  0.2164 -0.1840
 1344TIP3   OH225446   5.585   0.545  16.435  0.3473 -0.0350 -0.6423
 1344TIP3    H125447   5.599   0.529  16.529  0.7696 -1.4470 -0.9203
 1344TIP3    H225448   5.494   0.518  16.420 -0.2447  1.6736 -0.3679
 1345TIP3   OH225449   2.388   0.975   3.217 -0.0338  0.2856 -0.2378
 1345TIP3    H125450   2.456   0.928   3.168  0.9558 -0.5401  1.8167
 1345TIP3    H225451   2.306   0.932   3.190  0.6613 -1.3352  0.1099
 1346TIP3   OH225452   1.365   1.359  13.087  0.1679 -0.4632  0.0527
 1346TIP3    H125453   1.424   1.434  13.097 -1.8636  1.3977 -1.0468
 1346TIP3    H225454   1.281   1.390  13.120 -1.3974 -1.2992 -2.8328
 1347TIP3   OH225455   3.568   1.870  15.316 -0.4764 -0.2616  0.5673
 1347TIP3    H125456   3.475   1.851  15.301 -1.0397  0.2136  2.9227
 1347TIP3    H225457   3.567   1.952  15.366  1.1324 -0.7965  1.5386
 1348TIP3   OH225458   1.918   3.064   2.251  0.1130 -0.1527 -0.0200
 1348TIP3    H125459   1.922   3.089   2.343 -0.0481 -0.8271  0.1799
 1348TIP3    H225460   1.988   3.113   2.209 -1.0331  1.6597  0.0836
 1349TIP3   OH225461   4.791   5.663  14.468  0.2030  0.2441  0.4191
 1349TIP3    H125462   4.824   5.574  14.451  0.1069  0.1817  0.5631
 1349TIP3    H225463   4.844   5.695  14.541  0.2254  0.2992  0.3784
 1350TIP3   OH225464   4.482   4.029  13.981 -0.0735  0.1065  0.1700
 1350TIP3    H125465   4.414   4.080  13.937 -0.3253  0.7576  1.2862
 1350TIP3    H225466   4.546   4.094  14.010  0.7230 -0.4422 -0.3444
 1351TIP3   OH225467   0.672   1.681   2.312  0.1051 -0.0619  0.2746
 1351TIP3    H125468   0.618   1.634   2.248 -0.4253  0.5518  0.2658
 1351TIP3    H225469   0.682   1.619   2.385 -0.6506 -0.1626  0.2980
 1352TIP3   OH225470   0.246   1.299   0.371  0.1676 -0.1520  0.5057
 1352TIP3    H125471   0.272   1.252   0.451 -2.3280 -0.5416  1.1562
 1352TIP3    H225472   0.196   1.235   0.321  1.0329  0.3351 -1.0599
 1353TIP3   OH225473   6.185   2.695   5.336  0.3691 -0.3801 -0.3558
 1353TIP3    H125474   6.132   2.616   5.348  0.1711 -0.3097 -0.7400
 1353TIP3    H225475   6.238   2.677   5.259 -0.0058  0.0345 -0.7179
 1354TIP3   OH225476   1.746   5.581  17.018  0.0907  0.1371  0.6240
 1354TIP3    H125477   1.679   5.517  16.994 -0.4714  1.7524 -2.6414
 1354TIP3    H225478   1.829   5.533  17.005 -0.3520 -0.4639 -0.0987
 1355TIP3   OH225479   4.111   4.966   1.308 -0.5289  0.2990  0.3148
 1355TIP3    H125480   4.092   4.999   1.220 -0.5903  1.1338  0.6331
 1355TIP3    H225481   4.045   5.007   1.364  0.3589  0.8579  0.9643
 1356TIP3   OH225482   4.098   6.692   3.298 -0.1157  0.1608 -0.1965
 1356TIP3    H125483   4.026   6.630   3.291  0.2297 -0.2035 -0.5827
 1356TIP3    H225484   4.058   6.772   3.332 -0.5905 -0.2238  0.1594
 1357TIP3   OH225485   0.568   6.093  11.909  0.1454  0.6337  0.0093
 1357TIP3    H125486   0.652   6.124  11.940 -1.0697  3.1438  1.0558
 1357TIP3    H225487   0.515   6.172  11.900 -1.5743 -0.6553 -2.3724
 1358TIP3   OH225488   5.530   4.776  15.472  0.5747  0.3867 -0.4941
 1358TIP3    H125489   5.586   4.854  15.472  0.0273  0.7892  0.7054
 1358TIP3    H225490   5.441   4.810  15.470  0.3341 -0.2157 -0.2292
 1359TIP3   OH225491   4.827   2.463  12.979 -0.5462  0.3887  0.4975
 1359TIP3    H125492   4.877   2.496  13.053 -0.1302 -1.2276  0.9803
 1359TIP3    H225493   4.749   2.423  13.018 -0.3892 -0.3568  0.0823
 1360TIP3   OH225494   1.632   5.987  12.683 -0.1540 -0.3197 -0.4422
 1360TIP3    H125495   1.646   5.905  12.729  2.6725  1.2694  1.8962
 1360TIP3    H225496   1.570   6.035  12.738 -0.4295 -0.2104 -0.8436
 1361TIP3   OH225497   3.913   0.976   4.756 -0.1613 -0.1825  0.2874
 1361TIP3    H125498   3.961   0.909   4.805 -0.4169 -1.3402 -1.0017
 1361TIP3    H225499   3.864   0.927   4.690 -1.5781  1.1466  0.2944
 1362TIP3   OH225500   6.422   1.164  15.834 -0.5249 -0.0779  0.2399
 1362TIP3    H125501   6.476   1.230  15.791 -2.2164  1.1325 -0.1306
 1362TIP3    H225502   6.412   1.094  15.769 -1.8518  1.0674 -0.8439
 1363TIP3   OH225503   5.160   4.837   5.474 -0.0227  0.8905  0.4467
 1363TIP3    H125504   5.144   4.924   5.437 -1.0272  0.4804 -0.1347
 1363TIP3    H225505   5.092   4.782   5.435  0.8533 -0.2530  0.4898
 1364TIP3   OH225506   5.350   0.365  16.855 -0.4466 -0.1622 -0.0187
 1364TIP3    H125507   5.314   0.349  16.942  0.8828  0.0060  0.5795
 1364TIP3    H225508   5.414   0.296  16.841 -2.9480 -2.2396 -2.3034
 1365TIP3   OH225509   0.242   2.760   4.677 -0.1412 -0.1280  0.2807
 1365TIP3    H125510   0.245   2.797   4.765  1.6600 -0.4160  0.3769
 1365TIP3    H225511   0.148   2.750   4.658 -0.5702  0.7417  1.8061
 1366TIP3   OH225512   5.181   4.870  13.725 -0.4316  0.2387 -0.3799
 1366TIP3    H125513   5.161   4.812  13.652 -1.5445  1.1851 -0.8790
 1366TIP3    H225514   5.146   4.825  13.802  0.1311 -0.4542 -0.5229
 1367TIP3   OH225515   1.870   0.824   2.005 -0.2820  0.0293  0.6905
 1367TIP3    H125516   1.918   0.750   1.967 -0.7710 -0.3196  0.7519
 1367TIP3    H225517   1.923   0.900   1.982  0.6346 -0.4019  1.2822
 1368TIP3   OH225518   6.484   0.395  12.816 -0.2102  0.4726  0.0984
 1368TIP3    H125519   6.395   0.428  12.809  0.0923  1.2280 -0.2718
 1368TIP3    H225520   6.496   0.341  12.737 -0.6412 -0.3936  0.6114
 1369TIP3   OH225521   6.473   1.669  12.128 -0.4917 -0.0615  0.1542
 1369TIP3    H125522   6.449   1.733  12.061 -0.6847 -1.2234 -0.9147
 1369TIP3    H225523   6.394   1.657  12.180 -0.7145 -0.1076 -0.1984
 1370TIP3   OH225524   3.737   6.110   6.261  0.0514  0.1075  1.0863
 1370TIP3    H125525   3.802   6.149   6.319  0.3960 -1.8074  2.0369
 1370TIP3    H225526   3.768   6.022   6.244 -1.0643 -0.0484 -0.4394
 1371TIP3   OH225527   5.250   1.398  13.530 -0.3712 -0.1256  0.0431
 1371TIP3    H125528   5.334   1.365  13.499  0.4612  0.9840  0.9807
 1371TIP3    H225529   5.212   1.326  13.580  0.0209 -0.6382 -0.3950
 1372TIP3   OH225530   0.609   1.489  15.167  0.5126 -0.5751 -0.4376
 1372TIP3    H125531   0.592   1.517  15.077  0.6656 -0.4645 -0.4319
 1372TIP3    H225532   0.533   1.434  15.189 -0.5015  0.9563  0.0301
 1373TIP3   OH225533   5.684   5.998   2.759 -0.2864 -0.1136 -0.7204
 1373TIP3    H125534   5.747   5.927   2.743  1.0064  0.8617 -0.1756
 1373TIP3    H225535   5.599   5.954   2.765  0.4406 -1.5822 -0.6693
 1374TIP3   OH225536   3.517   0.169  11.450 -0.1049 -0.2335  0.1325
 1374TIP3    H125537   3.524   0.074  11.448 -1.8499 -0.3896 -0.0344
 1374TIP3    H225538   3.487   0.193  11.362  0.0210  0.4407  0.2669
 1375TIP3   OH225539   6.215   6.603  16.190  0.4222  0.2966  0.1869
 1375TIP3    H125540   6.256   6.673  16.240  0.7489 -0.7103  1.3578
 1375TIP3    H225541   6.134   6.642  16.155  2.1374  2.2431 -1.9542
 1376TIP3   OH225542   6.526   1.744  15.498  0.2392 -0.3372 -0.2503
 1376TIP3    H125543   6.576   1.810  15.451  1.1818 -1.0828 -0.3315
 1376TIP3    H225544   6.591   1.678  15.523 -0.1404  0.2067  2.4419
 1377TIP3   OH225545   3.900   6.717   4.404  0.0111  0.2131 -0.1842
 1377TIP3    H125546   3.923   6.805   4.373  0.7443 -0.0841 -0.5216
 1377TIP3    H225547   3.930   6.659   4.334 -0.2714 -0.3222  0.1318
 1378TIP3   OH225548   5.618   4.859   5.731  0.2152  0.2559 -0.3017
 1378TIP3    H125549   5.624   4.827   5.821  0.4824  1.5064  0.1439
 1378TIP3    H225550   5.526   4.847   5.707  0.5369 -2.0237 -0.6428
 1379TIP3   OH225551   2.731   0.096   3.325 -0.6088 -0.1926  0.6583
 1379TIP3    H125552   2.729   0.009   3.366  0.1252  0.1952  1.5687
 1379TIP3    H225553   2.639   0.123   3.321 -0.8432 -1.0156  0.3475
 1380TIP3   OH225554   4.220   1.373  12.181 -0.7551 -0.2062 -0.0514
 1380TIP3    H125555   4.303   1.347  12.222 -0.3578  0.0649 -0.6519
 1380TIP3    H225556   4.186   1.443  12.237  0.3441  0.9461 -0.7480
 1381TIP3   OH225557   0.079   5.627   6.465  0.1341 -0.0421  0.1245
 1381TIP3    H125558   0.079   5.672   6.549  0.5254 -0.8557  0.5687
 1381TIP3    H225559   0.141   5.677   6.411  0.6058 -0.0732  0.6312
 1382TIP3   OH225560   4.197   2.053   2.185 -0.4301  0.0513  0.1120
 1382TIP3    H125561   4.143   2.052   2.106  1.3538 -2.0873 -1.1922
 1382TIP3    H225562   4.242   2.137   2.182  0.6515 -0.5300 -1.9696
 1383TIP3   OH225563   1.610   5.727  17.232  0.2671  0.4944 -0.2339
 1383TIP3    H125564   1.666   5.768  17.298  1.1903  1.3872 -1.5082
 1383TIP3    H225565   1.672   5.690  17.168 -0.5937 -0.6253 -0.4610
 1384TIP3   OH225566   5.158   4.424  15.814 -0.0984 -0.0392  0.0776
 1384TIP3    H125567   5.065   4.410  15.830 -0.1752 -1.4307 -1.3259
 1384TIP3    H225568   5.198   4.338  15.827  0.9399  0.4714  0.3516
 1385TIP3   OH225569   0.075   4.429  15.916  0.5635 -0.3083 -0.0577
 1385TIP3    H125570   0.140   4.466  15.858  0.9404  0.2174  0.6807
 1385TIP3    H225571  -0.009   4.451  15.877  0.7101  2.5497  1.0213
 1386TIP3   OH225572   0.193   0.001   0.549 -0.4441 -0.6375  0.5608
 1386TIP3    H125573   0.140  -0.011   0.628  0.8361  0.6988  1.6818
 1386TIP3    H225574   0.282   0.014   0.581  0.1707 -0.3504 -1.1307
 1387TIP3   OH225575   3.235   0.044   1.894 -0.0590 -0.7349 -0.2889
 1387TIP3    H125576   3.147   0.021   1.925  0.3613  0.0593  1.6295
 1387TIP3    H225577   3.230   0.137   1.874  0.6261 -0.3706  1.0692
 1388TIP3   OH225578   6.397   5.561   3.474  0.3683 -0.3701  0.1289
 1388TIP3    H125579   6.489   5.570   3.448 -0.4249  0.7653 -2.6368
 1388TIP3    H225580   6.371   5.476   3.437  0.1390 -0.4063  0.3753
 1389TIP3   OH225581   6.702   4.349   2.732  0.0878 -0.2532 -0.5154
 1389TIP3    H125582   6.695   4.352   2.827 -0.0940 -1.6550 -0.4686
 1389TIP3    H225583   6.618   4.381   2.700  0.1493  0.2194 -0.2204
 1390TIP3   OH225584   6.121   3.823   2.534  0.2692  0.1066  0.3812
 1390TIP3    H125585   6.028   3.816   2.512  0.3560 -0.8429  0.2827
 1390TIP3    H225586   6.148   3.733   2.554  1.4436  0.1820 -0.7359
 1391TIP3   OH225587   6.559   4.640   4.963  0.3021 -0.0359  0.0561
 1391TIP3    H125588   6.649   4.648   4.932  0.4324 -1.5961 -0.0777
 1391TIP3    H225589   6.556   4.690   5.044  1.4286 -0.3677  0.3165
 1392TIP3   OH225590   0.628   2.841  12.486 -0.0705  0.1312 -0.2018
 1392TIP3    H125591   0.585   2.758  12.465 -0.0870 -0.1503  0.8793
 1392TIP3    H225592   0.641   2.837  12.581 -0.8381  1.7289 -0.0023
 1393TIP3   OH225593   2.210   0.703  11.878 -0.4903  0.5237  0.0746
 1393TIP3    H125594   2.207   0.616  11.918  0.5346  0.4966  0.1387
 1393TIP3    H225595   2.127   0.712  11.832 -0.1551 -0.9478 -0.8883
 1394TIP3   OH225596   1.121   4.901  16.196  0.2895  0.5332 -0.1630
 1394TIP3    H125597   1.038   4.901  16.243  1.6506  1.9434  2.5107
 1394TIP3    H225598   1.142   4.808  16.183 -0.5179  0.0936  1.4457
 1395TIP3   OH225599   1.179   3.111  11.845  0.0662 -0.9193 -0.4779
 1395TIP3    H125600   1.214   3.149  11.765 -2.6934  1.9704 -0.5456
 1395TIP3    H225601   1.231   3.149  11.916 -0.8181  0.8679 -0.7241
 1396TIP3   OH225602   5.867   2.800  16.043 -0.3260 -0.0746 -0.1300
 1396TIP3    H125603   5.939   2.763  16.094 -1.2829 -0.4907  0.9815
 1396TIP3    H225604   5.829   2.726  15.997 -0.4640  0.0191 -0.1683
 1397TIP3   OH225605   3.471   5.858   4.412  0.1734  0.5298  0.0128
 1397TIP3    H125606   3.529   5.908   4.354 -1.3761  2.2618 -0.1295
 1397TIP3    H225607   3.383   5.876   4.379 -0.7401  1.1387  2.5276
 1398TIP3   OH225608   1.411   2.826   1.071 -0.0185 -0.2715  0.0387
 1398TIP3    H125609   1.381   2.737   1.052  0.1915 -1.2002  3.5132
 1398TIP3    H225610   1.331   2.877   1.079 -0.3795 -1.0885  1.9748
 1399TIP3   OH225611   6.321   0.119  15.732 -0.6498  0.5369 -0.3067
 1399TIP3    H125612   6.286   0.056  15.668  2.4188 -3.1339  1.2063
 1399TIP3    H225613   6.323   0.070  15.814  2.7058  2.2716  0.8262
 1400TIP3   OH225614   1.763   3.064   0.784 -0.1355 -0.0827  0.0901
 1400TIP3    H125615   1.772   3.001   0.857  1.0986  0.2499  0.2617
 1400TIP3    H225616   1.707   3.133   0.819 -1.0732 -0.8300  0.0818
 1401TIP3   OH225617   0.800   1.975  14.162  0.7034  0.1204  0.7103
 1401TIP3    H125618   0.892   1.962  14.140  0.6112 -1.2260  1.0252
 1401TIP3    H225619   0.786   1.920  14.239 -0.9693 -1.7970 -0.8676
 1402TIP3   OH225620   0.181   0.205  13.938  0.2113  0.2564 -0.3770
 1402TIP3    H125621   0.238   0.191  13.863 -1.4073  1.1953 -1.8692
 1402TIP3    H225622   0.218   0.282  13.982  1.6953 -0.8418  0.3532
 1403TIP3   OH225623   3.581   0.946  15.396  0.3119 -0.9642  0.5264
 1403TIP3    H125624   3.522   0.979  15.464 -1.8005 -2.7644 -0.2857
 1403TIP3    H225625   3.625   0.872  15.437  2.1513  0.4125  1.1491
 1404TIP3   OH225626   5.311   4.712   2.735  0.2554 -0.1137  0.8286
 1404TIP3    H125627   5.296   4.802   2.762  0.4711 -0.4926  2.3100
 1404TIP3    H225628   5.224   4.673   2.732  0.0394  0.4437 -1.0401
 1405TIP3   OH225629   1.599   5.093   2.180 -0.9868 -0.1989 -0.6254
 1405TIP3    H125630   1.561   5.044   2.253 -1.7453 -0.3789 -1.1359
 1405TIP3    H225631   1.588   5.185   2.204 -1.0121 -0.2588 -0.4055
 1406TIP3   OH225632   0.302   6.664   3.708  0.4564  0.0173 -0.4403
 1406TIP3    H125633   0.271   6.750   3.734 -1.5088 -0.3272 -1.4299
 1406TIP3    H225634   0.238   6.603   3.744  1.5717 -1.0181 -0.1363
 1407TIP3   OH225635   0.197   4.203   2.146  0.1658 -0.2775 -0.0752
 1407TIP3    H125636   0.202   4.112   2.118 -0.5692  0.3102 -2.2994
 1407TIP3    H225637   0.124   4.205   2.208 -1.2711 -0.8547 -1.6796
 1408TIP3   OH225638   1.158   4.590  16.034 -0.1181  0.3215  0.2948
 1408TIP3    H125639   1.079   4.536  16.040  0.6220 -0.8102  0.1304
 1408TIP3    H225640   1.149   4.635  15.950  0.5982 -1.7967 -0.9999
 1409TIP3   OH225641   4.492   0.490   6.446  0.2379  0.1485  0.5462
 1409TIP3    H125642   4.462   0.580   6.461  0.4271  0.1293  1.0773
 1409TIP3    H225643   4.588   0.496   6.451  0.2298 -0.2017  1.3487
 1410TIP3   OH225644   3.811   1.696   4.557 -0.5646  0.0378  0.6557
 1410TIP3    H125645   3.861   1.765   4.513  0.7388 -1.5802 -0.5165
 1410TIP3    H225646   3.875   1.651   4.612 -0.7754 -1.7945 -0.5204
 1411TIP3   OH225647   1.657   5.851   1.910  0.3307 -0.2627  0.4339
 1411TIP3    H125648   1.611   5.804   1.841  0.6310 -1.8913  1.2984
 1411TIP3    H225649   1.723   5.903   1.863  1.9126 -2.8783 -0.5026
 1412TIP3   OH225650   1.793   1.154   5.326 -0.6947  0.0366  0.0971
 1412TIP3    H125651   1.731   1.101   5.275  2.0908 -2.5770 -0.8532
 1412TIP3    H225652   1.826   1.095   5.393  0.2849  1.5445  0.9910
 1413TIP3   OH225653   2.698   1.990  17.160  0.6255  0.1486  0.2524
 1413TIP3    H125654   2.663   2.077  17.181  0.7579  0.1891  0.3064
 1413TIP3    H225655   2.779   2.008  17.112  0.7024  0.0545  0.3473
 1414TIP3   OH225656   5.442   5.731  15.656 -0.7253 -0.5387 -0.0290
 1414TIP3    H125657   5.439   5.675  15.733 -0.0538  0.3137  0.6287
 1414TIP3    H225658   5.472   5.816  15.688 -0.1681 -0.2397 -1.2603
 1415TIP3   OH225659   5.131   6.054   0.970 -0.1950 -0.3536 -0.0134
 1415TIP3    H125660   5.048   6.096   0.949  0.4449  0.5428 -0.7810
 1415TIP3    H225661   5.148   6.078   1.061 -0.0510  0.7020 -0.3141
 1416TIP3   OH225662   0.712   0.312  15.785 -0.1858 -0.1884  0.2854
 1416TIP3    H125663   0.773   0.238  15.781  0.7567  0.5775 -0.0252
 1416TIP3    H225664   0.645   0.291  15.720 -0.0175 -0.8496  0.3176
 1417TIP3   OH225665   5.618   6.713  14.981 -0.3650 -0.1849 -0.3545
 1417TIP3    H125666   5.694   6.731  14.926 -0.8802  1.3632 -0.6339
 1417TIP3    H225667   5.586   6.628  14.951  0.7137 -0.4279 -0.8607
 1418TIP3   OH225668   2.506   6.241  13.857  0.5359  0.8459 -0.2461
 1418TIP3    H125669   2.490   6.238  13.951  0.1468 -0.0434 -0.3333
 1418TIP3    H225670   2.488   6.333  13.833  0.6425  1.0765  0.5354
 1419TIP3   OH225671   6.065   5.481  12.953  0.5313  0.1856  0.1471
 1419TIP3    H125672   5.974   5.510  12.957 -0.0519 -1.5375  0.4340
 1419TIP3    H225673   6.105   5.517  13.032 -0.2015  0.0349  0.5986
 1420TIP3   OH225674   2.516   2.490  12.785  0.0857  0.6089 -0.3837
 1420TIP3    H125675   2.612   2.486  12.792  0.1412 -0.4751 -1.5106
 1420TIP3    H225676   2.497   2.583  12.773  0.6435  1.4747  3.7208
 1421TIP3   OH225677   6.661   2.948  12.491 -0.5451  0.0865 -0.1666
 1421TIP3    H125678   6.575   2.972  12.456 -0.1902  0.5513 -0.7358
 1421TIP3    H225679   6.723   2.976  12.424  0.0440 -0.4210  0.1528
 1422TIP3   OH225680   4.007   5.085  13.152 -0.1381  0.0500  0.2273
 1422TIP3    H125681   4.051   5.140  13.217  0.3455 -0.8316  0.6625
 1422TIP3    H225682   4.004   4.999  13.193  0.3889 -0.5795 -1.0357
 1423TIP3   OH225683   6.317   6.493   5.793 -0.4106  0.0275 -0.9597
 1423TIP3    H125684   6.385   6.519   5.731  0.4359 -1.2581 -0.6060
 1423TIP3    H225685   6.249   6.454   5.737 -0.9346  1.3747 -1.3180
 1424TIP3   OH225686   2.043   4.450  13.214  0.6428  0.7789 -0.1997
 1424TIP3    H125687   1.972   4.394  13.244  0.3841  1.2462  0.0617
 1424TIP3    H225688   2.086   4.399  13.145 -1.0234  1.1811 -1.6082
 1425TIP3   OH225689   3.342   4.259   6.402  0.6928 -0.2645  0.1110
 1425TIP3    H125690   3.251   4.273   6.429  0.4149  2.6736 -1.7729
 1425TIP3    H225691   3.391   4.247   6.484 -1.2298 -0.9768  1.2132
 1426TIP3   OH225692   6.124   0.094  16.351  0.0587  0.3813  0.4398
 1426TIP3    H125693   6.077   0.136  16.423 -0.1616  1.5756 -0.3840
 1426TIP3    H225694   6.197   0.048  16.394 -2.0196 -1.8933  1.7942
 1427TIP3   OH225695   6.586   2.512  15.655  0.3864  0.3579  0.6826
 1427TIP3    H125696   6.501   2.472  15.636  0.1230  1.2359 -0.0531
 1427TIP3    H225697   6.630   2.448  15.711 -0.9440  0.1141  1.4967
 1428TIP3   OH225698   0.686   2.843  15.868 -0.2719 -0.1199 -0.5383
 1428TIP3    H125699   0.597   2.810  15.854  0.0397 -1.3384  0.1984
 1428TIP3    H225700   0.724   2.782  15.930  0.2970  1.7326  1.0351
 1429TIP3   OH225701   4.189   1.305  11.916 -0.7634  0.0688  0.2781
 1429TIP3    H125702   4.186   1.346  12.002 -1.1970  0.2001  0.2050
 1429TIP3    H225703   4.280   1.277  11.906 -0.2752  1.6109  0.0553
 1430TIP3   OH225704   4.748   4.875  16.206 -0.4257 -0.6780  0.1866
 1430TIP3    H125705   4.786   4.918  16.129 -1.4104  0.5601  0.3465
 1430TIP3    H225706   4.814   4.884  16.274 -0.7063  0.8918  0.2921
 1431TIP3   OH225707   1.836   5.800  15.750  0.4844 -0.4457  0.4992
 1431TIP3    H125708   1.756   5.833  15.790  0.6865  1.3518 -0.4487
 1431TIP3    H225709   1.806   5.741  15.681  0.0728 -1.4394  1.5024
 1432TIP3   OH225710   3.225   1.023   2.097  0.3207  0.0568  0.5547
 1432TIP3    H125711   3.156   1.058   2.155  2.0490  3.7516  0.6801
 1432TIP3    H225712   3.286   0.979   2.155  0.0300  0.2493  1.0093
 1433TIP3   OH225713   6.000   6.542   0.472 -0.5996 -0.0409  0.3419
 1433TIP3    H125714   6.014   6.508   0.560  0.6228  0.0598  0.2134
 1433TIP3    H225715   6.047   6.625   0.470  0.6758 -0.7350 -0.8248
 1434TIP3   OH225716   0.296   3.193   4.855 -0.3940 -0.4318  0.0903
 1434TIP3    H125717   0.213   3.176   4.899 -0.8371  0.3276 -0.4337
 1434TIP3    H225718   0.293   3.286   4.833 -0.3757 -0.8851 -1.9593
 1435TIP3   OH225719   1.467   2.861  12.234 -0.2421  0.1707 -0.0049
 1435TIP3    H125720   1.554   2.827  12.215  0.4750  2.6169 -1.4600
 1435TIP3    H225721   1.483   2.939  12.288 -1.3782  1.5847 -1.6249
 1436TIP3   OH225722   2.601   1.725  12.689  0.0763 -0.9298 -0.4101
 1436TIP3    H125723   2.599   1.631  12.672  0.5099 -0.8675 -0.7909
 1436TIP3    H225724   2.683   1.739  12.737 -0.2373 -0.8229  0.1032
 1437TIP3   OH225725   5.436   0.215  15.538  0.4620 -0.6724 -0.1996
 1437TIP3    H125726   5.377   0.142  15.515 -0.0258 -1.3031  2.6327
 1437TIP3    H225727   5.377   0.288  15.557  0.8695 -0.0451 -1.2270
 1438TIP3   OH225728   2.453   5.263  13.550 -0.2568  0.0134 -0.3142
 1438TIP3    H125729   2.369   5.300  13.524 -0.9702 -0.7296  0.8647
 1438TIP3    H225730   2.490   5.228  13.469 -1.5615 -0.6044 -0.6616
 1439TIP3   OH225731   1.708   4.892  13.801 -0.0030 -0.4924 -0.7893
 1439TIP3    H125732   1.643   4.824  13.787 -0.7230  0.0481 -0.1776
 1439TIP3    H225733   1.669   4.971  13.763 -0.9404  0.4487  1.9120
 1440TIP3   OH225734   6.085   4.864  13.522 -0.3789 -0.0110  0.1251
 1440TIP3    H125735   6.091   4.839  13.614  0.9016 -2.1739 -0.4861
 1440TIP3    H225736   6.001   4.827  13.492 -0.0674 -0.6730  0.0562
 1441TIP3   OH225737   1.766   2.582  13.410 -0.3197 -0.7360 -0.0503
 1441TIP3    H125738   1.815   2.579  13.492 -0.5123  0.7926  0.1502
 1441TIP3    H225739   1.827   2.617  13.346  0.5171 -3.8815 -1.1485
 1442TIP3   OH225740   4.858   4.200   3.669  0.4666 -0.2068  0.4443
 1442TIP3    H125741   4.870   4.122   3.615  0.0470 -0.9268  1.3763
 1442TIP3    H225742   4.895   4.271   3.616  0.2582 -0.9195 -0.6943
 1443TIP3   OH225743   6.464   4.192   2.483 -0.1829 -0.3587 -0.0995
 1443TIP3    H125744   6.397   4.124   2.490  0.2331 -0.6992  0.7783
 1443TIP3    H225745   6.463   4.235   2.568  0.0106  0.3073 -0.4304
 1444TIP3   OH225746   3.127   4.670   4.098 -0.3196  0.8266  0.3218
 1444TIP3    H125747   3.033   4.675   4.114 -0.2258  2.0606  0.6266
 1444TIP3    H225748   3.163   4.627   4.175 -0.7698 -1.1647 -0.5025
 1445TIP3   OH225749   6.555   6.248  12.654 -0.0123  0.0898 -0.2711
 1445TIP3    H125750   6.626   6.185  12.641 -0.4540 -0.4497 -0.1029
 1445TIP3    H225751   6.599   6.329  12.681  0.4607 -0.6157  1.1542
 1446TIP3   OH225752   3.138   0.903  12.821 -0.0676 -0.0370  0.0427
 1446TIP3    H125753   3.176   0.961  12.887  0.0650 -0.8964  0.7473
 1446TIP3    H225754   3.049   0.888  12.851 -0.1120 -0.1685 -0.1553
 1447TIP3   OH225755   3.432   4.632   2.968  0.3381  0.9176 -0.4222
 1447TIP3    H125756   3.473   4.672   3.045  0.3087 -0.8395  0.5544
 1447TIP3    H225757   3.338   4.646   2.980  0.0978 -1.5796  1.2764
 1448TIP3   OH225758   5.535   3.617   3.832 -0.7648 -0.3046  0.1905
 1448TIP3    H125759   5.546   3.679   3.759 -1.0048  0.2069  0.5803
 1448TIP3    H225760   5.470   3.554   3.800  0.2395 -0.9775 -0.6001
 1449TIP3   OH225761   0.191   1.099  16.186 -0.6966 -0.4641 -0.0149
 1449TIP3    H125762   0.249   1.119  16.259  0.6507 -1.2658 -0.8254
 1449TIP3    H225763   0.134   1.176  16.179  0.6812  0.6398  0.4272
 1450TIP3   OH225764   2.451   1.929   0.642  0.6763  0.0804 -0.3660
 1450TIP3    H125765   2.424   1.837   0.649 -0.9049  0.4809 -0.7963
 1450TIP3    H225766   2.470   1.941   0.549  2.3078 -0.1530 -0.0961
 1451TIP3   OH225767   1.855   5.905   5.375 -0.4148  0.1555  0.1251
 1451TIP3    H125768   1.945   5.897   5.344 -0.1510 -1.6846  1.2631
 1451TIP3    H225769   1.810   5.951   5.304  1.5586  1.9130 -0.1178
 1452TIP3   OH225770   0.707   3.727  12.786  0.3700  0.3225  0.0661
 1452TIP3    H125771   0.744   3.697  12.703 -0.3938 -0.9116  0.1441
 1452TIP3    H225772   0.760   3.683  12.853  0.3401  0.5233  0.2222
 1453TIP3   OH225773   2.957   2.943   5.932  1.0653  0.3032  1.1136
 1453TIP3    H125774   2.951   2.983   5.845  0.8963  0.9641  1.4208
 1453TIP3    H225775   2.867   2.921   5.955  0.7043  2.5927  2.2254
 1454TIP3   OH225776   2.355   5.957  16.786 -0.2754  0.3789 -0.4421
 1454TIP3    H125777   2.360   6.033  16.845 -0.9989  0.5033 -0.5350
 1454TIP3    H225778   2.263   5.930  16.789  0.3475 -1.8470  1.2779
 1455TIP3   OH225779   3.450   3.311  11.529  0.7470 -0.3899 -0.1078
 1455TIP3    H125780   3.375   3.299  11.587  1.1534 -3.3973 -0.0627
 1455TIP3    H225781   3.427   3.386  11.475  0.2402  2.5051  3.6828
 1456TIP3   OH225782   5.611   3.901   1.328 -0.2014  0.1813 -0.6801
 1456TIP3    H125783   5.531   3.859   1.362 -1.1588  0.5842 -2.3391
 1456TIP3    H225784   5.635   3.849   1.252 -0.2709  1.4705 -1.6070
 1457TIP3   OH225785   2.740   4.307   1.271  0.1461 -0.5616 -0.2489
 1457TIP3    H125786   2.728   4.277   1.362  0.7180  0.5759  0.2155
 1457TIP3    H225787   2.719   4.400   1.273 -0.3353 -0.6263 -1.4097
 1458TIP3   OH225788   1.782   0.693  11.927  0.1744 -0.8196  0.3817
 1458TIP3    H125789   1.847   0.737  11.871  0.1030 -1.2942 -0.0838
 1458TIP3    H225790   1.786   0.740  12.010  1.8160 -1.4460  0.6941
 1459TIP3   OH225791   2.015   5.095   5.711 -0.3137  0.8543  0.0064
 1459TIP3    H125792   2.086   5.093   5.647  1.0753 -0.1152  1.5033
 1459TIP3    H225793   1.940   5.058   5.664  0.9654 -0.9259 -0.7549
 1460TIP3   OH225794   0.755   2.833   1.801 -0.0965 -0.0080 -0.2939
 1460TIP3    H125795   0.724   2.921   1.780 -0.2651  0.3471  1.3001
 1460TIP3    H225796   0.751   2.785   1.718  0.2871  1.5623 -1.2511
 1461TIP3   OH225797   3.763   6.135  15.397  0.2105 -0.4389  0.3841
 1461TIP3    H125798   3.710   6.083  15.337  0.3996 -1.2943  0.9455
 1461TIP3    H225799   3.776   6.218  15.351  1.2228 -1.4181 -1.2232
 1462TIP3   OH225800   3.283   4.067   0.015 -0.2832  0.0093  0.1686
 1462TIP3    H125801   3.238   4.106  -0.060 -0.7576  0.3343  0.6141
 1462TIP3    H225802   3.351   4.129   0.038  1.3364 -1.1068 -1.3587
 1463TIP3   OH225803   0.769   5.902  14.654 -0.0527 -0.5028 -0.2657
 1463TIP3    H125804   0.740   5.813  14.672 -1.4385  0.1433  0.8228
 1463TIP3    H225805   0.734   5.922  14.567  0.9404 -1.2634 -0.8650
 1464TIP3   OH225806   1.084   0.548   0.403  0.2116 -0.1316  0.4393
 1464TIP3    H125807   1.028   0.548   0.326 -0.5404  0.2214  0.9819
 1464TIP3    H225808   1.169   0.580   0.371  0.1364 -0.7179 -0.3926
 1465TIP3   OH225809   2.590   3.622   2.879  0.5027 -0.0743 -0.5453
 1465TIP3    H125810   2.567   3.530   2.889  0.1802  0.2761  5.2022
 1465TIP3    H225811   2.685   3.624   2.876  0.5165 -0.5889 -0.4301
 1466TIP3   OH225812   0.560   0.739  12.582 -0.1918  0.0150  0.4560
 1466TIP3    H125813   0.621   0.672  12.611  0.5377  0.2371 -0.5459
 1466TIP3    H225814   0.505   0.755  12.659  0.7258 -0.4848  1.2411
 1467TIP3   OH225815   3.292   2.008  12.240  0.1719  0.3141 -0.3823
 1467TIP3    H125816   3.278   2.029  12.148  0.2865  0.1390 -0.4398
 1467TIP3    H225817   3.244   1.926  12.254  0.4948  0.1244 -0.3889
 1468TIP3   OH225818   3.852   1.343  16.485 -0.3268  0.3977 -0.0923
 1468TIP3    H125819   3.795   1.299  16.548 -1.3151 -0.4455 -1.5236
 1468TIP3    H225820   3.842   1.437  16.505 -0.9814  0.1745  0.6873
 1469TIP3   OH225821   5.691   2.836   2.665 -0.3031  0.2247 -0.3254
 1469TIP3    H125822   5.676   2.744   2.642 -1.8938  0.4598 -0.3513
 1469TIP3    H225823   5.705   2.880   2.582  2.7888 -0.3048 -0.1996
 1470TIP3   OH225824   5.420   0.483   4.891  0.4292 -0.4869 -0.0847
 1470TIP3    H125825   5.443   0.453   4.803  1.1908 -1.5683  0.4692
 1470TIP3    H225826   5.443   0.410   4.949  0.1711  0.2992  1.0483
 1471TIP3   OH225827   6.423   3.022   6.212  0.0729 -0.1793 -0.9044
 1471TIP3    H125828   6.339   2.982   6.235 -0.1460  0.8773  0.2265
 1471TIP3    H225829   6.486   2.981   6.271 -0.0884  0.8138 -0.0095
 1472TIP3   OH225830   2.788   3.730  14.828 -0.9345  0.1786  0.5706
 1472TIP3    H125831   2.847   3.720  14.903 -0.4497  1.4778  0.3943
 1472TIP3    H225832   2.823   3.670  14.762  1.3022  2.1322 -0.1540
 1473TIP3   OH225833   6.772   5.074  12.003 -0.4523  0.8979 -0.1646
 1473TIP3    H125834   6.817   5.008  12.056  0.1055  1.6477  0.3084
 1473TIP3    H225835   6.679   5.054  12.015 -0.2906 -0.6621 -1.1434
 1474TIP3   OH225836   3.702   4.231   7.047 -0.2187  0.3815 -0.3321
 1474TIP3    H125837   3.656   4.249   6.965  0.8201 -0.0304 -1.0162
 1474TIP3    H225838   3.635   4.242   7.114 -1.1874  0.3312 -1.2626
 1475TIP3   OH225839   6.394   2.025  13.792 -0.2564  0.4629  0.0051
 1475TIP3    H125840   6.317   2.025  13.734  0.8790 -0.6765 -1.5867
 1475TIP3    H225841   6.359   2.052  13.877 -2.8775 -2.0465 -0.0857
 1476TIP3   OH225842   3.972   4.991   3.796 -0.1560  0.2360  0.6183
 1476TIP3    H125843   3.957   5.050   3.722  1.8878 -0.5575 -0.5182
 1476TIP3    H225844   3.888   4.948   3.810 -0.6138  0.4572 -1.2267
 1477TIP3   OH225845   6.049   6.162  12.490 -0.1668 -0.2823 -0.0682
 1477TIP3    H125846   6.005   6.226  12.546 -2.2981 -0.1799 -1.7262
 1477TIP3    H225847   6.013   6.177  12.403  2.9729 -0.4760 -1.5400
 1478TIP3   OH225848   2.481   4.030  11.899 -0.4302  0.0794  0.0048
 1478TIP3    H125849   2.430   4.084  11.960 -0.4717 -0.1488  0.1757
 1478TIP3    H225850   2.531   4.092  11.847 -0.7316  0.2975 -0.0254
 1479TIP3   OH225851   0.106   6.476  13.774  0.5055 -0.0844  0.4944
 1479TIP3    H125852   0.160   6.421  13.717  0.5816  0.8489 -0.3448
 1479TIP3    H225853   0.032   6.419  13.798  0.8564 -0.7273  0.0844
 1480TIP3   OH225854   3.181   4.639  10.870 -0.2215  0.7948  0.2137
 1480TIP3    H125855   3.266   4.600  10.851  0.8709  1.9062  2.3537
 1480TIP3    H225856   3.123   4.565  10.887 -0.1651 -0.0427 -2.7465
 1481TIP3   OH225857   1.880   6.012   0.202  0.0690  0.2474 -0.4516
 1481TIP3    H125858   1.863   6.099   0.237  0.5833  0.1937 -0.0588
 1481TIP3    H225859   1.852   5.952   0.270 -0.7603  0.0856 -0.9269
 1482TIP3   OH225860   1.509   6.537   2.050 -0.5598  0.0960 -0.5855
 1482TIP3    H125861   1.528   6.446   2.074 -0.7115  0.0689 -0.5701
 1482TIP3    H225862   1.561   6.589   2.112 -0.3816  0.0201 -0.6693
 1483TIP3   OH225863   0.877   3.984  11.100 -0.1062 -0.3483 -0.1203
 1483TIP3    H125864   0.798   4.037  11.097 -0.0563 -0.1896  0.8705
 1483TIP3    H225865   0.945   4.043  11.133  0.6630 -0.2248 -1.8467
 1484TIP3   OH225866   1.107   0.476  16.232  0.3438 -0.1012  0.3151
 1484TIP3    H125867   1.172   0.534  16.192  0.9029 -0.7929  0.1988
 1484TIP3    H225868   1.077   0.420  16.160 -0.4887  0.2891  0.3395
 1485TIP3   OH225869   5.484   3.468  17.034  0.2274 -0.2233  0.9841
 1485TIP3    H125870   5.574   3.437  17.043  1.0487  2.1620  1.8643
 1485TIP3    H225871   5.491   3.563  17.043 -1.8451  0.5377 -2.9958
 1486TIP3   OH225872   6.157   6.667   0.715  0.0883 -0.2143 -0.0164
 1486TIP3    H125873   6.182   6.752   0.750 -0.2972 -0.4561  0.8629
 1486TIP3    H225874   6.240   6.629   0.685  0.2699  0.4376 -0.3703
 1487TIP3   OH225875   5.921   2.232   0.938  0.3199  0.6784  0.2095
 1487TIP3    H125876   5.931   2.242   0.843  1.7366 -1.5219  0.0496
 1487TIP3    H225877   5.959   2.146   0.957 -2.5156 -0.2319  2.4172
 1488TIP3   OH225878   5.353   5.761   0.560  0.1264 -0.1507 -0.0928
 1488TIP3    H125879   5.415   5.689   0.576  0.9354  0.7581  1.0681
 1488TIP3    H225880   5.287   5.750   0.629  0.0325 -0.0076 -0.1605
 1489TIP3   OH225881   0.032   3.843  11.745  0.2565 -0.3064  0.1277
 1489TIP3    H125882   0.030   3.931  11.708 -1.0079 -0.7604 -0.9659
 1489TIP3    H225883   0.125   3.821  11.750  0.7726  1.9767  2.7241
 1490TIP3   OH225884   3.928   6.349  11.975  0.2240  0.3981 -0.1103
 1490TIP3    H125885   3.947   6.260  12.006 -0.6464 -0.1989 -1.2174
 1490TIP3    H225886   3.861   6.381  12.036  2.3186  1.2992  1.8354
 1491TIP3   OH225887   3.073   4.537   0.465 -0.0014 -0.4401 -0.1755
 1491TIP3    H125888   3.060   4.486   0.545 -0.7531  0.2836  0.1756
 1491TIP3    H225889   3.161   4.511   0.435  1.3324  0.9898  2.1749
 1492TIP3   OH225890   6.631   5.544   1.093  0.8301  0.0470  0.5329
 1492TIP3    H125891   6.693   5.474   1.112  0.2540 -0.8490 -0.7676
 1492TIP3    H225892   6.651   5.571   1.004  0.6288  1.1176  0.7922
 1493TIP3   OH225893   2.931   2.708   5.011  0.1490 -0.2609 -0.3735
 1493TIP3    H125894   3.006   2.764   5.030 -0.1462  1.3149 -3.2527
 1493TIP3    H225895   2.859   2.747   5.062  1.0041 -1.2726  1.7316
 1494TIP3   OH225896   0.379   2.555  16.456 -0.5013 -0.1507  0.4839
 1494TIP3    H125897   0.301   2.506  16.480  0.9585 -2.7621  0.2462
 1494TIP3    H225898   0.352   2.605  16.378 -1.6160 -2.0578 -0.4410
 1495TIP3   OH225899   5.797   3.133   4.965  0.7851  0.2400 -0.3760
 1495TIP3    H125900   5.819   3.219   4.929 -0.9767  0.5594 -0.7578
 1495TIP3    H225901   5.810   3.073   4.892  0.5522  0.3989 -0.5495
 1496TIP3   OH225902   1.247   2.971   3.174  0.1679 -0.9700  0.0182
 1496TIP3    H125903   1.185   2.919   3.122 -0.0035 -0.3809 -0.3679
 1496TIP3    H225904   1.257   2.920   3.255 -1.9488 -0.4092  0.7152
 1497TIP3   OH225905   4.703   2.395   2.807 -0.1972 -0.4831  0.7891
 1497TIP3    H125906   4.796   2.418   2.818 -0.1114  0.7364 -1.7457
 1497TIP3    H225907   4.662   2.423   2.889  1.3636  0.8291  1.1889
 1498TIP3   OH225908   0.281   2.646  12.318  0.4381  0.3150 -0.2487
 1498TIP3    H125909   0.350   2.615  12.261  0.2126 -0.6604 -0.0106
 1498TIP3    H225910   0.234   2.712  12.267 -0.4718 -1.3393 -1.6554
 1499TIP3   OH225911   6.708   2.088  15.539  0.3165  0.2556  0.3046
 1499TIP3    H125912   6.675   2.065  15.625  1.9302 -2.4286  0.3372
 1499TIP3    H225913   6.635   2.073  15.479  0.3364 -1.9528  0.7739
 1500TIP3   OH225914   2.961   0.449   3.638 -0.4620 -0.4811  0.0689
 1500TIP3    H125915   2.971   0.363   3.678  1.1354 -0.3627  0.0113
 1500TIP3    H225916   2.970   0.434   3.544 -0.1693 -0.2705  0.0583
 1501TIP3   OH225917   5.117   6.640  11.233 -0.2728  0.0082  0.2238
 1501TIP3    H125918   5.028   6.672  11.220 -0.5059 -0.0167  1.6423
 1501TIP3    H225919   5.131   6.578  11.161 -1.1991  0.4144 -0.3238
 1502TIP3   OH225920   0.659   3.174   3.870 -0.2393  0.0929  0.2232
 1502TIP3    H125921   0.576   3.219   3.881 -0.8730 -1.2493  1.3464
 1502TIP3    H225922   0.708   3.195   3.949 -0.0192 -0.1294  0.1476
 1503TIP3   OH225923   0.256   5.570   1.208 -0.1837  0.6716 -0.0415
 1503TIP3    H125924   0.212   5.486   1.213  0.2837  0.5030  2.0482
 1503TIP3    H225925   0.344   5.554   1.241  0.0791  1.8548 -0.0955
 1504TIP3   OH225926   2.690   0.788  15.047  0.0459  0.0602  0.3169
 1504TIP3    H125927   2.751   0.755  14.980 -0.6826 -2.0566  0.6390
 1504TIP3    H225928   2.746   0.811  15.121  0.6467  0.2484 -0.1842
 1505TIP3   OH225929   3.750   6.052  15.836  0.2394  0.4155 -0.4749
 1505TIP3    H125930   3.720   6.093  15.917 -0.6779 -0.3571 -0.4000
 1505TIP3    H225931   3.701   5.969  15.832  1.4790 -0.3235 -0.9883
 1506TIP3   OH225932   4.814   3.327   0.109  0.1969  0.4168 -0.0247
 1506TIP3    H125933   4.750   3.376   0.057 -0.8569  0.4582  1.2503
 1506TIP3    H225934   4.825   3.379   0.189  1.5290  0.1925 -0.0405
 1507TIP3   OH225935   5.586   6.734   1.568 -0.1798  0.4447  0.1091
 1507TIP3    H125936   5.523   6.687   1.622 -0.3355 -1.5276 -1.6759
 1507TIP3    H225937   5.672   6.704   1.600 -0.2804 -1.2201 -1.1018
 1508TIP3   OH225938   4.610   3.738   6.825 -0.0597 -0.6513 -0.3675
 1508TIP3    H125939   4.605   3.766   6.734  0.2155 -1.3251 -0.6017
 1508TIP3    H225940   4.567   3.653   6.826  0.8304 -1.1122 -0.0820
 1509TIP3   OH225941   1.072   6.413   2.560 -0.1309 -0.1861 -0.2303
 1509TIP3    H125942   1.022   6.494   2.572 -1.0247 -0.8072  0.3276
 1509TIP3    H225943   1.163   6.442   2.564 -0.4181  0.6814  0.9918
 1510TIP3   OH225944   0.078   6.243  14.521  0.7813 -0.0280  0.6520
 1510TIP3    H125945   0.076   6.270  14.429 -1.7105 -0.2180  0.5877
 1510TIP3    H225946   0.085   6.147  14.517  0.1035 -0.0834  0.6175
 1511TIP3   OH225947   5.802   1.179   1.637  0.4498  0.7055 -0.0855
 1511TIP3    H125948   5.839   1.182   1.549 -0.5779  2.8722 -0.5306
 1511TIP3    H225949   5.872   1.210   1.694  0.1329  2.5168 -0.6192
 1512TIP3   OH225950   3.931   3.328  16.812 -0.4585  0.0012  1.0658
 1512TIP3    H125951   3.926   3.336  16.907 -1.8290  0.6184  0.9601
 1512TIP3    H225952   4.022   3.304  16.795 -0.4563 -1.2247  2.5975
 1513TIP3   OH225953   1.254   3.660   1.937 -0.7221 -0.1372  0.0598
 1513TIP3    H125954   1.214   3.714   2.004  0.7052  0.4072  0.5075
 1513TIP3    H225955   1.344   3.648   1.966 -0.6700 -1.7491 -0.6462
 1514TIP3   OH225956   2.211   5.681  14.046 -0.2210 -0.2359  0.0286
 1514TIP3    H125957   2.210   5.676  14.141  2.1827 -0.2741  0.0998
 1514TIP3    H225958   2.205   5.774  14.026  1.3607 -0.0430  0.3286
 1515TIP3   OH225959   5.925   6.579  10.722 -0.5339 -0.5801 -0.3729
 1515TIP3    H125960   5.953   6.531  10.801 -1.0784 -1.8361 -0.9183
 1515TIP3    H225961   5.984   6.654  10.718  0.9115 -1.6400  0.0614
 1516TIP3   OH225962   3.758   4.093  14.036  0.2739  0.2529 -0.2060
 1516TIP3    H125963   3.841   4.053  14.012 -0.5722 -1.2378 -0.7441
 1516TIP3    H225964   3.692   4.046  13.985 -0.8952  1.5411  0.0458
 1517TIP3   OH225965   2.466   2.385   3.562  0.5913 -0.0137  0.6785
 1517TIP3    H125966   2.475   2.329   3.484 -2.1475  0.0342  0.1952
 1517TIP3    H225967   2.549   2.431   3.568  1.6512 -1.5264 -1.0008
 1518TIP3   OH225968   5.438   1.754   0.986  0.2097 -0.0720  0.1177
 1518TIP3    H125969   5.475   1.829   1.032  0.4036  0.0071 -0.1708
 1518TIP3    H225970   5.397   1.702   1.055 -1.3241  1.0980  0.1387
 1519TIP3   OH225971   5.163   2.670   3.038 -0.2974 -0.0420 -0.0461
 1519TIP3    H125972   5.175   2.708   2.951  1.9597 -0.4249  0.0365
 1519TIP3    H225973   5.251   2.664   3.074 -1.1015 -0.6220  1.9767
 1520TIP3   OH225974   2.001   3.673  16.212  0.2052  0.0445  0.0058
 1520TIP3    H125975   2.014   3.665  16.306  1.4288  0.3127 -0.1240
 1520TIP3    H225976   1.937   3.744  16.202  0.6823  0.5653  0.6034
 1521TIP3   OH225977   6.569   4.883   5.826 -0.2328 -0.5457  0.0613
 1521TIP3    H125978   6.565   4.934   5.907 -1.6632  0.7297 -0.7650
 1521TIP3    H225979   6.483   4.843   5.818  0.2973 -1.6740 -0.2217
 1522TIP3   OH225980   3.476   1.565  16.360  0.2261  0.3966 -0.0108
 1522TIP3    H125981   3.392   1.554  16.404  0.2028  0.8606  0.0643
 1522TIP3    H225982   3.483   1.489  16.303 -0.0640  0.1520  0.2779
 1523TIP3   OH225983   5.243   3.782   3.730  0.2921  0.1918  0.0713
 1523TIP3    H125984   5.320   3.727   3.716 -0.3833 -0.4474 -1.3825
 1523TIP3    H225985   5.173   3.737   3.683 -0.7580  1.2345  0.5941
 1524TIP3   OH225986   0.019   5.836  12.481 -0.1379  0.1391 -0.6003
 1524TIP3    H125987  -0.016   5.874  12.400  0.2423 -0.5034 -1.0726
 1524TIP3    H225988   0.083   5.771  12.452 -1.3038 -1.4213  0.1656
 1525TIP3   OH225989   0.163   3.236  16.873 -0.1385 -0.6069  0.5677
 1525TIP3    H125990   0.127   3.323  16.855  0.9542  0.0064  1.2410
 1525TIP3    H225991   0.244   3.232  16.821 -0.4064 -1.4001  0.1949
 1526TIP3   OH225992   5.788   2.521   2.093 -0.4466 -0.0210  0.1905
 1526TIP3    H125993   5.768   2.429   2.107  1.2595 -0.3495  0.6137
 1526TIP3    H225994   5.712   2.555   2.045 -1.4140 -1.4597  0.6430
 1527TIP3   OH225995   2.794   3.406   1.107 -0.1649 -0.2834 -0.5954
 1527TIP3    H125996   2.859   3.425   1.173 -0.9487 -0.7304  0.3259
 1527TIP3    H225997   2.831   3.441   1.026  0.5724  0.7452  0.1654
 1528TIP3   OH225998   1.641   0.339   0.431  0.2175  0.1222  0.7843
 1528TIP3    H125999   1.596   0.268   0.477  0.2960 -0.0609  0.5802
 1528TIP3    H226000   1.584   0.360   0.357  0.5824 -0.2792  0.3831
 1529TIP3   OH226001   1.407   2.495   0.047  0.4169 -0.1710 -0.6966
 1529TIP3    H126002   1.449   2.567   0.095 -2.8969  2.6357 -1.6508
 1529TIP3    H226003   1.405   2.423   0.110  0.7955  1.6780  1.5898
 1530TIP3   OH226004   3.818   5.087  16.523 -0.0411  0.3111 -0.0107
 1530TIP3    H126005   3.871   5.075  16.444 -0.2719  0.5311 -0.2004
 1530TIP3    H226006   3.823   5.003  16.568 -0.2561  0.0470 -0.4779
 1531TIP3   OH226007   6.055   5.763  16.878  0.4242 -0.5316  0.0716
 1531TIP3    H126008   6.039   5.852  16.847 -1.4430 -0.1109  1.9456
 1531TIP3    H226009   6.000   5.708  16.823 -0.7933 -0.1092  0.8067
 1532TIP3   OH226010   5.098   5.699  11.989 -0.3366 -0.4793 -0.4064
 1532TIP3    H126011   5.102   5.693  11.893 -0.1003  0.6506 -0.4768
 1532TIP3    H226012   5.160   5.768  12.011  0.3746 -1.4248  0.6608
 1533TIP3   OH226013   3.995   4.569  14.415 -0.0966 -0.1617 -0.4581
 1533TIP3    H126014   4.045   4.628  14.358 -0.1302 -0.1128 -0.4370
 1533TIP3    H226015   4.030   4.482  14.396  0.6630 -0.0185  0.2553
 1534TIP3   OH226016   4.311   4.181  11.511  0.1082  0.7096 -0.5638
 1534TIP3    H126017   4.381   4.126  11.546  0.2055  1.9251  1.3135
 1534TIP3    H226018   4.336   4.270  11.535 -1.7907  1.2292 -0.3073
 1535TIP3   OH226019   3.511   0.773   1.123  0.5623 -0.2666 -0.4418
 1535TIP3    H126020   3.525   0.691   1.171 -1.6611 -1.8673 -2.3023
 1535TIP3    H226021   3.585   0.778   1.063 -0.0249 -1.7895 -1.3601
 1536TIP3   OH226022   5.878   3.536   0.999  0.0817 -0.1156  0.2318
 1536TIP3    H126023   5.838   3.554   0.914 -1.8560 -1.5981  0.7545
 1536TIP3    H226024   5.895   3.442   0.998  1.6337  0.1251  0.8745
 1537TIP3   OH226025   3.682   6.068   5.180  0.3926 -0.0872  0.6063
 1537TIP3    H126026   3.730   6.013   5.119  1.2004 -1.1731  2.1637
 1537TIP3    H226027   3.596   6.079   5.140  0.4226 -1.9610 -0.0456
 1538TIP3   OH226028   0.547   0.074   5.340  0.9302  0.3620 -0.1984
 1538TIP3    H126029   0.543  -0.022   5.339 -0.8193  0.3489  1.7320
 1538TIP3    H226030   0.513   0.100   5.254  0.6666 -0.7298 -0.4473
 1539TIP3   OH226031   6.582   3.671   0.136  0.0656 -0.2150 -0.4503
 1539TIP3    H126032   6.575   3.635   0.225 -1.3429 -1.0363 -0.8563
 1539TIP3    H226033   6.588   3.593   0.080  0.8272  0.2961 -1.0928
 1540TIP3   OH226034   3.951   4.619   6.074  0.2220 -0.1492 -0.4305
 1540TIP3    H126035   3.953   4.699   6.021  1.6578  0.3148  0.2586
 1540TIP3    H226036   4.037   4.579   6.060 -0.1198 -1.0569  0.0078
 1541TIP3   OH226037   0.449   4.864   1.922 -0.1104 -0.6975 -0.3504
 1541TIP3    H126038   0.414   4.887   2.008  1.8044  0.0177  0.2884
 1541TIP3    H226039   0.406   4.925   1.862 -0.1369  0.0060  0.3661
 1542TIP3   OH226040   4.613   1.519  12.304 -0.0856  0.3175 -0.4540
 1542TIP3    H126041   4.703   1.526  12.271  0.2668 -2.1390 -0.1615
 1542TIP3    H226042   4.616   1.561  12.390  1.0614 -0.5890 -0.0210
 1543TIP3   OH226043   1.331   1.365  14.150 -0.3569  0.0214 -0.0912
 1543TIP3    H126044   1.299   1.434  14.208  0.0811  0.0254  0.1470
 1543TIP3    H226045   1.253   1.335  14.103 -0.5258  0.7620 -0.2915
 1544TIP3   OH226046   3.703   1.645   3.702  0.1126  0.7920  0.1036
 1544TIP3    H126047   3.611   1.669   3.712 -0.2337  0.3294 -1.5745
 1544TIP3    H226048   3.711   1.558   3.742  0.0703  1.2614  1.1525
 1545TIP3   OH226049   3.775   3.717  16.269  0.0050  0.6131  0.6489
 1545TIP3    H126050   3.824   3.726  16.188  0.8112 -1.3311  0.8525
 1545TIP3    H226051   3.693   3.764  16.254 -0.5741 -1.0611 -1.9091
 1546TIP3   OH226052   4.435   1.088   0.014  0.0829  0.4314 -0.6893
 1546TIP3    H126053   4.397   1.001  -0.003  1.6716 -0.0673 -1.8789
 1546TIP3    H226054   4.480   1.111  -0.067  0.1796  2.1391 -0.1853
 1547TIP3   OH226055   1.946   1.939  15.661 -0.4125 -0.1392  0.2766
 1547TIP3    H126056   2.001   1.872  15.622 -1.3296 -0.3195 -0.7584
 1547TIP3    H226057   1.857   1.916  15.634 -0.8540  0.8979  0.7783
 1548TIP3   OH226058   1.800   5.159  17.146  0.1870  0.1427 -0.1158
 1548TIP3    H126059   1.892   5.185  17.145  0.5158 -0.9137 -1.4526
 1548TIP3    H226060   1.775   5.159  17.053 -1.0238 -0.0476  0.1979
 1549TIP3   OH226061   6.219   2.834   1.260  0.1632  0.1564  0.4705
 1549TIP3    H126062   6.220   2.930   1.256  0.8718  0.1382 -0.0512
 1549TIP3    H226063   6.308   2.811   1.289  0.8141 -0.4114 -1.7680
 1550TIP3   OH226064   5.671   5.016  16.137  0.1217 -0.8110 -0.2937
 1550TIP3    H126065   5.720   4.979  16.210 -1.7501 -2.3696  0.2427
 1550TIP3    H226066   5.699   4.966  16.061 -0.1901 -1.2868 -0.0960
 1551TIP3   OH226067   0.728   3.698  15.265  0.4291  0.8944  0.0058
 1551TIP3    H126068   0.736   3.643  15.344  0.4153 -0.5035 -0.9311
 1551TIP3    H226069   0.708   3.636  15.195  0.7625  2.0782 -1.1648
 1552TIP3   OH226070   2.465   4.683  14.727 -0.3453 -0.0454  0.3160
 1552TIP3    H126071   2.436   4.690  14.636  0.9239 -0.2309 -0.1234
 1552TIP3    H226072   2.431   4.599  14.757 -1.1204  0.2051  0.1550
 1553TIP3   OH226073   0.527   0.876   2.439  0.0395 -0.2099  0.3450
 1553TIP3    H126074   0.544   0.949   2.380 -0.5057 -0.0573  0.3651
 1553TIP3    H226075   0.586   0.890   2.513  0.3168 -0.0858  0.1000
 1554TIP3   OH226076   1.155   6.227   1.810 -0.0982 -0.0471  0.1335
 1554TIP3    H126077   1.242   6.225   1.850 -0.5345 -1.2881  1.0855
 1554TIP3    H226078   1.110   6.300   1.852  0.5509  0.8031 -0.5878
 1555TIP3   OH226079   0.282   6.214  17.307  0.1127  0.1741 -0.1539
 1555TIP3    H126080   0.264   6.300  17.345 -0.7175 -0.6595  1.4540
 1555TIP3    H226081   0.377   6.206  17.311  0.1465  0.7226  0.3936
 1556TIP3   OH226082   3.210   0.972  17.119  0.2768 -0.1984  0.3915
 1556TIP3    H126083   3.294   0.930  17.098 -0.2642 -1.0011 -0.2138
 1556TIP3    H226084   3.186   1.019  17.039 -0.3324 -0.7915  0.2189
 1557TIP3   OH226085   5.331   0.774   0.231  0.3423  0.3322  0.5934
 1557TIP3    H126086   5.390   0.701   0.249 -0.6685 -0.4423  0.8934
 1557TIP3    H226087   5.382   0.852   0.250  1.9055 -0.2230 -1.0637
 1558TIP3   OH226088   1.548   6.543   3.896  0.5589  0.2656 -0.7292
 1558TIP3    H126089   1.532   6.466   3.842 -1.4010  1.3794 -1.8468
 1558TIP3    H226090   1.481   6.540   3.964 -1.2664  2.2116 -2.2865
 1559TIP3   OH226091   5.259   4.858  15.403 -0.5256  0.3507 -0.1112
 1559TIP3    H126092   5.239   4.896  15.318 -0.9478 -1.0413 -0.6702
 1559TIP3    H226093   5.173   4.833  15.438 -0.1922 -1.0801 -0.2692
 1560TIP3   OH226094   4.749   4.662   0.228  0.4092 -0.3577 -0.7100
 1560TIP3    H126095   4.805   4.732   0.263  0.7387 -1.2778  0.7006
 1560TIP3    H226096   4.678   4.656   0.291 -0.5041 -0.2128 -1.7048
 1561TIP3   OH226097   6.327   2.502  15.919  0.0648 -0.1506 -0.0454
 1561TIP3    H126098   6.232   2.499  15.929 -0.3210  1.2416 -2.3630
 1561TIP3    H226099   6.345   2.450  15.840  1.1674 -0.0300  0.1067
 1562TIP3   OH226100   4.540   1.006   4.698 -0.0091 -1.2166  0.1800
 1562TIP3    H126101   4.466   1.054   4.660  0.0959  1.9608  3.3551
 1562TIP3    H226102   4.617   1.046   4.657  0.0063 -0.4924  0.8776
 1563TIP3   OH226103   3.287   3.480  15.038  0.2289  0.5842 -0.4511
 1563TIP3    H126104   3.265   3.442  15.123 -1.4021  0.4611 -0.8835
 1563TIP3    H226105   3.345   3.416  14.998  0.8400  0.5396  0.4708
 1564TIP3   OH226106   4.493   6.525  11.323  0.3782 -0.5659 -0.4326
 1564TIP3    H126107   4.440   6.526  11.403 -0.7257 -0.0424 -1.1591
 1564TIP3    H226108   4.459   6.597  11.271  1.0778 -0.9177 -1.3876
 1565TIP3   OH226109   2.955   3.691  13.934 -0.4348  0.6542 -0.9126
 1565TIP3    H126110   2.861   3.711  13.928 -0.8471 -0.2110  1.5011
 1565TIP3    H226111   2.984   3.735  14.014  0.7896 -0.5468 -0.6617
 1566TIP3   OH226112   6.734   2.172   5.225 -0.9198  0.2194  0.4133
 1566TIP3    H126113   6.742   2.123   5.144  0.8595  0.5767  0.3320
 1566TIP3    H226114   6.655   2.225   5.214 -1.0825 -0.2624 -0.7962
 1567TIP3   OH226115   4.210   1.573  13.269  0.3884  0.3904 -0.0147
 1567TIP3    H126116   4.282   1.592  13.329  2.3199 -1.3095 -1.6427
 1567TIP3    H226117   4.153   1.513  13.317  0.9965  0.3588  0.6849
 1568TIP3   OH226118   2.568   2.618  16.776  0.0669  0.8110 -0.0823
 1568TIP3    H126119   2.603   2.538  16.814  0.2963  1.8213  1.9526
 1568TIP3    H226120   2.474   2.613  16.791 -0.4174 -0.5363 -2.9226
 1569TIP3   OH226121   6.337   5.494  10.634 -0.7700 -0.0620 -0.3685
 1569TIP3    H126122   6.397   5.568  10.623 -0.5073 -0.1034  0.6360
 1569TIP3    H226123   6.297   5.482  10.548  1.8432 -1.0417 -1.5607
 1570TIP3   OH226124   0.338   5.622  15.468  0.0262  0.1922 -0.1473
 1570TIP3    H126125   0.292   5.547  15.506  0.3314  0.3957  0.6426
 1570TIP3    H226126   0.285   5.647  15.393 -0.8979  0.1129  0.4602
 1571TIP3   OH226127   5.765   4.397  15.332  0.2362 -0.0934 -0.2326
 1571TIP3    H126128   5.691   4.421  15.277  0.6605  0.3476 -0.6329
 1571TIP3    H226129   5.827   4.355  15.272  0.0055 -1.1349  0.2393
 1572TIP3   OH226130   5.465   5.184  16.822 -0.3592  0.1089 -0.5252
 1572TIP3    H126131   5.505   5.217  16.742 -0.6014  2.0357  0.1005
 1572TIP3    H226132   5.385   5.235  16.832 -1.2488 -1.3338  0.0358
 1573TIP3   OH226133   1.947   5.913  12.232  0.4191  0.1537  0.0683
 1573TIP3    H126134   1.993   5.933  12.150 -0.4825  1.9815 -0.0396
 1573TIP3    H226135   1.998   5.956  12.300 -0.8789  1.9315 -0.0184
 1574TIP3   OH226136   1.643   5.809  16.375 -0.4678  0.0931 -0.1740
 1574TIP3    H126137   1.652   5.902  16.392 -1.2708  0.4633 -1.6436
 1574TIP3    H226138   1.687   5.767  16.450 -0.7375  1.6100  0.8866
 1575TIP3   OH226139   0.645   2.693   5.831 -0.3092  0.2776 -0.3749
 1575TIP3    H126140   0.606   2.769   5.787  1.3884  0.3199 -1.9279
 1575TIP3    H226141   0.712   2.730   5.888  1.8117 -0.0483 -2.5085
 1576TIP3   OH226142   4.081   3.110  14.343 -0.0725 -0.1528  0.0975
 1576TIP3    H126143   3.994   3.088  14.309 -1.0170  1.2478  1.4254
 1576TIP3    H226144   4.123   3.157  14.271 -1.6741  1.9456  0.4033
 1577TIP3   OH226145   5.936   2.665   3.397  0.2308 -0.3383  0.1408
 1577TIP3    H126146   6.005   2.717   3.356 -1.7740  1.4025 -1.2055
 1577TIP3    H226147   5.898   2.614   3.326 -2.3905  1.6995 -0.0935
 1578TIP3   OH226148   0.719   1.279  11.844  0.1159 -0.0339 -0.0056
 1578TIP3    H126149   0.623   1.272  11.836  0.3088 -1.6106 -1.6339
 1578TIP3    H226150   0.749   1.188  11.841  1.6115  0.3407  2.0044
 1579TIP3   OH226151   3.230   1.623   3.225  1.1438  0.2226  0.1673
 1579TIP3    H126152   3.220   1.628   3.130  0.4216  1.1755  0.2832
 1579TIP3    H226153   3.298   1.556   3.238 -1.1080 -2.4676 -0.8790
 1580TIP3   OH226154   2.974   2.916  16.787  0.3777 -0.3570  0.1347
 1580TIP3    H126155   2.983   2.984  16.854 -0.3464 -0.0185 -0.0949
 1580TIP3    H226156   2.880   2.908  16.774  0.5237  0.1654 -1.4202
 1581TIP3   OH226157   5.180   4.321   5.568 -0.2724  0.1428  0.5212
 1581TIP3    H126158   5.142   4.234   5.578  0.8801 -0.5094 -0.4401
 1581TIP3    H226159   5.157   4.346   5.478 -0.3551  0.7072  0.6991
 1582TIP3   OH226160   5.409   2.077   2.865  0.2029  0.0763 -0.6451
 1582TIP3    H126161   5.406   2.162   2.821  0.3664  0.5519  0.2509
 1582TIP3    H226162   5.479   2.086   2.930 -0.1821 -0.5433 -0.1411
 1583TIP3   OH226163   1.605   6.262   2.187  0.1879 -0.7780  0.0049
 1583TIP3    H126164   1.697   6.244   2.170  0.0232 -0.5050 -1.3134
 1583TIP3    H226165   1.603   6.297   2.276  1.5918  0.8395 -0.5416
 1584TIP3   OH226166   4.525   5.450   3.494  0.3436  0.3586  0.1376
 1584TIP3    H126167   4.532   5.435   3.399  0.8750  1.3646  0.0010
 1584TIP3    H226168   4.584   5.386   3.533  0.1417 -0.0467 -0.2140
 1585TIP3   OH226169   1.238   2.916   0.580 -0.8704  0.2266  0.3300
 1585TIP3    H126170   1.229   2.820   0.582 -1.0604  0.1965 -0.8425
 1585TIP3    H226171   1.331   2.932   0.596 -0.6558 -0.2176 -0.4154
 1586TIP3   OH226172   3.751   1.038   2.040  0.0532  0.5823  0.1650
 1586TIP3    H126173   3.669   1.034   2.090  0.7741  0.6244  1.3806
 1586TIP3    H226174   3.820   1.042   2.106  1.2043 -1.7765 -0.7740
 1587TIP3   OH226175   5.618   6.275  14.651  0.0951  0.3657  0.0813
 1587TIP3    H126176   5.561   6.249  14.579  0.7551 -0.7630 -0.0443
 1587TIP3    H226177   5.622   6.199  14.708 -0.4935  1.2695  1.3938
 1588TIP3   OH226178   4.719   5.687   1.784 -0.1438  0.3588 -0.2490
 1588TIP3    H126179   4.777   5.757   1.814  0.2295 -0.6579  1.5618
 1588TIP3    H226180   4.645   5.732   1.744  0.6295  1.7396 -0.1890
 1589TIP3   OH226181   2.136   4.001  16.071 -0.5653 -0.3133 -0.5847
 1589TIP3    H126182   2.059   3.946  16.057 -0.9144 -0.2438  0.9245
 1589TIP3    H226183   2.210   3.943  16.056 -0.8941 -1.7593  2.6137
 1590TIP3   OH226184   2.615   0.377   3.108  0.0836  0.3682  0.3504
 1590TIP3    H126185   2.606   0.450   3.169  4.2912  1.6206 -0.2545
 1590TIP3    H226186   2.594   0.300   3.161 -2.7856  1.7899  1.4686
 1591TIP3   OH226187   5.201   0.828   4.592  0.1138  0.8653 -0.4439
 1591TIP3    H126188   5.118   0.804   4.632  1.2609  0.2042  1.7065
 1591TIP3    H226189   5.221   0.756   4.532 -0.2058  0.3248  0.0918
 1592TIP3   OH226190   0.267   3.731  15.085  0.1007 -0.4628 -0.0183
 1592TIP3    H126191   0.190   3.768  15.129  0.4060  1.3644 -0.9113
 1592TIP3    H226192   0.311   3.807  15.047  0.5162 -1.7990 -2.4153
 1593TIP3   OH226193   4.399   5.971  17.081 -0.3846 -0.6530  0.1999
 1593TIP3    H126194   4.315   5.928  17.067  0.3718 -1.5839 -1.7630
 1593TIP3    H226195   4.410   6.028  17.005  1.5060 -1.8287 -0.4859
 1594TIP3   OH226196   6.477   0.522   3.231  0.1609  0.1591  0.0381
 1594TIP3    H126197   6.407   0.457   3.235  1.2196 -0.9625  2.4812
 1594TIP3    H226198   6.433   0.605   3.212 -1.5841 -0.7793 -0.1793
 1595TIP3   OH226199   0.092   3.467   1.558  0.5248  0.1781  0.4413
 1595TIP3    H126200  -0.001   3.458   1.581  0.5688 -1.1578  0.1730
 1595TIP3    H226201   0.095   3.544   1.501 -0.7429 -0.8524 -1.1254
 1596TIP3   OH226202   5.505   4.500  17.093  0.0928  0.2408  0.6537
 1596TIP3    H126203   5.530   4.534  17.179  0.9458 -1.6180  1.1850
 1596TIP3    H226204   5.462   4.574  17.050 -0.3624  1.2265  2.6721
 1597TIP3   OH226205   0.504   3.185   2.346 -0.2349 -0.3761  0.0421
 1597TIP3    H126206   0.543   3.136   2.418  0.7884  1.7517  1.0209
 1597TIP3    H226207   0.409   3.175   2.359 -0.0857  0.3102  1.9623
 1598TIP3   OH226208   1.988   2.174  15.535  0.2115 -0.2581 -0.1744
 1598TIP3    H126209   2.043   2.124  15.475  1.3807 -1.1691  1.5715
 1598TIP3    H226210   1.938   2.107  15.582 -0.5623  0.4322 -0.0008
 1599TIP3   OH226211   3.442   0.300  16.301  0.3672 -0.1221 -0.4750
 1599TIP3    H126212   3.483   0.332  16.220  0.2157  0.5974 -0.2779
 1599TIP3    H226213   3.349   0.298  16.282  0.3155  0.2096 -0.2733
 1600TIP3   OH226214   6.374   0.263   3.733 -0.0187 -0.1653  0.0759
 1600TIP3    H126215   6.423   0.264   3.815  0.1280  3.3528  0.0975
 1600TIP3    H226216   6.429   0.213   3.673  1.9370  0.7291  1.0417
 1601TIP3   OH226217   5.353   3.815  10.983 -0.0638  0.0331 -0.0266
 1601TIP3    H126218   5.414   3.747  10.954  1.5335  0.9745  0.9875
 1601TIP3    H226219   5.409   3.889  11.006 -1.6206  0.9940  0.8287
 1602TIP3   OH226220   3.533   2.446   5.390  0.0115 -0.4183 -0.0293
 1602TIP3    H126221   3.555   2.521   5.445 -0.2564  0.1201 -0.6506
 1602TIP3    H226222   3.568   2.371   5.438  1.1608  0.1902  0.1262
 1603TIP3   OH226223   0.927   5.572  13.726 -0.1271  0.2656  0.5074
 1603TIP3    H126224   0.881   5.634  13.782 -1.7791 -0.8595  0.4475
 1603TIP3    H226225   0.945   5.621  13.645 -1.8960  0.5498  0.2472
 1604TIP3   OH226226   2.372   6.242  11.801 -0.6386  0.2426  0.2974
 1604TIP3    H126227   2.373   6.201  11.887  0.1030 -1.5232 -0.4976
 1604TIP3    H226228   2.464   6.259  11.782 -0.8161  0.8280 -0.0630
 1605TIP3   OH226229   5.598   3.655  11.597  0.3373 -0.2754  0.5937
 1605TIP3    H126230   5.561   3.567  11.587 -0.9285  0.3660 -0.8553
 1605TIP3    H226231   5.524   3.708  11.626  0.2988  0.8454 -1.3890
 1606TIP3   OH226232   1.179   1.884  11.535  0.2199  0.0000  0.2181
 1606TIP3    H126233   1.246   1.820  11.512  0.1839 -0.0824  0.3390
 1606TIP3    H226234   1.147   1.917  11.451  0.9930  0.6560  0.1737
 1607TIP3   OH226235   1.597   0.345  10.232  0.0278  0.1402 -0.3283
 1607TIP3    H126236   1.552   0.382  10.308  0.3657  2.6571 -1.2429
 1607TIP3    H226237   1.527   0.306  10.179 -0.6564  1.2005 -0.2299
 1608TIP3   OH226238   0.082   5.353   1.171 -0.2251  0.2193  0.3099
 1608TIP3    H126239   0.151   5.315   1.116  0.7692  1.4672  0.6388
 1608TIP3    H226240   0.072   5.291   1.243  0.7563  0.1300  0.3927
 1609TIP3   OH226241   0.807   4.784   4.896 -0.3179 -0.2290 -0.1808
 1609TIP3    H126242   0.792   4.773   4.802 -2.4366  0.8782 -0.0450
 1609TIP3    H226243   0.758   4.711   4.936 -0.4830  0.0389  0.1051
 1610TIP3   OH226244   5.642   0.048   0.192 -0.1943 -0.0445  0.4440
 1610TIP3    H126245   5.620  -0.044   0.208 -1.3853 -0.0637 -1.0912
 1610TIP3    H226246   5.561   0.086   0.158  0.3312  1.5539  0.9085
 1611TIP3   OH226247   1.278   3.852   4.682  0.4292  0.0938 -0.9931
 1611TIP3    H126248   1.371   3.832   4.667  0.3785  0.3501 -1.6802
 1611TIP3    H226249   1.240   3.769   4.713  1.1546  0.3228  0.6028
 1612TIP3   OH226250   5.657   5.028  15.455  0.0817 -0.3302  0.3680
 1612TIP3    H126251   5.604   5.038  15.375 -0.6839  0.8662  1.0007
 1612TIP3    H226252   5.712   5.106  15.457  0.4029 -0.5663  0.7902
 1613TIP3   OH226253   2.210   2.904  15.040  0.3799 -0.0340 -0.5865
 1613TIP3    H126254   2.277   2.844  15.073 -1.0039 -0.6979  1.1843
 1613TIP3    H226255   2.154   2.921  15.115 -1.7076  0.1447 -2.0937
 1614TIP3   OH226256   4.525   3.662   5.002 -0.1585 -0.3911 -0.0395
 1614TIP3    H126257   4.448   3.632   5.051 -1.1265  1.4199 -0.3367
 1614TIP3    H226258   4.519   3.758   5.005  0.3431 -0.1945 -2.7497
 1615TIP3   OH226259   3.711   5.947  13.970 -0.1757  0.5071 -0.6917
 1615TIP3    H126260   3.805   5.966  13.976 -0.3738  1.8209 -1.3422
 1615TIP3    H226261   3.669   6.016  14.022 -0.8626  1.0156 -1.8825
 1616TIP3   OH226262   2.250   4.812  11.932 -0.1995 -0.0999 -0.0833
 1616TIP3    H126263   2.239   4.885  11.993 -0.7323 -0.6705  0.5200
 1616TIP3    H226264   2.161   4.785  11.910 -0.0328 -1.4485  0.7892
 1617TIP3   OH226265   1.805   0.498  14.009 -0.9745 -0.2700 -0.3094
 1617TIP3    H126266   1.871   0.542  13.954 -0.4887  0.3540  0.7360
 1617TIP3    H226267   1.851   0.480  14.091 -1.8711 -0.5835  0.1330
 1618TIP3   OH226268   4.514   4.880   2.807 -0.4175 -0.2858 -0.9340
 1618TIP3    H126269   4.586   4.926   2.765 -1.5931 -0.1198 -2.8674
 1618TIP3    H226270   4.547   4.791   2.821  0.4960  0.0599 -0.8614
 1619TIP3   OH226271   3.097   0.623   1.207  0.2785 -0.3248 -0.0183
 1619TIP3    H126272   3.190   0.603   1.210  0.5597  0.7237 -1.0711
 1619TIP3    H226273   3.075   0.650   1.296  0.9976 -0.4729  0.2130
 1620TIP3   OH226274   4.038   4.469   1.842 -0.2087  0.1809  0.3971
 1620TIP3    H126275   4.088   4.551   1.843 -0.2276  0.2021  1.4218
 1620TIP3    H226276   4.095   4.406   1.886 -0.9358  0.1329  1.3142
 1621TIP3   OH226277   5.482   2.153  14.881  0.0352  0.4763 -0.0188
 1621TIP3    H126278   5.452   2.159  14.971 -2.4320 -0.8081 -0.6623
 1621TIP3    H226279   5.554   2.090  14.883  1.7607  2.3694  1.3547
 1622TIP3   OH226280   2.044   1.213   1.777 -0.3476 -0.4968 -0.5679
 1622TIP3    H126281   1.975   1.239   1.716 -0.5794 -2.2464 -1.1206
 1622TIP3    H226282   2.126   1.234   1.732 -0.5212 -0.1817 -0.7362
 1623TIP3   OH226283   3.281   6.593  13.549  0.3946  0.2294 -0.2248
 1623TIP3    H126284   3.370   6.610  13.518  0.9060  0.0487  1.0879
 1623TIP3    H226285   3.289   6.589  13.645 -1.1092  0.7179 -0.0498
 1624TIP3   OH226286   3.154   3.802  11.601  0.8163  0.3002 -0.0460
 1624TIP3    H126287   3.225   3.826  11.661  1.1213  1.6015 -0.8876
 1624TIP3    H226288   3.154   3.706  11.602  2.0160  0.2840  0.6489
 1625TIP3   OH226289   1.857   3.078  13.942 -0.7497 -0.4253  0.6705
 1625TIP3    H126290   1.921   3.093  14.011 -0.3466  1.1571 -0.0066
 1625TIP3    H226291   1.870   2.986  13.917 -1.1645 -1.1590  2.8978
 1626TIP3   OH226292   5.825   2.869  11.125  0.0491  0.2053 -0.7241
 1626TIP3    H126293   5.765   2.917  11.181  1.4677  2.7869 -1.2536
 1626TIP3    H226294   5.809   2.777  11.146 -2.0962  0.9020  1.1125
 1627TIP3   OH226295   0.043   6.475   3.739  0.6459 -0.0033 -0.4717
 1627TIP3    H126296  -0.028   6.521   3.783  1.5956  1.4811 -0.4322
 1627TIP3    H226297   0.008   6.388   3.723 -0.0915 -0.3253  2.3188
 1628TIP3   OH226298   4.981   4.064   5.302 -0.7508 -0.0303  0.1318
 1628TIP3    H126299   5.031   4.058   5.383 -0.8601 -1.5057  0.1224
 1628TIP3    H226300   4.900   4.109   5.327 -1.2141 -1.3440  1.0776
 1629TIP3   OH226301   1.550   5.865  14.978  0.3726 -0.1070 -0.2300
 1629TIP3    H126302   1.521   5.857  14.887  0.3255 -3.4526 -0.0474
 1629TIP3    H226303   1.537   5.957  15.000 -1.5973  0.3682 -2.9381
 1630TIP3   OH226304   5.815   6.751  17.273  0.3011 -0.0117  0.5783
 1630TIP3    H126305   5.827   6.691  17.199  0.5809  0.7615 -0.0123
 1630TIP3    H226306   5.732   6.795  17.254 -0.0406 -0.4016  1.1504
 1631TIP3   OH226307   5.931   5.661   0.372  1.0632  0.0643 -0.0204
 1631TIP3    H126308   5.973   5.619   0.297 -0.5555  0.7108 -1.3625
 1631TIP3    H226309   5.894   5.589   0.422  0.9427 -0.3066 -0.6250
 1632TIP3   OH226310   2.687   5.876  11.045  0.0213 -0.0829 -0.1318
 1632TIP3    H126311   2.646   5.802  11.001 -0.2330 -1.2562  1.9399
 1632TIP3    H226312   2.773   5.884  11.004 -0.7582 -0.1512 -1.8212
 1633TIP3   OH226313   2.220   5.256  15.428 -0.5513 -0.1461 -0.4522
 1633TIP3    H126314   2.134   5.284  15.458  0.6548  2.4070  0.8976
 1633TIP3    H226315   2.247   5.190  15.492 -0.3158  1.2052  0.8855
 1634TIP3   OH226316   1.913   3.305  15.044 -0.2387 -0.4232 -0.0963
 1634TIP3    H126317   1.933   3.330  15.134 -0.1842 -2.0220  0.3573
 1634TIP3    H226318   1.906   3.389  14.997  0.4964  0.4118  1.2150
 1635TIP3   OH226319   4.702   3.583   1.146  0.5128 -0.3336 -0.0886
 1635TIP3    H126320   4.710   3.665   1.195  0.7446 -0.4975  0.1471
 1635TIP3    H226321   4.666   3.609   1.061  0.9505  0.0586 -0.1552
 1636TIP3   OH226322   5.720   1.710  14.865  0.2210 -0.5386  0.1606
 1636TIP3    H126323   5.670   1.665  14.933  0.5389  1.0621  1.5035
 1636TIP3    H226324   5.714   1.803  14.888 -1.9842  0.4298 -3.4975
 1637TIP3   OH226325   5.931   5.301  14.696 -0.1581  0.6337  0.3799
 1637TIP3    H126326   5.876   5.266  14.766  0.1859 -1.2118 -0.2313
 1637TIP3    H226327   5.874   5.301  14.619  0.1638  0.4306  0.1416
 1638TIP3   OH226328   0.376   1.644  15.049  0.7998 -0.4874  0.6571
 1638TIP3    H126329   0.333   1.671  14.968  0.7450 -2.0000  0.1588
 1638TIP3    H226330   0.407   1.726  15.087 -0.2624  0.3793 -0.2565
 1639TIP3   OH226331   3.900   4.233   6.381 -0.2476  0.3353 -0.6804
 1639TIP3    H126332   3.874   4.176   6.309 -0.7866  0.0671 -0.2810
 1639TIP3    H226333   3.818   4.257   6.424  0.0078  1.0422 -0.5637
 1640TIP3   OH226334   2.230   0.117   2.701 -0.3148 -0.0351  0.7818
 1640TIP3    H126335   2.285   0.063   2.644 -1.2809 -1.8459  1.4751
 1640TIP3    H226336   2.279   0.123   2.783 -1.1695 -1.8919  1.5004
 1641TIP3   OH226337   6.141   5.261  11.657  0.0423  1.0080  0.0709
 1641TIP3    H126338   6.231   5.288  11.639 -0.0495  1.1052 -0.2625
 1641TIP3    H226339   6.094   5.279  11.575 -0.3112  1.0967  0.2909
 1642TIP3   OH226340   5.721   1.717  15.450  0.4103 -0.2762 -0.1315
 1642TIP3    H126341   5.772   1.754  15.522  1.5174  1.8285 -1.8754
 1642TIP3    H226342   5.651   1.668  15.493  0.2898  1.8967  2.3907
 1643TIP3   OH226343   6.760   0.135  14.317 -0.2164  0.2347  0.0049
 1643TIP3    H126344   6.855   0.147  14.325 -0.4281  0.8857  1.8855
 1643TIP3    H226345   6.741   0.054  14.364 -0.5555 -0.1886 -0.8275
 1644TIP3   OH226346   0.428   6.529   1.585 -0.2721  0.1833 -0.0548
 1644TIP3    H126347   0.371   6.606   1.593  0.0401  0.2276  2.9584
 1644TIP3    H226348   0.510   6.564   1.551 -0.5432  0.9674  0.0689
 1645TIP3   OH226349   5.075   6.504   4.432  0.2324  0.1092 -0.3435
 1645TIP3    H126350   5.050   6.558   4.356  2.0559 -0.1128 -1.1713
 1645TIP3    H226351   5.086   6.567   4.503  0.1555  0.5462 -0.7099
 1646TIP3   OH226352   1.716   2.254   0.215 -0.6262 -0.0264 -0.5689
 1646TIP3    H126353   1.770   2.333   0.218 -1.0433  0.4252 -2.8633
 1646TIP3    H226354   1.630   2.283   0.245 -0.2597 -0.1538  0.6596
 1647TIP3   OH226355   4.343   4.030  13.378 -0.3934 -0.4298  0.2548
 1647TIP3    H126356   4.409   4.020  13.447 -0.2716 -0.5017  0.1282
 1647TIP3    H226357   4.274   3.968  13.401 -0.3003 -0.5350  0.2506
 1648TIP3   OH226358   4.560   6.398  12.475  0.2426 -0.3900  0.0540
 1648TIP3    H126359   4.532   6.313  12.442 -0.0027 -0.0064 -0.7510
 1648TIP3    H226360   4.581   6.448  12.396 -2.0590  1.1553  0.3340
 1649TIP3   OH226361   0.501   3.397   4.477  0.2923 -0.5183 -0.3123
 1649TIP3    H126362   0.494   3.487   4.507 -0.8700 -0.7789  0.2623
 1649TIP3    H226363   0.411   3.372   4.455  0.8102 -0.9926 -2.1355
 1650TIP3   OH226364   0.468   1.127  11.773 -0.0162  0.0575 -0.1623
 1650TIP3    H126365   0.500   1.039  11.794  0.4584  0.3832  0.5323
 1650TIP3    H226366   0.459   1.127  11.678 -0.1696 -0.7936 -0.1560
 1651TIP3   OH226367   3.893   4.372   2.563  0.0130 -0.2904 -0.0162
 1651TIP3    H126368   3.949   4.405   2.633 -0.6638 -0.3186  0.5507
 1651TIP3    H226369   3.952   4.321   2.508  0.4238 -0.9102  0.9635
 1652TIP3   OH226370   2.763   2.506   2.948  0.3273  0.2337 -0.6871
 1652TIP3    H126371   2.843   2.460   2.973 -0.5847 -0.0190  2.1452
 1652TIP3    H226372   2.794   2.587   2.908  2.0491  0.4336  0.9063
 1653TIP3   OH226373   1.929   1.955  12.694 -0.3937 -0.2428  0.1841
 1653TIP3    H126374   1.937   1.873  12.742 -1.5462 -1.7388 -2.0478
 1653TIP3    H226375   1.949   1.932  12.603 -1.0989  1.8672 -0.5608
 1654TIP3   OH226376   3.485   3.677  11.121  0.0347 -0.1230  0.3020
 1654TIP3    H126377   3.437   3.736  11.063  1.0713 -0.1438 -0.5920
 1654TIP3    H226378   3.496   3.727  11.202 -1.4361 -0.1006  0.5269
 1655TIP3   OH226379   0.890   2.003   2.977 -0.0440  0.5898  0.4520
 1655TIP3    H126380   0.972   2.010   2.928  0.4476 -0.2179  1.1300
 1655TIP3    H226381   0.822   2.003   2.910  0.6008 -0.2414 -0.2306
 1656TIP3   OH226382   5.566   0.169  12.725  0.4232  0.8241 -0.0556
 1656TIP3    H126383   5.605   0.150  12.811  1.3637  0.8312 -0.4677
 1656TIP3    H226384   5.513   0.092  12.706 -0.9128  1.3922  1.1262
 1657TIP3   OH226385   1.852   6.355  15.566 -0.3136  0.0968  0.0668
 1657TIP3    H126386   1.872   6.265  15.593  1.2490  0.5346  0.4728
 1657TIP3    H226387   1.756   6.359  15.566 -0.4059 -1.3814  0.6464
 1658TIP3   OH226388   0.962   2.486   0.102  0.7781 -0.2401  0.6229
 1658TIP3    H126389   1.002   2.409   0.142 -0.4177 -0.8924  0.5952
 1658TIP3    H226390   0.937   2.541   0.176  2.1279  0.4120  0.6314
 1659TIP3   OH226391   2.955   1.920  16.187 -0.3892 -0.0619 -0.0700
 1659TIP3    H126392   2.954   1.826  16.204  1.2331 -0.1312 -0.1965
 1659TIP3    H226393   2.877   1.936  16.133 -0.0248 -1.5610 -1.0940
 1660TIP3   OH226394   2.751   2.125  16.055 -0.2140  0.2542  0.3501
 1660TIP3    H126395   2.775   2.151  15.966  0.6730  0.2086  0.5694
 1660TIP3    H226396   2.726   2.033  16.046  3.8008 -1.0852  0.7344
 1661TIP3   OH226397   4.655   5.681   0.310 -0.2053  0.0504  0.4494
 1661TIP3    H126398   4.561   5.691   0.322 -0.4593 -1.6203  0.0984
 1661TIP3    H226399   4.671   5.704   0.218 -0.1044  1.2092  0.7379
 1662TIP3   OH226400   6.314   4.882   4.176 -0.2890  0.2936 -0.5580
 1662TIP3    H126401   6.380   4.820   4.146 -1.2045 -1.2631  0.5071
 1662TIP3    H226402   6.364   4.949   4.223  0.5655 -0.8287  0.2046
 1663TIP3   OH226403   6.345   0.276  14.456  0.3568  0.2510  0.5323
 1663TIP3    H126404   6.300   0.341  14.402  0.2967  0.7358  1.1493
 1663TIP3    H226405   6.278   0.209  14.473  0.3140  0.2050  0.1908
 1664TIP3   OH226406   3.823   3.351  10.613  0.2653 -0.0292  0.4590
 1664TIP3    H126407   3.801   3.271  10.660  0.4878 -0.2239  0.2328
 1664TIP3    H226408   3.775   3.344  10.530  0.5038 -0.0589  0.3220
 1665TIP3   OH226409   3.902   5.286   5.051  0.4664  0.0131  0.0393
 1665TIP3    H126410   3.893   5.327   4.965 -2.2621  0.3948  0.4167
 1665TIP3    H226411   3.996   5.267   5.059  1.2897  2.8179 -1.6724
 1666TIP3   OH226412   1.566   1.878   2.853 -0.2633 -0.1600  0.1505
 1666TIP3    H126413   1.589   1.832   2.933  2.3093  0.8258  0.0735
 1666TIP3    H226414   1.546   1.967   2.882 -0.4687 -0.0982 -0.1767
 1667TIP3   OH226415   4.279   4.608  12.604 -0.1392  0.3251 -0.3248
 1667TIP3    H126416   4.219   4.662  12.551 -1.0460 -0.4574 -0.1271
 1667TIP3    H226417   4.314   4.545  12.542 -2.2371 -1.4657  0.1928
 1668TIP3   OH226418   1.133   3.699  11.761 -0.7667  0.4365  0.1254
 1668TIP3    H126419   1.216   3.741  11.783 -1.0784  0.9632  0.3322
 1668TIP3    H226420   1.143   3.608  11.788 -0.0593  0.3553 -0.3644
 1669TIP3   OH226421   5.614   4.505   0.805 -0.3245 -0.4224  0.4196
 1669TIP3    H126422   5.528   4.474   0.834 -0.2359 -1.0332  0.0393
 1669TIP3    H226423   5.642   4.566   0.874 -0.5098 -1.1796  1.1747
 1670TIP3   OH226424   0.917   1.055  13.464 -0.0608 -0.8757  0.3190
 1670TIP3    H126425   0.846   1.094  13.413 -0.6235 -0.0903  1.6273
 1670TIP3    H226426   0.995   1.102  13.437 -0.8418  1.9150  2.4617
 1671TIP3   OH226427   2.137   4.911  16.646  0.1985  0.0800 -0.1835
 1671TIP3    H126428   2.201   4.855  16.691  1.4813  0.7307 -1.1316
 1671TIP3    H226429   2.067   4.923  16.711  1.3438 -0.1192  1.1540
 1672TIP3   OH226430   0.105   6.364  12.883  0.1928  0.6448  0.7054
 1672TIP3    H126431   0.083   6.452  12.852 -0.7157  0.1370 -0.1592
 1672TIP3    H226432   0.135   6.318  12.805 -0.7402 -0.2297  0.8388
 1673TIP3   OH226433   5.936   5.850  11.821  0.2253  0.7094  0.5755
 1673TIP3    H126434   5.849   5.870  11.855 -0.1037  2.0890 -0.9713
 1673TIP3    H226435   5.922   5.776  11.762  0.2798  0.3447  1.0090
 1674TIP3   OH226436   2.142   4.758  17.288 -0.3069 -0.0112  0.0125
 1674TIP3    H126437   2.179   4.673  17.312 -0.2580  0.5186  1.9568
 1674TIP3    H226438   2.062   4.766  17.340  0.4111  1.6873  0.9656
 1675TIP3   OH226439   0.703   4.209   0.129 -0.3812 -0.7018 -0.3373
 1675TIP3    H126440   0.732   4.121   0.154  1.2956 -0.1121 -0.0388
 1675TIP3    H226441   0.744   4.266   0.194  0.1631  0.4678 -1.6779
 1676TIP3   OH226442   5.598   3.548  12.486 -0.3498  0.2394  0.2086
 1676TIP3    H126443   5.626   3.481  12.548 -1.5159  1.7115  2.4464
 1676TIP3    H226444   5.639   3.522  12.403  2.3764 -1.1162  1.8308
 1677TIP3   OH226445   3.859   0.198   1.747 -0.1186  0.2651 -0.3707
 1677TIP3    H126446   3.766   0.204   1.727 -0.4301 -1.3008  0.5353
 1677TIP3    H226447   3.896   0.278   1.709 -1.9944  1.5315  0.3296
 1678TIP3   OH226448   1.557   3.364  16.303 -0.1187  0.2366  0.1326
 1678TIP3    H126449   1.540   3.275  16.272 -0.0627  0.3538 -0.2395
 1678TIP3    H226450   1.471   3.407  16.297 -0.0081  0.4004 -0.3336
 1679TIP3   OH226451   4.993   4.886   1.539 -0.4764  0.0246  0.3103
 1679TIP3    H126452   5.033   4.854   1.458 -0.2398  0.6388  0.1820
 1679TIP3    H226453   4.916   4.934   1.511 -0.4491  0.1538  0.4522
 1680TIP3   OH226454   0.396   1.085  13.608 -0.0907 -0.5481 -0.0564
 1680TIP3    H126455   0.407   1.095  13.514 -1.5865  0.2865 -0.1697
 1680TIP3    H226456   0.469   1.133  13.646  1.4663 -2.2400 -0.7621
 1681TIP3   OH226457   5.784   0.541   3.143 -0.2200  0.0890 -0.3356
 1681TIP3    H126458   5.756   0.621   3.098 -0.6371  0.3826  0.4239
 1681TIP3    H226459   5.787   0.475   3.074 -1.1850  0.4418 -0.7311
 1682TIP3   OH226460   3.597   5.218   2.400 -0.4386  0.3573 -0.6230
 1682TIP3    H126461   3.516   5.246   2.441 -0.2315  1.2927 -0.8293
 1682TIP3    H226462   3.573   5.139   2.350 -0.6536 -0.8885  1.3643
 1683TIP3   OH226463   3.806   6.757  17.018 -0.2007  0.1690  0.5283
 1683TIP3    H126464   3.806   6.694  16.946  1.6681  0.1259  0.5114
 1683TIP3    H226465   3.748   6.718  17.084 -1.0668 -0.3167 -0.4913
 1684TIP3   OH226466   2.225   4.046  16.722 -0.8020  0.0567  0.3713
 1684TIP3    H126467   2.292   4.110  16.745  0.2407 -1.5648  2.1343
 1684TIP3    H226468   2.261   4.002  16.644  0.0422 -0.5270  1.0660
 1685TIP3   OH226469   5.900   3.989   0.132 -0.7718 -0.6416  0.4687
 1685TIP3    H126470   5.836   4.060   0.124 -1.5697 -1.4964 -1.1300
 1685TIP3    H226471   5.863   3.931   0.199 -1.0496 -0.4991  0.4410
 1686TIP3   OH226472   6.103   1.537  13.770 -0.2723  0.3188 -0.2113
 1686TIP3    H126473   6.012   1.567  13.759  0.3741  2.1425 -0.8702
 1686TIP3    H226474   6.137   1.532  13.681  0.2816 -0.4121  0.0322
 1687TIP3   OH226475   3.410   1.945  14.414  0.1933 -0.5295 -0.5497
 1687TIP3    H126476   3.407   2.010  14.485  1.0419 -0.1115 -0.8874
 1687TIP3    H226477   3.318   1.931  14.391 -0.1962 -1.4989  1.3562
 1688TIP3   OH226478   3.892   0.886   0.886  0.3770  0.0501 -0.1255
 1688TIP3    H126479   3.862   0.829   0.956  0.2994  0.9012  0.5578
 1688TIP3    H226480   3.814   0.937   0.862  0.7085  0.6487  0.0522
 1689TIP3   OH226481   3.192   5.059  14.918 -0.4205 -0.3116 -0.2127
 1689TIP3    H126482   3.223   5.104  14.997 -0.3181  1.1492 -1.0498
 1689TIP3    H226483   3.171   5.130  14.857 -1.4331 -1.3899 -1.1546
 1690TIP3   OH226484   3.277   2.961  13.635 -0.3161 -0.5632 -0.0752
 1690TIP3    H126485   3.321   3.004  13.561  1.6571 -1.1365  0.7008
 1690TIP3    H226486   3.249   3.033  13.691  0.6524 -0.1700 -0.0644
 1691TIP3   OH226487   5.175   2.937   3.530  0.5273  0.3540 -0.3204
 1691TIP3    H126488   5.264   2.902   3.535  0.6026  0.5391 -0.3341
 1691TIP3    H226489   5.155   2.938   3.437 -0.1511 -1.3122 -0.2301
 1692TIP3   OH226490   2.791   6.205   3.666 -0.1306  0.1865 -0.0600
 1692TIP3    H126491   2.798   6.136   3.601 -0.7093 -0.7844  0.8796
 1692TIP3    H226492   2.867   6.194   3.723  0.4088  1.0709 -0.5815
 1693TIP3   OH226493   5.910   2.489  17.128  0.0960  0.1084 -0.0724
 1693TIP3    H126494   5.981   2.428  17.146  0.7836  1.0093  0.3458
 1693TIP3    H226495   5.873   2.459  17.045 -0.9930 -2.1593  1.1284
 1694TIP3   OH226496   5.772   5.731  15.264  0.0764 -0.3628  0.3604
 1694TIP3    H126497   5.862   5.733  15.230 -0.3269 -2.5986 -1.0923
 1694TIP3    H226498   5.778   5.772  15.350  2.6027 -0.9636  0.5649
 1695TIP3   OH226499   5.261   4.865   0.481  0.0127  0.4257  0.1712
 1695TIP3    H126500   5.315   4.788   0.465  0.7044  0.6805  1.2153
 1695TIP3    H226501   5.240   4.898   0.394  0.3707 -0.4812 -0.2683
 1696TIP3   OH226502   4.040   1.333   2.394  0.2122 -0.0099 -0.5085
 1696TIP3    H126503   4.048   1.316   2.300 -1.0694 -0.8211 -0.4990
 1696TIP3    H226504   3.946   1.326   2.412  0.4402  0.0671  0.8510
 1697TIP3   OH226505   4.575   0.678   5.090  0.3630  0.5378  0.6279
 1697TIP3    H126506   4.610   0.635   5.168 -0.3245  0.2909  0.8006
 1697TIP3    H226507   4.504   0.733   5.122 -0.2388  0.0646  0.1127
 1698TIP3   OH226508   0.838   2.113  12.767  0.4592  0.6224  0.4047
 1698TIP3    H126509   0.784   2.157  12.832  0.9958  4.3681 -1.3877
 1698TIP3    H226510   0.776   2.070  12.709 -0.1898 -0.0593  1.5807
 1699TIP3   OH226511   0.691   2.240  14.338  0.5719  0.1150  0.0591
 1699TIP3    H126512   0.711   2.257  14.430  0.5536  0.9415 -0.0805
 1699TIP3    H226513   0.629   2.167  14.340  0.6923  0.0257  0.6956
 1700TIP3   OH226514   2.243   4.481   1.919  0.0497 -0.2636  0.1714
 1700TIP3    H126515   2.153   4.449   1.920  0.0075 -0.2573 -1.5219
 1700TIP3    H226516   2.296   4.403   1.938 -0.0825 -1.3707 -3.4051
 1701TIP3   OH226517   4.299   6.198   5.313 -0.0555  0.5536  0.0910
 1701TIP3    H126518   4.215   6.170   5.350 -1.0143  2.2004 -0.7329
 1701TIP3    H226519   4.294   6.173   5.221  1.5447 -1.7944  0.5310
 1702TIP3   OH226520   4.990   3.876  12.396 -0.1005  0.1045  0.2219
 1702TIP3    H126521   4.969   3.792  12.436 -0.7456 -0.1305 -0.5788
 1702TIP3    H226522   5.006   3.935  12.470 -0.5590 -0.4899  0.8086
 1703TIP3   OH226523   0.297   5.811   6.377  0.4532 -0.1708  0.3147
 1703TIP3    H126524   0.389   5.801   6.399  0.2164 -1.8939  0.6560
 1703TIP3    H226525   0.295   5.880   6.311  1.8103  0.9295  1.3561
 1704TIP3   OH226526   5.996   2.940  13.103 -0.1054  0.0772  0.4038
 1704TIP3    H126527   5.946   2.867  13.066  0.5867 -0.3410  0.2570
 1704TIP3    H226528   5.993   2.926  13.197  1.4832 -1.1824  0.3252
 1705TIP3   OH226529   5.796   4.549   4.988 -0.0933 -0.7158  0.3679
 1705TIP3    H126530   5.864   4.506   5.040  2.1604  0.7304 -1.2089
 1705TIP3    H226531   5.801   4.641   5.014 -0.4690 -0.3565 -0.7719
 1706TIP3   OH226532   4.797   4.021   0.474  0.3301  0.0630  0.3942
 1706TIP3    H126533   4.833   3.936   0.499  0.9561  0.2479  0.1543
 1706TIP3    H226534   4.873   4.069   0.441 -0.3923 -0.0748 -1.5796
 1707TIP3   OH226535   6.143   2.510  15.091 -0.4903  0.0759 -0.2843
 1707TIP3    H126536   6.216   2.568  15.110  0.1522 -1.2365  1.5104
 1707TIP3    H226537   6.069   2.569  15.073  0.4786  1.4116 -0.0316
 1708TIP3   OH226538   1.369   2.836  15.193  0.3821 -0.2435  0.4044
 1708TIP3    H126539   1.448   2.783  15.201  1.0771  0.3672 -1.7772
 1708TIP3    H226540   1.396   2.913  15.143 -1.2369  0.8021  1.0539
 1709TIP3   OH226541   1.215   6.252   0.601  0.0166 -0.6469 -0.2038
 1709TIP3    H126542   1.222   6.158   0.588  1.0402 -0.7029  0.5910
 1709TIP3    H226543   1.266   6.291   0.530 -0.5585 -0.6760 -0.6394
 1710TIP3   OH226544   5.528   0.720  14.718  0.0922 -0.2285  0.6556
 1710TIP3    H126545   5.594   0.751  14.655 -0.8877  2.0517  0.6778
 1710TIP3    H226546   5.559   0.752  14.803  0.8536 -2.3984  1.2744
 1711TIP3   OH226547   6.734   2.612   3.323  0.6088 -0.1453  0.3744
 1711TIP3    H126548   6.689   2.623   3.239  0.8660  3.3932  0.5697
 1711TIP3    H226549   6.668   2.632   3.389  1.3748  0.9476  0.8336
 1712TIP3   OH226550   2.455   5.782  15.519 -0.5276  0.3442 -0.2229
 1712TIP3    H126551   2.487   5.871  15.534 -0.1568  0.1009  0.4904
 1712TIP3    H226552   2.458   5.770  15.424  0.0736  0.8540 -0.2689
 1713TIP3   OH226553   0.923   3.978   2.776 -0.6437 -0.3726  0.1021
 1713TIP3    H126554   0.905   4.069   2.754  1.6958  0.2522  0.5328
 1713TIP3    H226555   0.873   3.928   2.712 -2.2156  1.1905  0.0526
 1714TIP3   OH226556   4.040   1.080  15.180  0.0605 -0.1769 -0.7318
 1714TIP3    H126557   3.975   1.028  15.227  1.3033 -2.6231 -1.5743
 1714TIP3    H226558   4.058   1.154  15.238 -1.3801 -0.9471  0.7757
 1715TIP3   OH226559   2.006   2.967  12.932 -0.4630 -0.1862 -0.0300
 1715TIP3    H126560   1.941   2.937  12.868  0.7126 -0.1616 -1.2825
 1715TIP3    H226561   1.982   3.058  12.949 -0.4108  0.0230 -0.9858
 1716TIP3   OH226562   2.933   5.632  10.680  0.1564  0.6378  0.3767
 1716TIP3    H126563   2.843   5.632  10.648  0.7321 -0.6363 -1.4308
 1716TIP3    H226564   2.943   5.716  10.724 -2.0311  0.6186  1.0339
 1717TIP3   OH226565   0.269   0.683   2.793  0.1441  0.5811 -0.0640
 1717TIP3    H126566   0.216   0.715   2.866  0.3516 -0.6543  0.6559
 1717TIP3    H226567   0.224   0.604   2.762  1.6357 -0.6343  0.7175
 1718TIP3   OH226568   1.288   5.029   4.951  0.8666  0.2414 -0.4326
 1718TIP3    H126569   1.199   4.998   4.968  1.5195 -1.3126  0.3854
 1718TIP3    H226570   1.330   5.026   5.036  2.3290 -1.1922 -1.1690
 1719TIP3   OH226571   6.365   4.879  14.591  0.1559  0.3824 -0.6120
 1719TIP3    H126572   6.272   4.868  14.571  0.4103 -0.6161 -1.2948
 1719TIP3    H226573   6.401   4.926  14.516  0.0889  1.3158 -0.0661
 1720TIP3   OH226574   0.794   2.891   6.467 -0.0759  0.7200 -0.3685
 1720TIP3    H126575   0.873   2.854   6.429 -0.7849  0.2160 -1.4140
 1720TIP3    H226576   0.797   2.865   6.559  0.0328 -0.9552 -0.8141
 1721TIP3   OH226577   1.736   0.437   4.422 -0.2610 -0.2951  0.0000
 1721TIP3    H126578   1.806   0.410   4.362  1.8661  1.1738  1.6935
 1721TIP3    H226579   1.668   0.472   4.364  0.3826 -1.7214 -1.7004
 1722TIP3   OH226580   2.010   0.575   4.351  0.2360  0.2201 -0.4261
 1722TIP3    H126581   2.013   0.488   4.390  1.1439  0.3627 -0.1440
 1722TIP3    H226582   2.055   0.631   4.415  0.7823  0.6603 -1.1777
 1723TIP3   OH226583   2.098   5.048  14.342  0.3967  0.6532  0.1947
 1723TIP3    H126584   2.014   5.054  14.297  0.8249  2.1354 -0.4533
 1723TIP3    H226585   2.161   5.026  14.273  0.8951  1.8891  0.2366
 1724TIP3   OH226586   6.484   0.393   3.976 -0.5127  0.5433  0.3178
 1724TIP3    H126587   6.503   0.416   4.067 -2.4214 -1.8589  1.4134
 1724TIP3    H226588   6.439   0.470   3.941 -0.7068  1.0934  1.7038
 1725TIP3   OH226589   1.545   2.383   6.727 -0.5427  0.0187 -0.3270
 1725TIP3    H126590   1.558   2.443   6.800  3.3878 -2.4389  1.2825
 1725TIP3    H226591   1.570   2.434   6.650 -1.9095  1.7499  0.2788
 1726TIP3   OH226592   5.986   0.898   3.751  0.2596 -0.2061 -0.0752
 1726TIP3    H126593   5.899   0.862   3.733  0.5941 -0.9518 -0.2441
 1726TIP3    H226594   5.972   0.992   3.758 -0.6149 -0.3471  0.2259
 1727TIP3   OH226595   6.456   5.530  14.557 -0.4892  0.0598  0.5906
 1727TIP3    H126596   6.508   5.609  14.546  0.5281 -0.9126 -3.0225
 1727TIP3    H226597   6.456   5.514  14.651  2.8677  2.0147  1.0745
 1728TIP3   OH226598   5.553   1.296  13.441  0.8491 -0.2301  0.1194
 1728TIP3    H126599   5.494   1.335  13.377 -2.4426 -0.2910  2.7821
 1728TIP3    H226600   5.537   1.202  13.434  1.2252 -0.3090  0.3089
 1729TIP3   OH226601   1.621   0.717   1.933 -0.2114  0.1760  0.4074
 1729TIP3    H126602   1.699   0.745   1.980 -0.2073 -0.7873  0.9920
 1729TIP3    H226603   1.595   0.794   1.883  0.5941  0.7862  0.8976
 1730TIP3   OH226604   3.305   4.686  14.644 -0.2544  0.0240 -0.3452
 1730TIP3    H126605   3.239   4.752  14.664  0.5897  1.6012 -2.4265
 1730TIP3    H226606   3.269   4.638  14.570  0.3089 -0.0626 -0.5650
 1731TIP3   OH226607   4.124   3.099  12.757  0.8709 -0.1230 -0.1948
 1731TIP3    H126608   4.128   3.178  12.811  0.3951 -0.1606 -0.1024
 1731TIP3    H226609   4.047   3.112  12.701  1.6955  0.1980 -1.3009
 1732TIP3   OH226610   4.444   5.696   4.558  0.1389  0.6026  0.4507
 1732TIP3    H126611   4.493   5.677   4.478  0.3015  2.4680  0.0589
 1732TIP3    H226612   4.503   5.670   4.629 -0.1129 -1.3076 -0.0145
 1733TIP3   OH226613   1.875   0.903  17.123 -0.4334  0.2976 -0.1278
 1733TIP3    H126614   1.797   0.956  17.104  0.4206  1.6480  0.0286
 1733TIP3    H226615   1.908   0.877  17.038  1.6106  3.7304 -0.5709
 1734TIP3   OH226616   2.868   1.390   5.275  0.1432  0.3044  0.2513
 1734TIP3    H126617   2.829   1.310   5.240  1.6310 -0.2058 -0.3101
 1734TIP3    H226618   2.797   1.454   5.271 -0.1752 -0.0723 -2.5038
 1735TIP3   OH226619   0.122   3.587  16.222  0.0798  0.3961 -0.1787
 1735TIP3    H126620   0.043   3.640  16.230 -0.2632  0.0111 -0.8893
 1735TIP3    H226621   0.101   3.506  16.269 -0.2679 -0.0443 -1.0719
 1736TIP3   OH226622   4.427   0.914   5.084 -0.2575 -0.0049 -0.0653
 1736TIP3    H126623   4.354   0.957   5.039  0.3807 -0.4805 -1.6195
 1736TIP3    H226624   4.505   0.960   5.053  0.4166 -1.9660 -1.5334
 1737TIP3   OH226625   5.848   5.022   2.819  0.3566 -0.1537  0.3951
 1737TIP3    H126626   5.838   4.967   2.741  1.2697 -2.5954  1.8889
 1737TIP3    H226627   5.759   5.049   2.840 -0.0137 -0.2592 -0.9152
 1738TIP3   OH226628   3.542   5.026   2.971  0.3145 -0.3776  0.0544
 1738TIP3    H126629   3.518   5.091   3.037  0.4491 -1.5618  1.3070
 1738TIP3    H226630   3.486   5.046   2.896 -0.6085  0.3411  0.9135
 1739TIP3   OH226631   3.875   3.396   3.264 -0.2102  0.3701  0.0019
 1739TIP3    H126632   3.924   3.471   3.298 -0.1831  0.4621 -0.2386
 1739TIP3    H226633   3.839   3.354   3.342 -0.5037  0.8275  0.1180
 1740TIP3   OH226634   0.130   5.850  11.852 -0.0854 -0.1580 -0.1283
 1740TIP3    H126635   0.099   5.782  11.912  1.0667 -0.6807 -0.0959
 1740TIP3    H226636   0.225   5.849  11.862  0.0090  0.9322 -0.7101
 1741TIP3   OH226637   4.209   0.076   5.839  0.6742 -0.3115 -0.2148
 1741TIP3    H126638   4.223   0.032   5.922 -0.1980  0.2908  0.2691
 1741TIP3    H226639   4.184   0.165   5.862 -0.5069 -0.3869 -1.0770
 1742TIP3   OH226640   1.510   6.498   5.511  0.2505  0.4484 -0.3098
 1742TIP3    H126641   1.427   6.450   5.521  0.8867 -0.8421 -0.9139
 1742TIP3    H226642   1.554   6.487   5.595 -1.2306  3.3849  1.0203
 1743TIP3   OH226643   6.082   2.750  16.193 -0.2363 -0.2435 -0.5942
 1743TIP3    H126644   6.177   2.741  16.204 -0.3836 -0.6265  0.4895
 1743TIP3    H226645   6.046   2.731  16.280 -1.3784 -1.2926 -1.2641
 1744TIP3   OH226646   2.138   5.928  16.121  0.1179 -0.0739  0.4122
 1744TIP3    H126647   2.188   5.867  16.067 -2.0936 -1.3703 -0.3017
 1744TIP3    H226648   2.054   5.937  16.075 -1.2671 -0.0022  2.8257
 1745TIP3   OH226649   2.810   3.662  12.587 -0.2667  0.0623  0.3139
 1745TIP3    H126650   2.728   3.712  12.588  0.4779  1.4110  2.7782
 1745TIP3    H226651   2.800   3.601  12.513 -2.4136  1.8946 -1.0599
 1746TIP3   OH226652   5.919   3.409  10.600 -1.2396  0.2751 -0.3843
 1746TIP3    H126653   5.876   3.390  10.684 -1.5169  1.4344 -0.2473
 1746TIP3    H226654   5.862   3.473  10.558  0.0157  1.3865 -0.4711
 1747TIP3   OH226655   2.399   3.612   2.375 -0.1860 -0.4413  0.3467
 1747TIP3    H126656   2.444   3.662   2.443 -1.6089  1.1230  0.1812
 1747TIP3    H226657   2.376   3.677   2.309 -0.1086 -1.7072 -0.9700
 1748TIP3   OH226658   0.671   2.626   4.828  0.2455  0.5508 -0.0229
 1748TIP3    H126659   0.640   2.646   4.740  2.8432 -0.2732 -1.2321
 1748TIP3    H226660   0.602   2.573   4.867 -0.3176 -0.3396 -2.1294
 1749TIP3   OH226661   6.034   5.946  12.055  1.0131 -0.2921 -0.2506
 1749TIP3    H126662   6.013   5.910  11.969 -1.0764  1.4223 -0.5406
 1749TIP3    H226663   5.965   5.912  12.113  0.7604  0.8047  0.1116
 1750TIP3   OH226664   1.553   5.261   1.835 -0.1472 -0.5449  0.1005
 1750TIP3    H126665   1.642   5.270   1.867  0.9765 -0.1238 -2.7868
 1750TIP3    H226666   1.504   5.331   1.878  1.1878 -0.0568  0.8769
 1751TIP3   OH226667   4.176   1.212   5.754  0.0350  0.4596 -0.1929
 1751TIP3    H126668   4.110   1.273   5.722  0.2970  0.8616  0.0356
 1751TIP3    H226669   4.198   1.158   5.677 -1.1127 -0.1885 -0.0875
 1752TIP3   OH226670   2.755   4.049  15.787  0.2538 -0.0306  0.0078
 1752TIP3    H126671   2.706   3.978  15.830  0.7555 -0.1343  0.4059
 1752TIP3    H226672   2.690   4.092  15.732 -0.2228 -0.3561  0.3080
 1753TIP3   OH226673   3.114   3.290   2.084  0.3003  0.2650 -0.3372
 1753TIP3    H126674   3.039   3.260   2.033  0.4271  1.0682 -0.9987
 1753TIP3    H226675   3.081   3.365   2.133  0.8035  0.9697 -1.0529
 1754TIP3   OH226676   1.623   3.521  12.890  0.2489  0.5563  0.0490
 1754TIP3    H126677   1.679   3.525  12.968  0.0098  2.6453  0.1713
 1754TIP3    H226678   1.578   3.605  12.889 -2.0337 -0.6047 -0.7198
 1755TIP3   OH226679   3.699   3.679  15.228 -0.0787 -0.1197  0.1453
 1755TIP3    H126680   3.649   3.740  15.173  1.4240 -0.0705 -1.2469
 1755TIP3    H226681   3.664   3.593  15.205  0.2139 -0.0571 -0.5630
 1756TIP3   OH226682   2.595   6.395  13.236 -0.5457 -0.3942  0.1441
 1756TIP3    H126683   2.647   6.338  13.181 -0.8728  0.3119 -0.9297
 1756TIP3    H226684   2.584   6.475  13.184 -1.5811 -0.0333  0.8833
 1757TIP3   OH226685   5.798   3.266   2.170  0.3405 -0.2593 -0.1328
 1757TIP3    H126686   5.824   3.315   2.092  0.4171  1.4411  0.9114
 1757TIP3    H226687   5.761   3.332   2.228  2.0007 -1.1294  2.0456
 1758TIP3   OH226688   5.418   2.429  15.376  0.4174 -0.1824 -0.5653
 1758TIP3    H126689   5.366   2.371  15.432 -2.5995  2.9374  0.1693
 1758TIP3    H226690   5.486   2.464  15.434  0.2951 -0.5994 -0.1638
 1759TIP3   OH226691   2.987   1.563   3.403 -0.1727 -0.4620  0.3446
 1759TIP3    H126692   3.017   1.654   3.408 -0.5963 -0.3524  1.1144
 1759TIP3    H226693   2.953   1.553   3.314  1.0235 -0.2407 -0.1527
 1760TIP3   OH226694   4.296   1.023   3.454  0.4658  0.0145  0.0087
 1760TIP3    H126695   4.245   1.098   3.485  0.2351  0.0313 -0.4103
 1760TIP3    H226696   4.276   1.017   3.361  1.2997  0.0814 -0.1908
 1761TIP3   OH226697   6.367   1.649  17.366 -0.2721  0.6407  0.5301
 1761TIP3    H126698   6.347   1.717  17.430 -1.1050  0.7456  0.1737
 1761TIP3    H226699   6.291   1.590  17.370  0.5056 -0.3602  0.9466
 1762TIP3   OH226700   1.111   1.207   4.340 -0.8402  0.0482 -0.0243
 1762TIP3    H126701   1.183   1.226   4.280 -1.1569  0.4908 -0.2759
 1762TIP3    H226702   1.035   1.252   4.301 -0.6441  2.0821  1.7068
 1763TIP3   OH226703   3.137   0.310  16.001  0.5336  0.5328 -0.1785
 1763TIP3    H126704   3.126   0.335  15.909 -1.1070  0.0551 -0.1436
 1763TIP3    H226705   3.067   0.248  16.017  0.4231  1.0706  1.5764
 1764TIP3   OH226706   3.601   3.852   0.138  0.1845  0.4005 -0.1729
 1764TIP3    H126707   3.679   3.799   0.155 -0.9944 -1.1498  0.6290
 1764TIP3    H226708   3.567   3.820   0.055 -0.3970  0.0490  0.1930
 1765TIP3   OH226709   1.924   3.078  16.513  0.3361 -1.0661  0.1034
 1765TIP3    H126710   1.899   3.158  16.466  1.9299 -0.9617 -0.6415
 1765TIP3    H226711   1.893   3.007  16.457  0.8688 -0.9447 -0.3546
 1766TIP3   OH226712   3.579   0.140  16.966 -0.1822  0.6119 -0.2503
 1766TIP3    H126713   3.646   0.072  16.978  0.1451  1.0221  0.3032
 1766TIP3    H226714   3.524   0.107  16.895  0.6756  0.3129 -0.7881
 1767TIP3   OH226715   5.637   0.242   1.016 -0.4527  0.1124  0.1411
 1767TIP3    H126716   5.661   0.284   0.933 -0.7701 -1.0142 -0.5330
 1767TIP3    H226717   5.631   0.315   1.078 -1.1995  1.1077 -1.0460
 1768TIP3   OH226718   5.469   5.280   4.627  0.1789 -0.5727  0.4754
 1768TIP3    H126719   5.479   5.192   4.590  1.9748 -0.1905 -0.0322
 1768TIP3    H226720   5.468   5.338   4.552  0.9115 -0.0216  0.8768
 1769TIP3   OH226721   5.633   2.702  12.407 -0.0759  0.1226  0.0072
 1769TIP3    H126722   5.591   2.617  12.393  1.1189 -1.1830  3.4471
 1769TIP3    H226723   5.658   2.702  12.499  0.7898  3.8911 -0.0738
 1770TIP3   OH226724   0.506   0.387  16.903 -0.9972 -0.3692  0.3233
 1770TIP3    H126725   0.438   0.344  16.850 -1.4206  0.1201  0.4532
 1770TIP3    H226726   0.457   0.445  16.961 -0.6140 -1.6684  2.0114
 1771TIP3   OH226727   2.010   0.892  12.538  0.6091  0.1082 -0.5074
 1771TIP3    H126728   2.059   0.875  12.618  0.1918 -0.5761 -0.3923
 1771TIP3    H226729   1.997   0.987  12.538  1.8279  0.2963 -0.4885
 1772TIP3   OH226730   2.348   6.350   3.143  0.6183 -0.5821 -0.3040
 1772TIP3    H126731   2.274   6.307   3.185  0.6357  0.8991  1.3673
 1772TIP3    H226732   2.336   6.443   3.163  2.4873 -0.2192 -0.6850
 1773TIP3   OH226733   4.217   6.036   1.511  0.5537  0.0932  0.6417
 1773TIP3    H126734   4.248   6.049   1.421 -0.3435  0.9099  0.4342
 1773TIP3    H226735   4.135   5.988   1.501  0.1676  0.6682  0.9866
 1774TIP3   OH226736   4.184   5.245  16.649 -0.2853  0.5353  0.1097
 1774TIP3    H126737   4.152   5.334  16.639  0.4755  0.7645 -0.3713
 1774TIP3    H226738   4.211   5.219  16.561 -0.8979 -0.3361  0.1573
 1775TIP3   OH226739   5.394   2.015   3.337 -0.0919 -0.1970 -0.4689
 1775TIP3    H126740   5.323   2.058   3.289 -1.3248 -0.0593  1.3715
 1775TIP3    H226741   5.454   2.087   3.359 -0.0089 -0.1137 -0.9414
 1776TIP3   OH226742   2.524   5.863   6.314  0.7703  1.1290  0.6694
 1776TIP3    H126743   2.475   5.941   6.339  1.6503  2.4830 -1.5647
 1776TIP3    H226744   2.591   5.895   6.253 -0.0068 -1.5528 -1.8381
 1777TIP3   OH226745   5.718   4.516  14.762  0.4812 -0.1040  0.3434
 1777TIP3    H126746   5.726   4.447  14.695  3.4410 -0.7547  1.2283
 1777TIP3    H226747   5.793   4.573  14.746  0.8254  0.1554  2.6219
 1778TIP3   OH226748   1.824   2.207   5.655 -0.0475 -0.4595  0.2545
 1778TIP3    H126749   1.909   2.227   5.617  1.1270 -2.1119  1.8528
 1778TIP3    H226750   1.829   2.242   5.744 -0.8394 -1.0087  0.5242
 1779TIP3   OH226751   6.092   5.103  14.764 -0.4945  0.0830 -0.1631
 1779TIP3    H126752   6.165   5.134  14.817 -1.7594  1.1013  1.0934
 1779TIP3    H226753   6.066   5.178  14.712  0.4520 -0.7885 -1.9643
 1780TIP3   OH226754   3.459   6.188   5.348  0.0795  0.5614  0.6343
 1780TIP3    H126755   3.510   6.228   5.278 -0.8212  0.7065  0.0379
 1780TIP3    H226756   3.524   6.157   5.411  1.2493 -2.9991 -1.9979
 1781TIP3   OH226757   2.978   5.984   4.260  0.3393  0.1126 -0.0117
 1781TIP3    H126758   2.951   6.075   4.274 -3.0699 -0.9266  1.1293
 1781TIP3    H226759   2.935   5.958   4.179  2.3351 -0.2054 -1.0282
 1782TIP3   OH226760   5.893   0.445   6.427 -0.3938  0.1774 -0.3577
 1782TIP3    H126761   5.905   0.364   6.475  0.8424 -0.1240 -1.1255
 1782TIP3    H226762   5.949   0.509   6.472 -0.3290  0.2581 -0.5507
 1783TIP3   OH226763   3.513   0.712  12.894  0.6629  0.1667 -0.6196
 1783TIP3    H126764   3.588   0.660  12.863  0.6932  0.0824 -0.4033
 1783TIP3    H226765   3.526   0.719  12.988  0.0968 -0.3236 -0.4998
 1784TIP3   OH226766   3.907   0.598  13.411  0.4041 -0.0180 -0.0981
 1784TIP3    H126767   3.999   0.591  13.387 -0.0377 -0.8565 -1.6716
 1784TIP3    H226768   3.881   0.509  13.433  0.4153  0.4979  2.2337
 1785TIP3   OH226769   0.661   6.001  14.950  0.2899 -0.1149 -0.1381
 1785TIP3    H126770   0.732   5.970  14.893 -0.3744 -0.6768 -0.6734
 1785TIP3    H226771   0.660   5.939  15.023  2.0467  1.3774  1.2667
 1786TIP3   OH226772   4.020   1.594   4.714  0.1827 -0.2800  0.0824
 1786TIP3    H126773   4.068   1.675   4.732 -0.3859 -0.1505  1.0680
 1786TIP3    H226774   3.975   1.573   4.796 -1.6122 -0.2884 -0.8535
 1787TIP3   OH226775   3.420   6.133   2.418  0.2328 -0.0208 -0.1008
 1787TIP3    H126776   3.486   6.097   2.478 -0.2116 -0.1709  0.3018
 1787TIP3    H226777   3.465   6.206   2.375  0.3058  0.6234  1.0241
 1788TIP3   OH226778   2.521   2.861   3.854  0.2930  0.5955  0.6383
 1788TIP3    H126779   2.482   2.948   3.859  0.0780  0.5492 -0.1407
 1788TIP3    H226780   2.556   2.855   3.765  0.2807 -0.1260  0.6724
 1789TIP3   OH226781   1.108   4.477  14.806 -0.1095  0.2407  0.8589
 1789TIP3    H126782   1.096   4.571  14.813 -1.0292  0.2888 -0.7515
 1789TIP3    H226783   1.032   4.447  14.755  0.6397 -1.2203  0.5471
 1790TIP3   OH226784   1.931   4.581   4.301 -0.3980  0.2737 -0.6046
 1790TIP3    H126785   1.955   4.497   4.262 -0.1511  0.3966 -0.7181
 1790TIP3    H226786   1.842   4.597   4.270 -1.3256 -1.0383  1.2412
 1791TIP3   OH226787   2.730   3.424  15.894  0.0776  0.4339  0.6181
 1791TIP3    H126788   2.687   3.378  15.822  0.7831  1.4542 -0.4813
 1791TIP3    H226789   2.660   3.474  15.936  0.1000  1.9579 -1.0515
 1792TIP3   OH226790   0.208   2.276  16.374 -0.2892  0.2473  0.1941
 1792TIP3    H126791   0.142   2.335  16.339  0.1518  0.3023 -0.5632
 1792TIP3    H226792   0.158   2.206  16.416 -0.8134  1.0499  0.9413
 1793TIP3   OH226793   0.406   2.776  13.961  0.2825  0.6736 -0.3974
 1793TIP3    H126794   0.393   2.758  14.054 -0.2067  0.9789 -0.4040
 1793TIP3    H226795   0.496   2.808  13.955 -0.2318  2.3206  0.2239
 1794TIP3   OH226796   1.489   2.771   5.518  0.1255 -0.1690  0.3773
 1794TIP3    H126797   1.412   2.791   5.570 -0.0058  0.2223  0.0333
 1794TIP3    H226798   1.460   2.705   5.455  0.3077 -0.7119  0.8527
 1795TIP3   OH226799   5.133   2.895   0.384  0.1034 -0.8423 -0.4671
 1795TIP3    H126800   5.207   2.943   0.347 -0.5991  1.1709  0.5667
 1795TIP3    H226801   5.153   2.803   0.369  2.5472 -0.3248 -0.6678
 1796TIP3   OH226802   1.439   2.537   4.125 -0.4183 -0.2990 -0.2071
 1796TIP3    H126803   1.513   2.511   4.071 -0.8563 -1.4963 -0.2617
 1796TIP3    H226804   1.407   2.618   4.085  0.6834  0.0813 -0.3365
 1797TIP3   OH226805   3.698   3.239   6.533  0.0132  0.1602  0.4057
 1797TIP3    H126806   3.727   3.167   6.589  0.4248 -0.6384 -0.8084
 1797TIP3    H226807   3.739   3.317   6.573  0.8566 -0.4756  0.8280
 1798TIP3   OH226808   6.391   3.478   5.984 -0.1890  0.0387  0.1123
 1798TIP3    H126809   6.357   3.567   5.974  0.6456  0.6388  2.0799
 1798TIP3    H226810   6.486   3.490   5.985 -0.0833 -0.6928  1.5601
 1799TIP3   OH226811   1.995   3.390   1.868 -0.1560  0.3179 -0.2502
 1799TIP3    H126812   1.913   3.342   1.860 -0.5200  0.8671  0.0663
 1799TIP3    H226813   1.980   3.471   1.819  0.0433  0.6101  0.1647
 1800TIP3   OH226814   0.886   6.054   4.945  0.0016 -0.7103  0.1066
 1800TIP3    H126815   0.916   6.035   5.034  0.0318  0.6202  0.4143
 1800TIP3    H226816   0.888   5.970   4.900  2.8928 -0.9374  0.4943
 1801TIP3   OH226817   3.855   1.196  17.184 -0.1106 -0.2302  0.1967
 1801TIP3    H126818   3.904   1.263  17.231  1.1145 -0.9589 -0.0047
 1801TIP3    H226819   3.876   1.210  17.092 -0.7226 -0.2151  0.0543
 1802TIP3   OH226820   4.963   3.156   5.844 -0.4996  0.4348  0.4710
 1802TIP3    H126821   4.884   3.104   5.829  0.9108 -2.2780  1.7633
 1802TIP3    H226822   5.002   3.166   5.757 -0.2597 -1.7027  0.2864
 1803TIP3   OH226823   6.630   0.235   1.461 -0.5991 -0.1093  0.0506
 1803TIP3    H126824   6.623   0.217   1.367 -1.4416 -2.2768  0.4959
 1803TIP3    H226825   6.558   0.187   1.501  0.0207  0.3914  1.8739
 1804TIP3   OH226826   5.211   2.233   0.212  0.0308  0.5672  0.3495
 1804TIP3    H126827   5.183   2.310   0.161 -1.1222 -0.0646 -0.0106
 1804TIP3    H226828   5.133   2.208   0.262  0.8153  0.4658  1.5508
 1805TIP3   OH226829   1.067   4.364   2.017 -0.0509 -0.1806  0.1046
 1805TIP3    H126830   1.017   4.289   2.050 -0.2005  0.3760  1.1610
 1805TIP3    H226831   1.048   4.366   1.923  0.8209 -2.1295 -0.1613
 1806TIP3   OH226832   5.203   0.439  15.034  0.3722  0.1453  0.0253
 1806TIP3    H126833   5.222   0.396  15.117  0.5217 -0.8368 -0.5043
 1806TIP3    H226834   5.214   0.370  14.968 -0.2698  0.7676 -0.7570
 1807TIP3   OH226835   2.550   5.756   3.471  0.0560 -0.2046 -0.4450
 1807TIP3    H126836   2.547   5.710   3.387 -0.4023 -0.4793 -0.2818
 1807TIP3    H226837   2.619   5.713   3.520  0.7453  0.3506 -0.9030
 1808TIP3   OH226838   0.582   3.109  16.658  0.1650  0.6945 -0.4003
 1808TIP3    H126839   0.569   3.153  16.742  0.8063 -0.4149  0.3124
 1808TIP3    H226840   0.504   3.055  16.647  0.8258 -0.4594  0.3458
 1809TIP3   OH226841   1.685   4.303  12.225 -0.0680 -0.5988 -0.1749
 1809TIP3    H126842   1.692   4.380  12.282  1.5129 -1.0720  0.3335
 1809TIP3    H226843   1.775   4.271  12.217 -0.6904 -2.4447 -0.3151
 1810TIP3   OH226844   4.927   2.992  13.125 -0.1714  0.2194 -0.1527
 1810TIP3    H126845   4.960   3.026  13.042  0.6939 -0.2219 -0.0038
 1810TIP3    H226846   4.993   3.015  13.190  0.1705 -1.1993  0.0539
 1811TIP3   OH226847   4.104   0.812   3.330  0.0794 -0.0867  0.2989
 1811TIP3    H126848   4.034   0.794   3.266 -1.2603 -0.0193  1.6912
 1811TIP3    H226849   4.185   0.791   3.283 -0.9526 -1.7687 -0.8349
 1812TIP3   OH226850   3.598   2.024   3.119 -0.0295 -0.4406  0.0950
 1812TIP3    H126851   3.685   2.018   3.157 -0.1204  0.1220  0.3968
 1812TIP3    H226852   3.581   1.937   3.083  0.9712 -0.3434 -0.6563
 1813TIP3   OH226853   4.269   0.197   2.906  0.0214  0.5322 -0.6902
 1813TIP3    H126854   4.250   0.104   2.922 -4.4534  1.2470 -0.3486
 1813TIP3    H226855   4.279   0.203   2.811  1.3002 -0.3702 -0.6424
 1814TIP3   OH226856   0.587   5.241   2.776 -1.0137  0.0428 -0.0063
 1814TIP3    H126857   0.664   5.293   2.799 -1.2843  0.3526  0.2084
 1814TIP3    H226858   0.613   5.151   2.794  0.4273 -0.2343 -2.9461
 1815TIP3   OH226859   6.220   5.055   0.564 -0.1148 -0.6694 -0.0382
 1815TIP3    H126860   6.276   5.105   0.624 -1.5711  1.8846 -0.6262
 1815TIP3    H226861   6.274   5.040   0.487 -0.1261  1.7370 -0.5994
 1816TIP3   OH226862   5.000   4.971  16.149  0.1886 -0.0053 -0.2856
 1816TIP3    H126863   5.087   4.948  16.180 -0.1895 -1.3975 -0.2040
 1816TIP3    H226864   5.005   5.065  16.131  1.9781 -0.2297 -1.1772
 1817TIP3   OH226865   1.468   2.053  11.859 -0.4701 -0.1093 -0.3326
 1817TIP3    H126866   1.464   1.998  11.781  0.1887  0.2083 -0.5978
 1817TIP3    H226867   1.550   2.028  11.902 -0.3474  0.4040 -0.2641
 1818TIP3   OH226868   6.192   3.818  12.022  1.0095  0.8384  0.0760
 1818TIP3    H126869   6.268   3.827  12.080 -0.0289  1.6640  1.3775
 1818TIP3    H226870   6.138   3.895  12.042 -0.1911  0.2479 -0.7805
 1819TIP3   OH226871   3.167   4.072   2.125  0.2564 -0.1151 -0.0869
 1819TIP3    H126872   3.238   4.067   2.189 -0.5640 -0.5297  0.8059
 1819TIP3    H226873   3.108   4.000   2.148  0.2730 -0.7098 -1.7250
 1820TIP3   OH226874   2.276   0.286   1.531 -0.0840  0.0108  0.4938
 1820TIP3    H126875   2.369   0.277   1.510 -0.2430  0.7088 -0.6304
 1820TIP3    H226876   2.266   0.377   1.559 -0.3513 -0.1980  1.0947
 1821TIP3   OH226877   5.445   3.650   0.843  0.5427 -0.0416 -0.6183
 1821TIP3    H126878   5.436   3.566   0.888  0.2669 -0.3119 -1.1705
 1821TIP3    H226879   5.469   3.712   0.912 -3.4661  0.3720  0.6408
 1822TIP3   OH226880   5.489   1.434   0.798 -0.4333  0.1337 -0.1601
 1822TIP3    H126881   5.507   1.408   0.888 -0.5355  3.6944  1.0381
 1822TIP3    H226882   5.571   1.418   0.751  0.3268  0.2242  1.0938
 1823TIP3   OH226883   3.045   3.001  15.466 -0.0660  0.5632  0.7321
 1823TIP3    H126884   3.037   3.094  15.442  1.3981  0.5516  0.0502
 1823TIP3    H226885   3.138   2.983  15.456 -0.3146 -0.9545  1.0128
 1824TIP3   OH226886   3.600   2.812   3.222 -0.2043 -0.2364 -0.0389
 1824TIP3    H126887   3.688   2.799   3.256  0.0240 -1.0309 -0.9262
 1824TIP3    H226888   3.606   2.794   3.129 -1.1388  0.5003 -0.2687
 1825TIP3   OH226889   0.154   0.804  12.695 -0.0428  0.3837  0.3730
 1825TIP3    H126890   0.154   0.806  12.599 -0.2070  1.6736  0.3922
 1825TIP3    H226891   0.127   0.714  12.716 -0.6425  0.2712 -0.7815
 1826TIP3   OH226892   0.359   4.196  12.474  0.0626  0.5820  0.6725
 1826TIP3    H126893   0.290   4.135  12.447  1.9315 -1.7531  0.8450
 1826TIP3    H226894   0.313   4.279  12.490 -2.6697 -0.8363  0.7602
 1827TIP3   OH226895   4.110   2.993  11.984  0.0884  0.2590  0.2162
 1827TIP3    H126896   4.177   3.061  11.977  1.8022 -1.4768 -1.3854
 1827TIP3    H226897   4.082   2.977  11.894 -0.0950 -1.2984  0.5208
 1828TIP3   OH226898   4.229   1.186  13.506  0.4023 -0.2458  0.4237
 1828TIP3    H126899   4.292   1.241  13.459  0.6375 -0.6917  0.2179
 1828TIP3    H226900   4.152   1.243  13.518  0.7701  0.2360  0.5092
 1829TIP3   OH226901   1.306   1.337   0.296 -0.0191 -0.0932  0.1375
 1829TIP3    H126902   1.328   1.311   0.207 -0.6155 -0.2217  0.0195
 1829TIP3    H226903   1.384   1.317   0.348  0.2734 -0.1641 -0.3255
 1830TIP3   OH226904   1.228   0.188  11.685 -0.2208  0.1487 -0.0054
 1830TIP3    H126905   1.150   0.133  11.688 -0.5921  0.4747 -2.3073
 1830TIP3    H226906   1.206   0.265  11.738 -1.3287  0.0613 -0.3274
 1831TIP3   OH226907   6.370   2.610   1.833 -0.3747  0.4355  0.3249
 1831TIP3    H126908   6.325   2.688   1.866 -0.5536  1.0833 -1.3544
 1831TIP3    H226909   6.453   2.642   1.800  1.5125 -0.7580  3.4156
 1832TIP3   OH226910   1.991   0.024  15.891 -0.4901  0.3679 -0.7356
 1832TIP3    H126911   1.947  -0.056  15.863  1.0287 -0.7003 -0.1922
 1832TIP3    H226912   2.066   0.032  15.833  0.4782  0.2867  0.4588
 1833TIP3   OH226913   0.155   1.102   4.819 -0.5144 -0.2744 -0.3310
 1833TIP3    H126914   0.144   1.186   4.864 -1.0912  0.6519 -2.1358
 1833TIP3    H226915   0.242   1.071   4.847  1.1083  2.4313 -1.9917
 1834TIP3   OH226916   2.179   2.897   3.747 -0.9224  0.3531  0.0243
 1834TIP3    H126917   2.108   2.861   3.799 -1.9234 -0.6336 -1.9041
 1834TIP3    H226918   2.161   2.991   3.743 -1.5210  0.2605  0.4295
 1835TIP3   OH226919   3.279   0.065   0.252 -0.1575 -0.4094 -0.1825
 1835TIP3    H126920   3.315   0.125   0.316 -0.5513  0.9659 -1.2111
 1835TIP3    H226921   3.191   0.098   0.234 -0.8020 -1.9275  0.0165
 1836TIP3   OH226922   1.273   5.162   3.976 -0.0874  0.2605 -0.5013
 1836TIP3    H126923   1.282   5.255   3.957  2.4205 -0.0417 -1.1871
 1836TIP3    H226924   1.305   5.153   4.066  2.6471 -0.2386 -1.4178
 1837TIP3   OH226925   6.091   3.938  17.257  0.0182 -0.0548 -0.3576
 1837TIP3    H126926   6.011   3.909  17.301  0.2980 -0.9101 -0.3885
 1837TIP3    H226927   6.160   3.885  17.297  0.5657  0.6559 -0.3572
 1838TIP3   OH226928   4.184   4.045  14.369  0.4711  0.0119 -0.5861
 1838TIP3    H126929   4.229   4.013  14.290  1.3615  1.2497 -0.6162
 1838TIP3    H226930   4.240   4.017  14.441 -0.0315 -0.5939 -0.4179
 1839TIP3   OH226931   1.976   2.496  15.403  0.4018 -0.2892 -0.3133
 1839TIP3    H126932   1.895   2.466  15.445 -1.2985  0.3460 -2.9290
 1839TIP3    H226933   1.980   2.448  15.320  2.4606  0.1208 -0.5172
 1840TIP3   OH226934   0.669   1.431   2.847 -0.2867  0.5494 -0.3561
 1840TIP3    H126935   0.579   1.455   2.822 -1.4545 -0.5774  2.3523
 1840TIP3    H226936   0.675   1.338   2.826 -1.6044 -0.6650  3.7708
 1841TIP3   OH226937   1.730   3.530   6.648 -0.4525  0.3067  0.0973
 1841TIP3    H126938   1.745   3.624   6.637  0.6026  0.0888 -0.5347
 1841TIP3    H226939   1.772   3.509   6.732  2.0070 -0.0930 -1.1392
 1842TIP3   OH226940   4.010   5.164  12.740  0.3073 -0.2130  0.0483
 1842TIP3    H126941   4.085   5.188  12.686  0.5509  0.3130  0.6057
 1842TIP3    H226942   3.934   5.192  12.689  0.4296 -1.5649 -0.9308
 1843TIP3   OH226943   4.188   3.938  16.811  0.1964  0.4424 -0.1274
 1843TIP3    H126944   4.217   3.913  16.723 -0.4575 -0.3492 -0.1382
 1843TIP3    H226945   4.109   3.885  16.825 -0.0540  1.0255  0.6913
 1844TIP3   OH226946   2.147   3.079   4.798  0.0142 -0.6729  0.4613
 1844TIP3    H126947   2.122   2.991   4.770  0.7549 -0.6550 -0.2989
 1844TIP3    H226948   2.238   3.088   4.769 -0.9673  1.5238 -2.3588
 1845TIP3   OH226949   6.730   5.543  16.104 -0.5057 -0.3035 -0.5909
 1845TIP3    H126950   6.653   5.530  16.159 -0.1429  1.9845  0.5672
 1845TIP3    H226951   6.735   5.638  16.091 -0.1452 -0.6703 -4.0178
 1846TIP3   OH226952   4.288   5.603   6.136 -0.1593  0.1422  0.2914
 1846TIP3    H126953   4.375   5.562   6.133 -0.9527 -1.5716 -0.7343
 1846TIP3    H226954   4.269   5.611   6.229  0.5129 -0.8124  0.5315
 1847TIP3   OH226955   6.018   0.292  16.533 -0.2981 -0.0047  0.5311
 1847TIP3    H126956   5.924   0.280  16.521 -0.5635 -1.1647  2.9881
 1847TIP3    H226957   6.037   0.248  16.616  2.2062  1.2492  0.7249
 1848TIP3   OH226958   6.744   6.306   4.065  0.1729  0.4724  0.4284
 1848TIP3    H126959   6.784   6.363   4.130 -0.0694  0.2399  0.7830
 1848TIP3    H226960   6.650   6.317   4.078  0.0298 -2.1405  2.4527
 1849TIP3   OH226961   3.854   2.704   2.902 -0.2253  0.0884  0.3225
 1849TIP3    H126962   3.860   2.790   2.945  2.4092 -0.1018  0.5091
 1849TIP3    H226963   3.760   2.683   2.903 -0.7813  2.2953  1.5677
 1850TIP3   OH226964   6.238   6.745  16.863 -0.2224  0.1401  0.3544
 1850TIP3    H126965   6.271   6.754  16.952 -0.6531  0.9381  0.4427
 1850TIP3    H226966   6.229   6.835  16.831 -2.1614 -0.0227  0.2965
 1851TIP3   OH226967   3.558   4.375   2.066  0.0303  0.0076  0.2343
 1851TIP3    H126968   3.615   4.373   1.989 -0.9178 -0.8485 -0.4915
 1851TIP3    H226969   3.473   4.404   2.031 -1.1690 -2.9763  0.3473
 1852TIP3   OH226970   4.736   3.040  11.793 -0.7896 -0.2945  0.4276
 1852TIP3    H126971   4.798   3.113  11.797 -2.1536  0.8662  1.3764
 1852TIP3    H226972   4.789   2.964  11.818  0.1834  0.7295  1.6925
 1853TIP3   OH226973   2.432   1.937  14.784 -0.1651 -0.0251  0.1876
 1853TIP3    H126974   2.458   2.028  14.771 -0.0074 -0.0971  0.0019
 1853TIP3    H226975   2.338   1.936  14.765 -0.0501 -0.0175 -0.4001
 1854TIP3   OH226976   3.897   4.742   3.550  0.2795 -0.3254 -0.6776
 1854TIP3    H126977   3.875   4.782   3.634 -0.3963  0.0747 -1.0394
 1854TIP3    H226978   3.822   4.687   3.530  0.5240 -0.5657 -0.9359
 1855TIP3   OH226979   1.885   2.409  14.058 -0.0335 -0.2851 -0.0343
 1855TIP3    H126980   1.875   2.319  14.087 -0.1601 -0.1440  0.3723
 1855TIP3    H226981   1.813   2.456  14.101  0.6349  0.2026  0.5828
 1856TIP3   OH226982   3.319   6.478  11.887  0.1263  0.5092  0.2035
 1856TIP3    H126983   3.293   6.569  11.904  1.1938  0.4394  2.6095
 1856TIP3    H226984   3.414   6.481  11.879  0.2247 -0.4744  0.8604
 1857TIP3   OH226985   6.098   0.279  15.705 -0.0336  0.3159 -0.7853
 1857TIP3    H126986   6.131   0.300  15.618 -0.4011  2.4836 -0.4547
 1857TIP3    H226987   6.174   0.246  15.753  0.3517 -0.0953 -1.6597
 1858TIP3   OH226988   6.698   0.342  16.659  0.1752  0.5616 -0.6222
 1858TIP3    H126989   6.749   0.391  16.724 -1.9362  0.8274  0.9257
 1858TIP3    H226990   6.747   0.261  16.647  0.5517  0.4164  1.4700
 1859TIP3   OH226991   1.889   2.263  14.437  0.8868  0.8046 -0.0206
 1859TIP3    H126992   1.924   2.348  14.464  2.1844  0.4056 -0.3598
 1859TIP3    H226993   1.799   2.281  14.410  0.7737  1.8581  0.9951
 1860TIP3   OH226994   0.665   4.533  12.264  0.4039  0.0735  0.1351
 1860TIP3    H126995   0.634   4.448  12.230 -0.4549  0.1543  0.6707
 1860TIP3    H226996   0.660   4.523  12.359 -0.7700  1.0829  0.2042
 1861TIP3   OH226997   5.985   2.484  12.515  0.0187  0.8210 -0.3002
 1861TIP3    H126998   6.070   2.488  12.560 -0.7592  1.0959  1.2076
 1861TIP3    H226999   5.978   2.568  12.469 -0.0834  1.4385  0.8154
 1862TIP3   OH227000   6.448   5.702  16.098 -0.0109 -0.6584  0.1604
 1862TIP3    H127001   6.376   5.693  16.160 -0.5887 -0.0770 -0.4146
 1862TIP3    H227002   6.411   5.674  16.014 -0.3935  2.0908 -0.6717
 1863TIP3   OH227003   0.642   3.615   4.215  0.5109  0.2178  0.0637
 1863TIP3    H127004   0.656   3.705   4.247 -0.6830 -0.0180  1.3315
 1863TIP3    H227005   0.686   3.560   4.279  0.1368 -0.1614  0.0010
 1864TIP3   OH227006   0.539   0.895   0.257 -0.0467  0.0981 -0.2674
 1864TIP3    H127007   0.582   0.811   0.269  2.6470  1.4973  0.6446
 1864TIP3    H227008   0.578   0.932   0.178  1.3120  1.8139  1.1100
 1865TIP3   OH227009   3.862   1.115   2.291  0.1849  0.0386  0.0531
 1865TIP3    H127010   3.958   1.106   2.291  0.0617 -1.6829 -1.0411
 1865TIP3    H227011   3.830   1.037   2.336 -0.7507 -0.6156 -1.6614
 1866TIP3   OH227012   3.201   5.740  14.027 -0.1667 -0.3841 -0.0341
 1866TIP3    H127013   3.245   5.682  14.089  0.4504  0.7183  0.6014
 1866TIP3    H227014   3.113   5.704  14.018  0.7453 -2.4604 -1.1030
 1867TIP3   OH227015   1.329   0.825   2.317  0.0112  0.1811  0.1874
 1867TIP3    H127016   1.392   0.881   2.362  1.2382 -0.4597 -0.6538
 1867TIP3    H227017   1.370   0.738   2.316 -0.4193 -0.0353 -1.2428
 1868TIP3   OH227018   3.836   3.002   1.980  0.0291  0.5000 -0.0881
 1868TIP3    H127019   3.889   2.976   2.055  0.4950  1.1967 -0.1689
 1868TIP3    H227020   3.880   3.079   1.945 -1.1101  1.1763 -0.0770
 1869TIP3   OH227021   6.169   1.761  11.456  0.4625  0.5182  0.2672
 1869TIP3    H127022   6.188   1.844  11.501 -1.4513  0.2035  1.8354
 1869TIP3    H227023   6.089   1.778  11.407  0.4338 -0.2142  0.0436
 1870TIP3   OH227024   6.071   2.931  13.818 -0.8361 -0.1605  0.6844
 1870TIP3    H127025   6.137   2.875  13.778  0.8796  0.5229  2.3770
 1870TIP3    H227026   5.987   2.895  13.789  0.2144 -2.7330  0.6139
 1871TIP3   OH227027   6.440   4.159  14.389 -0.3734  0.0703  0.5591
 1871TIP3    H127028   6.388   4.164  14.469 -1.2532  0.5486 -0.0211
 1871TIP3    H227029   6.376   4.144  14.320  0.3631 -0.2081 -0.0756
 1872TIP3   OH227030   0.065   5.114  12.599  0.0635  0.1852 -0.3598
 1872TIP3    H127031   0.048   5.169  12.676  2.3228 -1.0277  1.1217
 1872TIP3    H227032   0.084   5.177  12.529 -2.8829  1.3430 -0.2735
 1873TIP3   OH227033   6.515   2.143   4.460 -0.1722 -0.1386 -0.4781
 1873TIP3    H127034   6.566   2.150   4.379 -0.5189 -1.0236 -0.7819
 1873TIP3    H227035   6.575   2.102   4.523 -0.8675 -2.4301 -1.2122
 1874TIP3   OH227036   6.416   5.776   2.033 -0.1623 -0.0075 -0.2951
 1874TIP3    H127037   6.387   5.779   1.942 -0.8597 -0.0965 -0.0842
 1874TIP3    H227038   6.497   5.827   2.034  2.0696 -3.2218 -1.7044
 1875TIP3   OH227039   1.462   1.163  12.513 -0.1172  0.1879 -0.1262
 1875TIP3    H127040   1.400   1.096  12.544  0.1437 -1.4390 -2.8358
 1875TIP3    H227041   1.411   1.216  12.452 -0.1831  2.3008  1.6341
 1876TIP3   OH227042   1.959   1.563   0.150  0.3308 -0.1255  0.5769
 1876TIP3    H127043   1.941   1.603   0.065  2.0962  1.9957  1.0952
 1876TIP3    H227044   1.980   1.472   0.130 -1.7659 -0.3492 -0.9266
 1877TIP3   OH227045   0.638   4.716  16.162 -0.1095  0.1594 -0.1889
 1877TIP3    H127046   0.694   4.645  16.192  0.0130 -0.2812 -1.3986
 1877TIP3    H227047   0.565   4.717  16.225  0.3272 -0.4534  0.3384
 1878TIP3   OH227048   5.704   1.347   5.074  0.9670 -0.0707 -0.2377
 1878TIP3    H127049   5.679   1.256   5.057  0.2420 -0.1237  1.0014
 1878TIP3    H227050   5.697   1.389   4.988  2.5294 -1.4251 -1.0893
 1879TIP3   OH227051   0.663   6.526  10.904 -0.5331 -0.1724  0.3904
 1879TIP3    H127052   0.581   6.512  10.858 -0.2324 -1.7390  0.2504
 1879TIP3    H227053   0.716   6.580  10.845 -0.2004 -2.0418 -1.1013
 1880TIP3   OH227054   5.754   2.055   1.755 -0.2716  0.2802  0.3577
 1880TIP3    H127055   5.840   2.014   1.751 -0.9784 -1.1391 -1.4235
 1880TIP3    H227056   5.699   2.002   1.698 -1.9590  2.0497  0.2276
 1881TIP3   OH227057   6.243   2.287  16.743  0.4225  0.1324  0.3954
 1881TIP3    H127058   6.261   2.211  16.799  0.0836 -1.2827 -1.3497
 1881TIP3    H227059   6.242   2.361  16.804  2.2147 -1.0217  1.9685
 1882TIP3   OH227060   0.094   2.157  17.348 -0.2047  0.2656 -0.3575
 1882TIP3    H127061   0.154   2.231  17.357 -2.0000  1.6686  0.8946
 1882TIP3    H227062   0.023   2.176  17.409 -0.2535 -3.0519  0.8197
 1883TIP3   OH227063   4.504   1.431  11.691  0.4537 -0.2992  0.2331
 1883TIP3    H127064   4.439   1.363  11.668  0.0544  0.4628 -0.9941
 1883TIP3    H227065   4.454   1.494  11.743  0.3986 -0.0999 -0.0605
 1884TIP3   OH227066   3.298   6.495   3.089  0.3436  0.3882  0.0552
 1884TIP3    H127067   3.314   6.585   3.117  0.9597  0.0031  0.9875
 1884TIP3    H227068   3.386   6.459   3.073  0.1235 -0.1905  0.1461
 1885TIP3   OH227069   2.642   1.419  14.306 -0.2661  0.8640 -0.3795
 1885TIP3    H127070   2.658   1.325  14.313 -0.9433  0.6827 -1.1638
 1885TIP3    H227071   2.591   1.440  14.384  1.4718  0.9544  0.7767
 1886TIP3   OH227072   1.727   2.885   5.814  0.0159  0.2716  0.3908
 1886TIP3    H127073   1.796   2.944   5.844 -0.3034  0.3666  0.9558
 1886TIP3    H227074   1.773   2.814   5.770  0.4668  0.4106  0.6347
 1887TIP3   OH227075   3.394   1.850   4.983 -0.2883  0.1580  0.2421
 1887TIP3    H127076   3.468   1.847   5.044  0.0941  0.0824 -0.2216
 1887TIP3    H227077   3.434   1.848   4.896 -0.8790 -1.2877 -0.0248
 1888TIP3   OH227078   2.716   4.190   1.516  0.8577 -0.4489  0.4340
 1888TIP3    H127079   2.749   4.210   1.604  0.3441 -0.8827  0.7380
 1888TIP3    H227080   2.684   4.100   1.523 -2.2354  0.5540  0.7718
 1889TIP3   OH227081   1.659   2.588  13.122 -0.4584 -1.1363  0.0838
 1889TIP3    H127082   1.672   2.645  13.046 -3.0960  1.0825  1.1366
 1889TIP3    H227083   1.729   2.612  13.182  0.0966 -1.0201 -0.5948
 1890TIP3   OH227084   1.094   3.971  13.881  0.2950  0.6785  1.1442
 1890TIP3    H127085   1.159   3.929  13.825 -1.6798 -0.9128 -0.0768
 1890TIP3    H227086   1.074   3.906  13.948 -0.5226  0.8724  1.0975
 1891TIP3   OH227087   4.749   4.632  15.986  0.2909  0.0338  0.5293
 1891TIP3    H127088   4.830   4.593  16.020  0.2381  0.1769  0.8269
 1891TIP3    H227089   4.778   4.711  15.940  0.5769 -1.1893 -1.5147
 1892TIP3   OH227090   0.388   4.051   5.723 -0.4503  0.2715  0.0029
 1892TIP3    H127091   0.397   4.147   5.727 -1.1233  0.3443 -0.1291
 1892TIP3    H227092   0.325   4.031   5.792  0.5532 -0.2091  0.8203
 1893TIP3   OH227093   3.103   2.272  13.534 -0.7687  0.0689 -0.1300
 1893TIP3    H127094   3.034   2.211  13.562 -0.8183  0.3337  0.3287
 1893TIP3    H227095   3.060   2.357  13.534 -0.4599  0.2245  0.0896
 1894TIP3   OH227096   4.279   0.049  11.410  0.3364 -0.5019  0.4036
 1894TIP3    H127097   4.311   0.019  11.325  0.4555 -0.1780  0.3320
 1894TIP3    H227098   4.290  -0.027  11.467  0.7175 -0.5696  0.2466
 1895TIP3   OH227099   5.935   6.300   5.794  0.6337  0.0543 -0.3550
 1895TIP3    H127100   5.885   6.371   5.755 -0.8078 -1.9529 -2.4655
 1895TIP3    H227101   5.912   6.223   5.742  3.9306 -1.5516  0.2924
 1896TIP3   OH227102   1.545   5.150  15.490  0.0285  0.6236 -0.2716
 1896TIP3    H127103   1.540   5.160  15.585 -1.1286  0.6462 -0.3274
 1896TIP3    H227104   1.492   5.073  15.470  2.3080 -0.9660 -0.6748
 1897TIP3   OH227105   4.256   6.029   1.826 -0.4972  0.7016 -0.7413
 1897TIP3    H127106   4.198   5.966   1.783 -2.1265 -0.5642  2.9344
 1897TIP3    H227107   4.205   6.063   1.900  3.0065  0.3653  2.1030
 1898TIP3   OH227108   3.506   2.023  15.810  0.1075  1.0116 -0.4726
 1898TIP3    H127109   3.471   1.969  15.739 -0.5477  0.9279 -0.1006
 1898TIP3    H227110   3.571   1.968  15.853  0.1650  0.8899 -0.7136
 1899TIP3   OH227111   3.153   5.074  13.158  0.0719  0.0715 -0.3892
 1899TIP3    H127112   3.229   5.118  13.196  0.5130  0.1802 -1.3861
 1899TIP3    H227113   3.094   5.146  13.133  0.0680  0.0293 -0.5022
 1900TIP3   OH227114   5.805   5.440  17.094  0.0743  0.4666  0.0001
 1900TIP3    H127115   5.887   5.394  17.076 -0.0685  0.7462 -1.5470
 1900TIP3    H227116   5.764   5.390  17.164  1.1667 -0.1706  0.2123
 1901TIP3   OH227117   2.575   3.838  12.629  0.4692  0.4096  0.7023
 1901TIP3    H127118   2.538   3.823  12.716  1.0163 -0.9849  0.7071
 1901TIP3    H227119   2.589   3.933  12.626 -1.8072  0.8319  1.2032
 1902TIP3   OH227120   0.610   2.059   5.240 -0.5401 -0.0154  0.1969
 1902TIP3    H127121   0.558   1.979   5.245 -1.1102  0.3093 -0.3560
 1902TIP3    H227122   0.602   2.098   5.326  1.3677 -1.5260  1.1413
 1903TIP3   OH227123   4.148   6.098  16.493  0.2070  0.1045 -0.9030
 1903TIP3    H127124   4.209   6.061  16.429  2.9346  2.1520  0.2994
 1903TIP3    H227125   4.061   6.088  16.452  1.1791 -3.4828 -2.4496
 1904TIP3   OH227126   6.546   0.015   0.978  0.6612 -0.3037  0.3012
 1904TIP3    H127127   6.503  -0.037   0.910  0.8746  0.0829 -0.1332
 1904TIP3    H227128   6.508   0.103   0.968  0.3126 -0.3678  1.0215
 1905TIP3   OH227129   4.372   6.667   3.654  0.2072  0.1491 -0.1794
 1905TIP3    H127130   4.426   6.732   3.609  0.0982 -0.5710 -1.3909
 1905TIP3    H227131   4.330   6.716   3.725  0.8469  1.1841 -0.4887
 1906TIP3   OH227132   0.520   4.476  11.323 -0.6794 -0.2678 -0.3710
 1906TIP3    H127133   0.550   4.526  11.400  0.2022 -1.7182  0.2726
 1906TIP3    H227134   0.425   4.488  11.322 -0.5231  1.3008 -0.1809
 1907TIP3   OH227135   2.173   0.935  12.736  0.3282  0.3487 -0.2544
 1907TIP3    H127136   2.195   0.852  12.779 -0.6754  0.1180 -0.1574
 1907TIP3    H227137   2.210   1.002  12.793 -0.8343  0.0378  0.9228
 1908TIP3   OH227138   6.415   5.173  13.287 -0.3315  0.2302 -0.2739
 1908TIP3    H127139   6.348   5.105  13.290 -1.3672  1.1405 -1.4838
 1908TIP3    H227140   6.367   5.254  13.266  1.1486  0.8785 -1.3737
 1909TIP3   OH227141   1.262   4.899  12.000 -0.0839 -0.3936  0.5905
 1909TIP3    H127142   1.290   4.921  12.089 -2.7225  0.6839  1.2573
 1909TIP3    H227143   1.244   4.984  11.959 -0.6277 -0.9349 -0.3392
 1910TIP3   OH227144   5.390   1.759   3.454 -0.2734 -0.3250 -0.1887
 1910TIP3    H127145   5.325   1.755   3.384  0.1135 -0.7594 -0.5355
 1910TIP3    H227146   5.425   1.848   3.448 -1.0253 -0.0004  0.1840
 1911TIP3   OH227147   2.283   5.408   0.295  0.1995  0.0576  0.2379
 1911TIP3    H127148   2.288   5.504   0.295 -2.3188  0.3309 -2.3746
 1911TIP3    H227149   2.361   5.381   0.248  0.4243  0.9034  0.0982
 1912TIP3   OH227150   5.004   2.162   4.813  1.0663  0.0835 -0.0276
 1912TIP3    H127151   5.046   2.080   4.840  1.6146  0.1652 -0.6015
 1912TIP3    H227152   5.045   2.183   4.729  0.0952  0.3402 -0.4474
 1913TIP3   OH227153   4.920   5.012  14.901 -0.5926 -0.0637  0.1327
 1913TIP3    H127154   4.942   4.994  14.992 -0.2905 -0.7076 -0.0613
 1913TIP3    H227155   4.928   5.107  14.893 -1.7639  0.1493  1.0637
 1914TIP3   OH227156   4.218   0.651   2.890  0.1148  0.0520  1.0874
 1914TIP3    H127157   4.307   0.625   2.867  0.0393  0.3117  0.4604
 1914TIP3    H227158   4.224   0.745   2.904 -0.3539  0.3604 -0.5631
 1915TIP3   OH227159   5.924   6.082   4.807  0.2306 -0.5267  0.2586
 1915TIP3    H127160   5.846   6.032   4.832 -0.0311  0.8075  2.4070
 1915TIP3    H227161   5.996   6.019   4.818 -0.2542 -0.9388  1.3015
 1916TIP3   OH227162   3.325   6.396   3.871 -0.7205  0.8938  0.0735
 1916TIP3    H127163   3.248   6.449   3.893  0.0649  1.5768  1.3198
 1916TIP3    H227164   3.327   6.395   3.775 -0.5402  3.5253 -0.0288
 1917TIP3   OH227165   1.661   2.525   3.957  0.1990  0.4629  0.3540
 1917TIP3    H127166   1.693   2.437   3.974 -0.1012  0.4869  1.0653
 1917TIP3    H227167   1.646   2.527   3.862  2.0448  0.3804  0.0314
 1918TIP3   OH227168   1.131   4.127  16.050 -0.0448 -0.0406 -0.3003
 1918TIP3    H127169   1.136   4.058  15.984  2.2234 -0.8862  0.6456
 1918TIP3    H227170   1.130   4.081  16.134  2.1286  0.9987  0.3754
 1919TIP3   OH227171   6.048   2.459   0.403  0.0669  0.2227  0.1132
 1919TIP3    H127172   6.121   2.408   0.368  0.0044  0.5002 -0.4384
 1919TIP3    H227173   6.034   2.529   0.339 -0.1428  0.6668  0.6299
 1920TIP3   OH227174   1.546   3.810   1.866 -0.1874  0.4123 -0.2388
 1920TIP3    H127175   1.523   3.870   1.795 -2.0140 -0.5039 -0.4630
 1920TIP3    H227176   1.606   3.860   1.921 -1.6837  2.4933 -0.3900
 1921TIP3   OH227177   2.294   3.184   5.154 -0.0672 -0.1211  0.1069
 1921TIP3    H127178   2.380   3.150   5.180  0.2406 -0.4040 -1.2113
 1921TIP3    H227179   2.311   3.272   5.122 -0.4458  0.2376  0.8685
 1922TIP3   OH227180   1.252   5.623  11.603  0.6551  0.4065  0.1850
 1922TIP3    H127181   1.294   5.592  11.522 -0.7796  0.5050 -0.6335
 1922TIP3    H227182   1.299   5.578  11.673  3.5830  2.1576 -0.4886
 1923TIP3   OH227183   5.876   4.318   3.082 -0.1823 -0.6388  0.4451
 1923TIP3    H127184   5.808   4.315   3.150 -0.2769 -0.5397  0.3541
 1923TIP3    H227185   5.911   4.407   3.088  2.1880 -1.5983  2.7115
 1924TIP3   OH227186   6.050   3.327  16.121  0.1068 -0.2570  0.1056
 1924TIP3    H127187   6.015   3.238  16.120 -0.6290  0.0027  1.0883
 1924TIP3    H227188   6.144   3.315  16.135 -0.0440 -0.8759  0.6691
 1925TIP3   OH227189   2.559   0.151  17.254 -0.3124 -0.1982 -0.3145
 1925TIP3    H127190   2.620   0.221  17.278 -1.8783  0.8984  0.5922
 1925TIP3    H227191   2.591   0.074  17.302  0.3829  0.3407  0.0948
 1926TIP3   OH227192   0.352   2.299  12.145  0.0363 -0.1363  0.5841
 1926TIP3    H127193   0.269   2.343  12.131 -0.8071 -2.1336 -1.2264
 1926TIP3    H227194   0.399   2.307  12.062  0.8993 -0.5165  1.0184
 1927TIP3   OH227195   1.533   6.472  13.867 -0.5366  0.0814 -0.2354
 1927TIP3    H127196   1.524   6.556  13.821 -0.3021  0.4819  0.4366
 1927TIP3    H227197   1.454   6.423  13.844 -0.6333  0.4518 -0.7001
 1928TIP3   OH227198   6.727   5.854   4.272  0.0004 -0.0188  0.1067
 1928TIP3    H127199   6.659   5.808   4.223 -0.1290  1.1406 -0.8599
 1928TIP3    H227200   6.696   5.945   4.275  1.9498  0.7574 -1.2230
 1929TIP3   OH227201   2.142   0.724  14.849  0.0884  0.0531  0.3601
 1929TIP3    H127202   2.087   0.750  14.922 -1.2902 -1.1358 -0.2052
 1929TIP3    H227203   2.151   0.629  14.859  2.4474  0.2535  0.6892
 1930TIP3   OH227204   3.878   6.147  12.154  0.0691  0.6887  1.6096
 1930TIP3    H127205   3.927   6.067  12.173  0.5202  1.0963  2.1665
 1930TIP3    H227206   3.854   6.183  12.239 -0.5341  0.9116  1.3582
 1931TIP3   OH227207   2.903   5.692   4.294 -0.3036 -0.9468 -0.6207
 1931TIP3    H127208   2.944   5.615   4.334 -0.1464 -0.9239 -0.7339
 1931TIP3    H227209   2.975   5.756   4.287 -0.6682 -0.3940  0.4660
 1932TIP3   OH227210   0.044   3.700   4.640 -0.0198  0.0820  0.0066
 1932TIP3    H127211   0.042   3.640   4.714  0.1219  1.6972  1.3841
 1932TIP3    H227212  -0.038   3.750   4.647  0.3698  0.8001 -0.4339
 1933TIP3   OH227213   5.693   4.766   5.973 -0.3167 -0.1078 -0.1490
 1933TIP3    H127214   5.786   4.789   5.967 -0.2772 -0.5565 -1.7529
 1933TIP3    H227215   5.691   4.684   6.023  0.3373 -0.9296 -1.3990
 1934TIP3   OH227216   3.965   1.279   0.051 -0.0232 -0.3097 -0.1986
 1934TIP3    H127217   4.049   1.250   0.085  0.4257  1.3281  0.2054
 1934TIP3    H227218   3.903   1.261   0.121  0.2792 -0.0897  0.1275
 1935TIP3   OH227219   5.165   1.245   0.687 -0.5450 -0.1761 -0.0735
 1935TIP3    H127220   5.090   1.228   0.745 -0.8912 -0.0023 -0.4625
 1935TIP3    H227221   5.125   1.274   0.605 -0.0555 -0.3770 -0.3841
 1936TIP3   OH227222   6.438   0.245   5.169  0.1569 -0.3906 -0.4535
 1936TIP3    H127223   6.404   0.214   5.253  1.9643 -2.5376 -0.4033
 1936TIP3    H227224   6.491   0.322   5.191 -1.3175  0.5321 -0.0098
 1937TIP3   OH227225   2.244   0.045   5.548  0.1924 -0.5336  0.0931
 1937TIP3    H127226   2.296  -0.010   5.606  0.0416  1.4451  2.2891
 1937TIP3    H227227   2.295   0.050   5.467  1.9318 -1.0575  1.0944
 1938TIP3   OH227228   0.579   4.242   6.550  0.1608  0.8875 -0.0271
 1938TIP3    H127229   0.559   4.157   6.591 -0.9824  1.4565  0.6450
 1938TIP3    H227230   0.523   4.304   6.596  1.3324  2.0984 -0.1914
 1939TIP3   OH227231   1.440   1.685  14.276 -0.2035 -0.1759  1.0337
 1939TIP3    H127232   1.480   1.621  14.217 -0.2751  0.0666  0.7153
 1939TIP3    H227233   1.508   1.704  14.340  0.1673  0.1558  0.5553
 1940TIP3   OH227234   2.823   2.216   6.715 -0.1045 -0.0344 -0.0623
 1940TIP3    H127235   2.899   2.199   6.771 -0.0952  1.6306  0.4926
 1940TIP3    H227236   2.840   2.303   6.677  0.0087 -1.1994 -2.9069
 1941TIP3   OH227237   2.858   0.360  14.674  0.2401 -0.2672 -0.6935
 1941TIP3    H127238   2.849   0.396  14.763 -1.4011 -2.8914  0.3314
 1941TIP3    H227239   2.780   0.391  14.628  0.2356 -0.2561 -0.6786
 1942TIP3   OH227240   3.718   3.287  14.188 -0.3585 -0.3604 -0.4076
 1942TIP3    H127241   3.793   3.325  14.234  0.4749 -2.5464  0.1756
 1942TIP3    H227242   3.718   3.330  14.103  1.6770 -0.3867 -0.4768
 1943TIP3   OH227243   2.187   1.425  12.937 -0.1666  0.1698 -0.1187
 1943TIP3    H127244   2.225   1.493  12.883  0.1434  0.2126  0.1532
 1943TIP3    H227245   2.188   1.461  13.026  1.9224 -0.9671  0.3839
 1944TIP3   OH227246   4.239   4.680   5.845 -0.2595  0.1048 -0.5205
 1944TIP3    H127247   4.255   4.701   5.753 -1.5655 -1.3799 -1.1243
 1944TIP3    H227248   4.213   4.588   5.845 -0.3902  0.1010  1.3286
 1945TIP3   OH227249   4.232   1.900  13.428 -0.0253  0.7694 -0.2786
 1945TIP3    H127250   4.180   1.958  13.372 -0.3995 -0.3380 -1.1003
 1945TIP3    H227251   4.168   1.847  13.475  0.3161 -0.1072 -0.7664
 1946TIP3   OH227252   0.532   0.259   2.461  0.3128  0.4662 -0.0988
 1946TIP3    H127253   0.575   0.284   2.543  0.2501  0.2398  0.0039
 1946TIP3    H227254   0.541   0.336   2.405 -2.4878  1.8883  1.2227
 1947TIP3   OH227255   6.453   3.423   3.785 -0.0764 -0.1286 -0.1749
 1947TIP3    H127256   6.515   3.492   3.810  1.0221 -0.6876 -1.2650
 1947TIP3    H227257   6.380   3.470   3.746 -1.9925  0.8226  3.9959
 1948TIP3   OH227258   5.427   1.521  13.261  0.3627 -0.6550 -0.1706
 1948TIP3    H127259   5.347   1.535  13.210 -0.1045  0.6152  0.8656
 1948TIP3    H227260   5.498   1.538  13.198 -0.2021  1.8630 -0.2267
 1949TIP3   OH227261   3.308   1.050   3.779  0.5752 -0.2443 -0.1024
 1949TIP3    H127262   3.354   1.008   3.851 -0.6922 -1.7911 -0.1443
 1949TIP3    H227263   3.222   1.073   3.814  0.9711  1.7564 -0.2902
 1950TIP3   OH227264   6.580   5.021   5.133  0.0605  0.0418  0.5561
 1950TIP3    H127265   6.638   5.096   5.123 -0.4697  0.2731 -1.0785
 1950TIP3    H227266   6.631   4.958   5.185  0.0720  1.9319  3.0088
 1951TIP3   OH227267   1.988   3.996   4.399  0.4981  0.1276  0.0896
 1951TIP3    H127268   1.965   3.918   4.450 -2.4247 -0.8112 -2.3397
 1951TIP3    H227269   1.925   3.997   4.327  1.2710  4.0348 -0.7871
 1952TIP3   OH227270   5.365   5.633   2.071  0.2085 -0.5079 -0.8228
 1952TIP3    H127271   5.279   5.625   2.112  0.6530 -0.7035  0.0921
 1952TIP3    H227272   5.352   5.603   1.981 -0.3968 -1.8258 -0.3122
 1953TIP3   OH227273   4.118   0.525  16.224 -0.0393 -0.0483 -0.1195
 1953TIP3    H127274   4.184   0.526  16.154  0.4855  0.6928  0.3679
 1953TIP3    H227275   4.075   0.610  16.218 -0.4942 -0.2661  0.0032
 1954TIP3   OH227276   2.335   2.404  14.834 -0.9392  0.3312  0.3965
 1954TIP3    H127277   2.304   2.342  14.900 -3.0175  0.6422 -0.2013
 1954TIP3    H227278   2.293   2.375  14.753  0.8189  0.5069 -0.6303
 1955TIP3   OH227279   1.638   2.952   2.421 -0.2851 -0.3375  0.7760
 1955TIP3    H127280   1.697   2.937   2.495 -1.2120 -2.0695  1.2102
 1955TIP3    H227281   1.692   2.933   2.344  0.4311  0.6223  1.0107
 1956TIP3   OH227282   0.879   2.218  13.216  0.1910 -0.2681 -0.5191
 1956TIP3    H127283   0.820   2.168  13.273  0.9743 -0.7007 -0.0725
 1956TIP3    H227284   0.967   2.198  13.249  0.6249 -0.0784 -1.5288
 1957TIP3   OH227285   1.844   2.895   1.179 -0.4134  0.2106  0.0484
 1957TIP3    H127286   1.882   2.979   1.153 -2.6950  1.3397  0.1319
 1957TIP3    H227287   1.797   2.864   1.101 -2.0426  0.5130  0.8684
 1958TIP3   OH227288   4.667   1.104  12.003  0.5263  0.2914  0.6564
 1958TIP3    H127289   4.710   1.093  12.088  1.4823 -0.0743  0.1410
 1958TIP3    H227290   4.677   1.019  11.960  1.1401  0.8302 -0.3052
 1959TIP3   OH227291   2.820   1.717  11.084  0.2990 -0.3494 -0.5627
 1959TIP3    H127292   2.744   1.666  11.056  0.9101 -2.0590  0.7063
 1959TIP3    H227293   2.865   1.740  11.002 -0.6288 -0.8340 -1.2270
 1960TIP3   OH227294   1.737   3.953   4.063 -0.3311  0.3308 -0.4952
 1960TIP3    H127295   1.742   3.876   4.119 -0.5077  0.6866  0.0170
 1960TIP3    H227296   1.778   3.926   3.981 -1.3955 -0.6620 -0.7239
 1961TIP3   OH227297   4.821   4.436   2.585  0.1227 -0.2402  0.2693
 1961TIP3    H127298   4.841   4.447   2.492  0.7122 -1.9051  0.1537
 1961TIP3    H227299   4.752   4.500   2.603 -0.4614 -0.3227 -1.4743
 1962TIP3   OH227300   4.953   0.804   2.480 -0.1271  0.0884  0.0311
 1962TIP3    H127301   4.940   0.859   2.403  0.5768 -1.4589 -1.2295
 1962TIP3    H227302   5.048   0.806   2.495 -0.3082  0.8803  1.2891
 1963TIP3   OH227303   1.747   0.952  11.188  0.0069 -0.2077 -0.2726
 1963TIP3    H127304   1.816   1.012  11.161  1.3407 -1.5105  0.1653
 1963TIP3    H227305   1.758   0.944  11.283 -1.1716  0.0524 -0.0896
 1964TIP3   OH227306   2.091   3.800  14.883 -0.0180  0.1303  0.4493
 1964TIP3    H127307   2.097   3.873  14.821 -2.2611  0.3107  0.3599
 1964TIP3    H227308   2.100   3.842  14.969 -0.7803  0.4631  0.3769
 1965TIP3   OH227309   1.820   2.715  17.392 -0.4925  0.4469 -0.1077
 1965TIP3    H127310   1.886   2.764  17.440  0.2737 -1.4514  0.8928
 1965TIP3    H227311   1.867   2.674  17.320 -1.0476  0.8963 -0.7376
 1966TIP3   OH227312   6.057   0.773   1.698  0.2507  0.5174  0.1784
 1966TIP3    H127313   6.087   0.862   1.714 -0.2579  1.0248 -1.5308
 1966TIP3    H227314   6.057   0.764   1.603 -4.6662  0.5117 -0.0689
 1967TIP3   OH227315   3.466   1.779  13.275  0.7826 -0.2823  0.4671
 1967TIP3    H127316   3.489   1.866  13.241  0.2056  1.2651  3.6140
 1967TIP3    H227317   3.536   1.758  13.337 -0.1552 -1.0863  1.2810
 1968TIP3   OH227318   1.959   2.844   6.822  0.0829 -0.0799 -0.3876
 1968TIP3    H127319   1.979   2.794   6.744 -1.4077 -0.2286 -0.7016
 1968TIP3    H227320   1.983   2.934   6.800  3.6444 -0.6764  0.5005
 1969TIP3   OH227321   2.397   2.884  11.896  0.1793  0.1472 -0.2544
 1969TIP3    H127322   2.447   2.940  11.956 -0.9977  0.0203  0.9209
 1969TIP3    H227323   2.364   2.813  11.952 -1.9053  0.6359 -0.7652
 1970TIP3   OH227324   0.842   6.716  13.274  0.7830  0.0429 -0.0654
 1970TIP3    H127325   0.930   6.753  13.286  0.6579 -0.0813  1.5343
 1970TIP3    H227326   0.797   6.779  13.219  0.5820  2.4096  2.5579
 1971TIP3   OH227327   3.479   2.730   0.984  0.3262  0.4631  0.0123
 1971TIP3    H127328   3.460   2.669   0.913 -0.4231 -0.7082  1.1657
 1971TIP3    H227329   3.407   2.793   0.982 -0.7670 -0.7019  0.8951
 1972TIP3   OH227330   0.731   5.238   0.310  0.4496  0.4291  0.2240
 1972TIP3    H127331   0.722   5.194   0.394 -0.5142  1.6803  0.8205
 1972TIP3    H227332   0.815   5.284   0.316  0.6265  0.1024  0.2905
 1973TIP3   OH227333   3.428   1.595   4.038  0.1445 -0.3989 -0.2791
 1973TIP3    H127334   3.416   1.505   4.008 -0.3354 -0.5536  0.3573
 1973TIP3    H227335   3.427   1.589   4.133 -0.3848  0.3401 -0.2236
 1974TIP3   OH227336   1.104   4.730   4.360  0.4401  0.1204 -0.3985
 1974TIP3    H127337   1.027   4.704   4.309  0.5947 -0.3692 -0.3881
 1974TIP3    H227338   1.175   4.676   4.326  0.8065  0.6471 -0.4803
 1975TIP3   OH227339   5.850   0.972  14.745  0.0039 -0.2363 -0.1089
 1975TIP3    H127340   5.851   1.067  14.737  0.4302 -0.0806  1.3986
 1975TIP3    H227341   5.792   0.955  14.820  0.8961 -1.0719  0.4164
 1976TIP3   OH227342   3.955   5.893  12.184 -0.3995  0.4745  0.3391
 1976TIP3    H127343   3.979   5.822  12.244 -0.2453  0.8627  0.7437
 1976TIP3    H227344   3.943   5.850  12.099 -0.3306 -0.0369  0.5836
 1977TIP3   OH227345   5.219   1.667  12.610  0.0125  0.3330  0.0466
 1977TIP3    H127346   5.241   1.580  12.644  1.5618  0.1456 -1.2942
 1977TIP3    H227347   5.174   1.711  12.682  1.2867 -0.7614  1.5701
 1978TIP3   OH227348   4.708   4.531   1.847 -0.2363  0.2781  0.1799
 1978TIP3    H127349   4.724   4.589   1.772 -0.1797 -1.4600 -1.2184
 1978TIP3    H227350   4.780   4.549   1.907  1.5111 -0.4568 -1.6031
 1979TIP3   OH227351   4.207   2.811   3.012  0.1963 -0.4768 -0.7299
 1979TIP3    H127352   4.269   2.769   3.071  1.5998  1.2943 -0.8527
 1979TIP3    H227353   4.205   2.902   3.042 -0.2561  0.1078 -2.4468
 1980TIP3   OH227354   4.639   3.506  14.477 -0.7239 -0.3666 -0.7316
 1980TIP3    H127355   4.690   3.425  14.471  0.5497  0.3457  0.2456
 1980TIP3    H227356   4.552   3.480  14.447 -0.8445 -2.5377  1.2080
 1981TIP3   OH227357   3.971   2.226   0.084  0.5788  0.2519  0.1776
 1981TIP3    H127358   3.890   2.180   0.058  1.1659 -0.3759 -0.6047
 1981TIP3    H227359   3.992   2.190   0.170 -0.5187  1.1721  0.8645
 1982TIP3   OH227360   0.112   3.633  17.384  0.4893  0.4836 -0.3433
 1982TIP3    H127361   0.107   3.726  17.410  1.7018  1.4962 -3.3574
 1982TIP3    H227362   0.101   3.585  17.467  1.7349  3.3110  1.6345
 1983TIP3   OH227363   3.601   6.021   1.924  0.2081  0.1462 -0.4480
 1983TIP3    H127364   3.641   5.935   1.940 -1.6093 -0.5935  0.3912
 1983TIP3    H227365   3.553   6.010   1.842 -1.5244 -0.2619  0.5670
 1984TIP3   OH227366   5.836   1.304  11.099  0.2041 -0.0910 -0.6637
 1984TIP3    H127367   5.795   1.268  11.020  0.3396 -0.1814 -0.6921
 1984TIP3    H227368   5.843   1.230  11.159  0.2971 -0.0676 -0.6458
 1985TIP3   OH227369   3.678   2.125   1.476 -0.2820 -0.0721 -0.1319
 1985TIP3    H127370   3.747   2.159   1.419  1.2248  0.1365  1.7046
 1985TIP3    H227371   3.627   2.202   1.501 -0.4785 -0.0546 -0.5745
 1986TIP3   OH227372   2.749   0.801  11.229 -0.0011  0.5289 -0.0301
 1986TIP3    H127373   2.775   0.887  11.264  1.1681 -0.5062  1.8480
 1986TIP3    H227374   2.828   0.748  11.236 -1.1529 -1.1983  0.5290
 1987TIP3   OH227375   5.054   0.367   2.781  0.1972 -0.6675 -0.4402
 1987TIP3    H127376   4.963   0.385   2.759 -0.5504  0.3090  2.9629
 1987TIP3    H227377   5.057   0.273   2.799 -0.2210 -0.6183 -0.1275
 1988TIP3   OH227378   2.717   2.672  13.479 -0.0808 -0.2318 -0.1277
 1988TIP3    H127379   2.740   2.643  13.390  1.9179 -3.5696  1.2804
 1988TIP3    H227380   2.647   2.613  13.505 -0.4034  0.4861  0.6509
 1989TIP3   OH227381   5.158   5.046  12.464  0.0604  0.4497  0.1655
 1989TIP3    H127382   5.209   5.113  12.418 -0.6314  1.7183  1.1905
 1989TIP3    H227383   5.076   5.040  12.414 -0.2069  0.9657  0.5364
 1990TIP3   OH227384   3.401   2.267   0.831 -0.5116  0.2992  0.2500
 1990TIP3    H127385   3.362   2.196   0.881  1.5188 -0.4523  0.8639
 1990TIP3    H227386   3.495   2.258   0.846 -0.1018  2.2630 -0.8074
 1991TIP3   OH227387   2.449   4.947   2.965  0.3161  0.2534 -0.0995
 1991TIP3    H127388   2.475   5.036   2.991  0.7820  0.0484  0.1535
 1991TIP3    H227389   2.467   4.943   2.871  1.3558  0.0731  0.0943
 1992TIP3   OH227390   0.839   3.653   2.267 -0.3524 -0.0189  0.3676
 1992TIP3    H127391   0.831   3.742   2.234  1.4450 -0.3570 -1.1359
 1992TIP3    H227392   0.779   3.601   2.214  1.9469 -0.4215 -2.0594
 1993TIP3   OH227393   0.835   1.010  11.814 -0.2611  0.3879 -0.2654
 1993TIP3    H127394   0.756   0.959  11.829 -0.4526  0.1213 -2.0161
 1993TIP3    H227395   0.854   0.998  11.721  0.9662  1.6989 -0.2111
 1994TIP3   OH227396   2.425   6.568   1.010  0.3179  0.6814  0.3304
 1994TIP3    H127397   2.386   6.650   1.038  1.7981  1.2535  0.7856
 1994TIP3    H227398   2.399   6.505   1.078  0.5691  1.1596  0.8786
 1995TIP3   OH227399   3.931   4.606   2.132 -0.0737  0.0648  0.6026
 1995TIP3    H127400   3.847   4.602   2.177 -0.4562 -0.3786 -0.1418
 1995TIP3    H227401   3.959   4.515   2.123  0.3698  0.1931  0.6166
 1996TIP3   OH227402   1.019   5.285   4.847  0.6315 -0.6058 -0.4371
 1996TIP3    H127403   1.006   5.190   4.841 -0.7821 -0.4016 -1.0189
 1996TIP3    H227404   0.996   5.307   4.937  0.5564 -0.7632 -0.4176
 1997TIP3   OH227405   6.106   0.186   3.761 -0.3683  0.2489  0.1003
 1997TIP3    H127406   6.196   0.206   3.736 -0.6245  0.6456 -0.5379
 1997TIP3    H227407   6.072   0.269   3.795  0.3382 -0.5254  3.0443
 1998TIP3   OH227408   0.877   5.022   1.098  0.0927 -0.0251 -0.3120
 1998TIP3    H127409   0.930   4.951   1.135  0.1526 -0.3899 -1.0652
 1998TIP3    H227410   0.929   5.101   1.115  1.1393 -0.4299 -1.4468
 1999TIP3   OH227411   2.575   0.251   2.551  0.8376 -0.6695 -0.4292
 1999TIP3    H127412   2.544   0.270   2.640  2.3876  1.7394 -0.3238
 1999TIP3    H227413   2.542   0.323   2.498  0.4886 -1.7385 -1.7257
 2000TIP3   OH227414   5.899   4.100   1.604 -0.1686  0.1443  0.6188
 2000TIP3    H127415   5.981   4.125   1.562  0.3646  0.1849  1.6651
 2000TIP3    H227416   5.914   4.011   1.636 -0.4809  0.2117  0.9577
 2001TIP3   OH227417   3.769   2.921  10.235 -0.4816  0.4580  0.2613
 2001TIP3    H127418   3.782   2.960  10.322  0.9747 -0.0206  0.2852
 2001TIP3    H227419   3.737   2.833  10.254 -2.1684  1.0147  0.2342
 2002TIP3   OH227420   0.745   0.595  11.040  0.4997 -0.7706 -0.0776
 2002TIP3    H127421   0.725   0.516  10.989 -2.0556  0.3902 -1.0229
 2002TIP3    H227422   0.820   0.634  10.994 -0.4125 -0.8643 -1.7168
 2003TIP3   OH227423   3.516   0.085  13.126  0.2894  0.0262 -0.7289
 2003TIP3    H127424   3.458   0.118  13.195 -1.3957 -0.1228 -2.0163
 2003TIP3    H227425   3.459   0.072  13.051  1.7659 -1.4419 -1.6602
 2004TIP3   OH227426   6.548   6.746  16.761 -0.1297  0.2550 -0.4423
 2004TIP3    H127427   6.495   6.667  16.771 -0.4141  0.2344 -1.8701
 2004TIP3    H227428   6.510   6.809  16.823  0.8665 -1.0716  1.5920
 2005TIP3   OH227429   3.489   3.943  11.593  0.4365 -0.4253 -0.6177
 2005TIP3    H127430   3.551   4.013  11.615 -0.2320  0.2398 -0.7951
 2005TIP3    H227431   3.431   3.939  11.668  0.7698 -1.1507 -0.3878
 2006TIP3   OH227432   4.941   0.767  11.321  0.5026  0.3435 -0.0610
 2006TIP3    H127433   4.928   0.844  11.266  1.5539  0.0905 -0.6837
 2006TIP3    H227434   4.997   0.709  11.269  0.2974 -0.5464  0.6772
 2007TIP3   OH227435   1.580   5.985   1.353 -0.0603 -0.6033 -0.2267
 2007TIP3    H127436   1.514   5.986   1.423 -0.5826 -0.3290 -0.7165
 2007TIP3    H227437   1.663   6.001   1.398 -0.0494 -2.8663  0.6696
 2008TIP3   OH227438   0.545   4.806  13.042 -0.3867  0.2044  0.2786
 2008TIP3    H127439   0.526   4.794  12.949  0.4340  0.3864  0.0806
 2008TIP3    H227440   0.459   4.823  13.082 -1.1335 -2.4144 -0.0154
 2009TIP3   OH227441   5.158   0.728  10.828  0.0122 -0.2919 -0.0252
 2009TIP3    H127442   5.075   0.752  10.870  0.0503 -1.4752  0.7741
 2009TIP3    H227443   5.139   0.646  10.783  0.2363  0.4605 -1.5406
 2010TIP3   OH227444   2.415   2.199  16.126  0.4578 -0.2062 -0.4636
 2010TIP3    H127445   2.385   2.273  16.179  1.9007  2.1628 -2.7302
 2010TIP3    H227446   2.339   2.174  16.074 -0.1251 -0.6103  0.5399
 2011TIP3   OH227447   0.100   2.424  17.193  0.2779  0.4324  0.6479
 2011TIP3    H127448   0.164   2.402  17.125  0.1754  0.8116  0.4261
 2011TIP3    H227449   0.148   2.414  17.275  0.2737 -0.4776  0.5497
 2012TIP3   OH227450   1.321   5.169   2.320  0.1932  0.3036 -0.6982
 2012TIP3    H127451   1.362   5.083   2.319  1.7795  1.0081  0.1745
 2012TIP3    H227452   1.336   5.203   2.232  4.3719  1.7345  0.2957
 2013TIP3   OH227453   6.649   3.146  13.033 -0.6608  0.0356 -0.1248
 2013TIP3    H127454   6.596   3.144  13.112 -1.2248  0.0555 -0.4975
 2013TIP3    H227455   6.681   3.236  13.027  0.9627 -0.4109  1.1000
 2014TIP3   OH227456   0.228   4.806   4.036  0.4605 -0.2875  0.2187
 2014TIP3    H127457   0.151   4.749   4.042  0.4547 -0.4675 -1.1948
 2014TIP3    H227458   0.196   4.892   4.061 -1.2316  0.4792 -3.7905
 2015TIP3   OH227459   5.570   5.989  14.183 -0.2955 -0.1616  0.6115
 2015TIP3    H127460   5.491   5.988  14.236 -1.6205  2.4759 -1.0934
 2015TIP3    H227461   5.540   5.970  14.094  1.1399 -0.1033  0.0811
 2016TIP3   OH227462   0.396   2.978   2.902  0.0999 -0.4768 -0.3558
 2016TIP3    H127463   0.490   2.994   2.890 -0.1174  0.8339 -0.4354
 2016TIP3    H227464   0.359   2.984   2.814 -0.3838  1.4827 -0.0737
 2017TIP3   OH227465   1.731   4.720   6.789 -0.0350 -0.2594  0.3080
 2017TIP3    H127466   1.699   4.687   6.705  1.7534 -0.5722 -0.2874
 2017TIP3    H227467   1.783   4.797   6.767  0.7912 -0.5790  1.0596
 2018TIP3   OH227468   1.152   6.415  16.444 -0.1857 -0.2439 -0.5097
 2018TIP3    H127469   1.146   6.443  16.352 -1.3519 -2.0833 -1.0494
 2018TIP3    H227470   1.062   6.418  16.476 -0.3310 -2.8537 -0.4978
 2019TIP3   OH227471   6.530   0.678  12.552 -0.0430 -0.5242 -0.0467
 2019TIP3    H127472   6.521   0.651  12.460  0.3910  0.1060 -0.2857
 2019TIP3    H227473   6.482   0.761  12.557 -0.2929 -0.6936  0.3637
 2020TIP3   OH227474   2.873   2.761  14.201 -0.5332  0.2406  0.2101
 2020TIP3    H127475   2.826   2.706  14.139 -0.5749 -0.6255  0.9801
 2020TIP3    H227476   2.833   2.848  14.192 -1.7286 -0.2912  0.2716
 2021TIP3   OH227477   4.436   4.986   1.223  0.0127  0.0850  0.5169
 2021TIP3    H127478   4.429   5.023   1.135  0.0767 -1.5712 -0.2099
 2021TIP3    H227479   4.347   4.987   1.257  0.2405  2.4597  1.2090
 2022TIP3   OH227480   1.827   6.095  14.202 -0.4069  0.8897  0.0999
 2022TIP3    H127481   1.791   6.162  14.260 -0.5032  1.0245 -0.1154
 2022TIP3    H227482   1.784   6.111  14.118 -1.3592 -0.2066  0.3545
 2023TIP3   OH227483   4.564   2.759  12.969 -0.2335 -0.0330  0.3600
 2023TIP3    H127484   4.644   2.743  13.020  0.2417 -0.0137 -0.3692
 2023TIP3    H227485   4.520   2.830  13.015  0.1587 -0.0607  0.7864
 2024TIP3   OH227486   2.539   2.868  14.751 -0.3071  0.2513 -1.0392
 2024TIP3    H127487   2.626   2.873  14.712  0.2219 -1.0057 -0.1012
 2024TIP3    H227488   2.510   2.778  14.732 -1.8765  0.9797 -2.2940
 2025TIP3   OH227489   2.795   5.791   0.605  0.0791  0.5963  0.0459
 2025TIP3    H127490   2.867   5.733   0.579  0.8070  1.8923 -0.9572
 2025TIP3    H227491   2.719   5.757   0.558  0.6392  0.8267 -1.0649
 2026TIP3   OH227492   6.251   2.396   4.024 -0.1289  0.1303 -0.1699
 2026TIP3    H127493   6.174   2.353   4.061 -0.4516  0.1039 -0.8649
 2026TIP3    H227494   6.248   2.485   4.059  0.2570 -0.2464  0.8522
 2027TIP3   OH227495   1.707   1.732  16.058 -0.6884 -0.2641  0.1732
 2027TIP3    H127496   1.734   1.693  16.141 -0.8229 -0.4034  0.1521
 2027TIP3    H227497   1.712   1.826  16.073 -0.0029 -0.2838  0.1066
 2028TIP3   OH227498   2.386   1.766   5.555  0.5599  0.2774  0.3848
 2028TIP3    H127499   2.359   1.678   5.581 -1.1263  0.5768 -0.1905
 2028TIP3    H227500   2.433   1.801   5.631  1.7000 -1.2827  0.4247
 2029TIP3   OH227501   5.244   4.916   2.134  0.6360 -0.4708 -0.5643
 2029TIP3    H127502   5.315   4.853   2.120  0.9279  0.2505 -2.5592
 2029TIP3    H227503   5.288   5.001   2.134  0.1092 -0.1500  1.1303
 2030TIP3   OH227504   4.237   6.185  11.813  0.1596 -0.1379 -0.2760
 2030TIP3    H127505   4.294   6.234  11.872 -0.0972  3.0636 -2.4552
 2030TIP3    H227506   4.295   6.120  11.773  0.7801 -1.0328  1.9354
 2031TIP3   OH227507   6.678   6.600   1.430 -0.2100 -0.0594  0.2480
 2031TIP3    H127508   6.592   6.636   1.454  0.0279  0.2181  0.6979
 2031TIP3    H227509   6.692   6.631   1.340 -1.3769 -1.6070 -0.5244
 2032TIP3   OH227510   2.744   6.759   6.167 -0.3270 -0.7168  0.2576
 2032TIP3    H127511   2.821   6.705   6.187  0.1995  0.5252  1.7507
 2032TIP3    H227512   2.768   6.847   6.196 -2.5240 -0.4088  1.3202
 2033TIP3   OH227513   1.264   6.422   3.047 -0.2925  0.2666  0.1389
 2033TIP3    H127514   1.272   6.503   2.996 -0.8682  1.6002  2.0858
 2033TIP3    H227515   1.287   6.353   2.984  2.6341  2.0456 -0.9787
 2034TIP3   OH227516   1.276   1.132   2.731  0.4756 -0.1287  0.6641
 2034TIP3    H127517   1.253   1.142   2.639  0.9087  1.8177  0.7360
 2034TIP3    H227518   1.368   1.105   2.730 -0.3698 -3.4909  0.5084
 2035TIP3   OH227519   1.236   1.937  11.252  0.4406  0.3926  0.3465
 2035TIP3    H127520   1.217   1.962  11.161  0.9758 -0.5257 -0.0315
 2035TIP3    H227521   1.330   1.919  11.253  0.5660  1.0398  1.2505
 2036TIP3   OH227522   5.475   1.576  15.534 -0.9564 -0.1636 -0.3794
 2036TIP3    H127523   5.495   1.559  15.626 -0.5558  0.2365 -0.3872
 2036TIP3    H227524   5.437   1.494  15.502  0.5180 -0.8969 -0.3163
 2037TIP3   OH227525   6.289   4.639  13.079 -0.0178 -0.0666  0.3169
 2037TIP3    H127526   6.236   4.591  13.016  0.9898 -1.5368  0.5316
 2037TIP3    H227527   6.225   4.685  13.134 -1.0342 -1.0435 -0.0021
 2038TIP3   OH227528   5.599   0.208   3.677  0.0644 -0.1340 -0.0777
 2038TIP3    H127529   5.673   0.146   3.672 -0.9912 -1.4527  0.0985
 2038TIP3    H227530   5.637   0.292   3.654  2.1065 -0.3685  1.9941
 2039TIP3   OH227531   6.070   2.229   5.980 -0.8432 -0.0738  0.2910
 2039TIP3    H127532   5.998   2.167   5.988 -0.4477 -0.4732  0.7969
 2039TIP3    H227533   6.106   2.236   6.068  0.9736 -1.3986 -0.2860
 2040TIP3   OH227534   5.323   5.073  16.624  0.1520 -0.3786  0.3118
 2040TIP3    H127535   5.364   5.091  16.709  0.1754  0.0163  0.2208
 2040TIP3    H227536   5.379   5.006  16.584 -0.9562 -2.0403  1.4169
 2041TIP3   OH227537   0.546   0.971  12.861 -0.3948 -0.1549 -0.4335
 2041TIP3    H127538   0.609   1.042  12.876  1.2826 -1.0476 -2.6957
 2041TIP3    H227539   0.495   1.001  12.786 -1.3333 -0.3103  0.1361
 2042TIP3   OH227540   5.757   1.910   5.810  0.4673  0.0407  0.4242
 2042TIP3    H127541   5.679   1.911   5.755  1.4462 -0.6698 -1.0500
 2042TIP3    H227542   5.830   1.904   5.748  1.6590 -0.1099  1.7863
 2043TIP3   OH227543   5.957   6.450  11.337  0.4365  0.2125 -0.2425
 2043TIP3    H127544   5.979   6.421  11.425  2.5497 -3.3621 -1.7239
 2043TIP3    H227545   5.934   6.543  11.347 -1.1068 -0.4025  4.2002
 2044TIP3   OH227546   2.783   1.899   4.612 -0.4245 -1.0839 -0.3447
 2044TIP3    H127547   2.779   1.819   4.665  0.9339 -1.5213 -0.8625
 2044TIP3    H227548   2.695   1.937   4.618 -1.1265 -2.6834 -0.1922
 2045TIP3   OH227549   3.820   3.971   4.999  0.6600 -0.1651 -0.0421
 2045TIP3    H127550   3.798   4.041   4.938  1.3571 -0.4562 -0.6469
 2045TIP3    H227551   3.900   4.001   5.043  0.8472 -0.4867 -0.1565
 2046TIP3   OH227552   4.344   0.248   1.319  0.0013  0.2864 -0.0204
 2046TIP3    H127553   4.402   0.245   1.396  1.0154 -1.6578 -0.7926
 2046TIP3    H227554   4.314   0.158   1.309 -0.6371  0.6477 -1.5299
 2047TIP3   OH227555   3.798   3.688  16.547 -0.2203 -0.4664  0.4707
 2047TIP3    H127556   3.724   3.748  16.556  2.5636  3.1985  1.4584
 2047TIP3    H227557   3.814   3.684  16.453  0.0014  1.1180  0.4053
 2048TIP3   OH227558   5.542   4.297   4.538  0.1470 -0.3735 -0.1139
 2048TIP3    H127559   5.474   4.236   4.565  0.3920  0.2218  2.0477
 2048TIP3    H227560   5.623   4.259   4.572  0.4860  0.3950 -0.0274
 2049TIP3   OH227561   3.328   5.908  16.467 -0.1627  0.2512  0.4920
 2049TIP3    H127562   3.277   5.964  16.408 -1.0640 -0.1170  0.9047
 2049TIP3    H227563   3.265   5.880  16.533 -0.1446 -2.5195 -0.5637
 2050TIP3   OH227564   1.398   5.445  15.189  0.5392 -0.1222  0.5034
 2050TIP3    H127565   1.426   5.417  15.276 -0.4630  0.7260  1.1297
 2050TIP3    H227566   1.365   5.365  15.148 -0.0016 -0.3412  1.3276
 2051TIP3   OH227567   0.712   2.470  11.650  0.4018 -0.3379 -0.0903
 2051TIP3    H127568   0.618   2.461  11.661 -0.0065  1.0898 -1.8826
 2051TIP3    H227569   0.740   2.522  11.726 -0.7520  1.5480 -0.8757
 2052TIP3   OH227570   3.405   2.470   1.835  0.4499  0.1390 -0.2038
 2052TIP3    H127571   3.444   2.472   1.923  0.0437 -1.9513  0.0698
 2052TIP3    H227572   3.479   2.490   1.776  0.8555  0.9652  0.5539
 2053TIP3   OH227573   1.416   2.884   4.171  0.0083 -0.1112 -0.0795
 2053TIP3    H127574   1.500   2.865   4.129  0.0327  0.5605 -0.3455
 2053TIP3    H227575   1.351   2.842   4.115  0.2824 -3.2719  1.6739
 2054TIP3   OH227576   0.445   5.882   0.426 -0.2021  0.3009 -0.0978
 2054TIP3    H127577   0.499   5.950   0.386  0.6043  0.5314  1.3220
 2054TIP3    H227578   0.404   5.924   0.501 -1.1403 -0.3072 -0.2510
 2055TIP3   OH227579   6.585   1.319  17.066 -0.4243  0.6518  0.5323
 2055TIP3    H127580   6.553   1.409  17.077  1.1155  1.2111  0.6439
 2055TIP3    H227581   6.570   1.279  17.152 -0.6773  0.9360  0.6257
 2056TIP3   OH227582   3.576   6.323   1.900  0.3771  0.2905 -0.1547
 2056TIP3    H127583   3.653   6.302   1.847  0.7083  0.9812  0.0511
 2056TIP3    H227584   3.519   6.374   1.842 -0.5888 -1.3748 -0.7672
 2057TIP3   OH227585   6.683   3.821  12.784 -0.2971 -0.2157  0.1959
 2057TIP3    H127586   6.647   3.733  12.775 -1.5931  0.3200 -0.0958
 2057TIP3    H227587   6.673   3.842  12.877  3.5511 -1.7760  1.1753
 2058TIP3   OH227588   4.871   6.240  15.367  0.1779  0.6093 -0.0870
 2058TIP3    H127589   4.923   6.290  15.304  1.1475  0.7573  0.7947
 2058TIP3    H227590   4.920   6.158  15.378 -0.0588  0.5290  0.3706
 2059TIP3   OH227591   0.406   1.589  12.295 -0.1629  0.0125 -0.5131
 2059TIP3    H127592   0.453   1.551  12.222 -0.8864  0.8557 -1.4625
 2059TIP3    H227593   0.464   1.657  12.329  0.4286 -0.7929  0.1001
 2060TIP3   OH227594   3.745   2.844   0.977 -0.3022 -0.6489 -0.0754
 2060TIP3    H127595   3.651   2.827   0.985 -0.8171  2.4918  2.1728
 2060TIP3    H227596   3.774   2.862   1.066  1.4908  2.4541 -1.1239
 2061TIP3   OH227597   4.611   4.909  14.568  0.5108  0.2836  0.2300
 2061TIP3    H127598   4.586   4.819  14.588 -0.0877  0.2644 -0.5790
 2061TIP3    H227599   4.577   4.960  14.642 -0.4898  0.0435 -0.0553
 2062TIP3   OH227600   4.144   2.829  12.779  0.1738 -0.0455  0.7303
 2062TIP3    H127601   4.240   2.834  12.777  0.1802 -0.0691  0.9458
 2062TIP3    H227602   4.116   2.920  12.776  0.2168 -0.0127  1.3085
 2063TIP3   OH227603   2.962   0.997   1.389 -0.3570 -0.2158 -0.1656
 2063TIP3    H127604   3.036   0.976   1.331 -0.4235 -1.8111  0.3044
 2063TIP3    H227605   2.953   0.922   1.446 -3.1441 -0.6553 -1.0036
 2064TIP3   OH227606   4.715   0.497   4.377 -0.1598  0.6553 -0.0630
 2064TIP3    H127607   4.683   0.567   4.319 -1.5995 -1.0145 -1.4167
 2064TIP3    H227608   4.664   0.420   4.351  1.6414 -1.0061  1.0899
 2065TIP3   OH227609   6.355   4.570   5.701  0.3315  0.3022 -0.0586
 2065TIP3    H127610   6.437   4.558   5.749  0.0597 -0.6013  0.2029
 2065TIP3    H227611   6.287   4.559   5.768 -0.0659 -1.3176 -0.6849
 2066TIP3   OH227612   4.556   4.103   0.559  0.0895 -0.1269 -0.2562
 2066TIP3    H127613   4.502   4.024   0.564 -0.5319  0.2758 -0.4260
 2066TIP3    H227614   4.644   4.071   0.540 -0.3511 -0.7237 -1.4231
 2067TIP3   OH227615   4.879   1.576  14.064 -0.5648  0.0865 -0.9322
 2067TIP3    H127616   4.950   1.605  14.007  0.3824 -2.5410 -1.2185
 2067TIP3    H227617   4.831   1.511  14.011 -1.2296 -0.5283  0.3882
 2068TIP3   OH227618   3.566   1.196  14.731  0.1975  0.2596  0.2956
 2068TIP3    H127619   3.602   1.136  14.795  0.4435  0.9792  0.8361
 2068TIP3    H227620   3.640   1.248  14.701  0.1055 -0.1274 -0.6455
 2069TIP3   OH227621   3.285   6.595  13.813  0.3900 -0.3744  0.2958
 2069TIP3    H127622   3.199   6.557  13.831 -1.5014  2.2148 -2.3005
 2069TIP3    H227623   3.304   6.650  13.889 -0.9473  0.1127  0.3002
 2070TIP3   OH227624   5.396   5.085   1.173  0.0748 -0.1896  0.1653
 2070TIP3    H127625   5.394   5.030   1.095  0.2028  0.9739 -0.6896
 2070TIP3    H227626   5.451   5.037   1.234  0.8088 -0.6537 -0.8278
 2071TIP3   OH227627   4.420   3.581  13.402 -0.2425 -0.2046  0.0044
 2071TIP3    H127628   4.469   3.654  13.364 -0.4504  0.5978  1.2212
 2071TIP3    H227629   4.389   3.531  13.326  0.7750  0.3773 -0.8279
 2072TIP3   OH227630   1.276   2.596  13.684 -0.0171  0.4709 -0.0172
 2072TIP3    H127631   1.184   2.624  13.683 -0.1742  0.0221 -2.0292
 2072TIP3    H227632   1.321   2.665  13.733 -1.6574 -0.2729  2.7387
 2073TIP3   OH227633   2.367   6.123  12.055  0.5441  0.0598  0.1559
 2073TIP3    H127634   2.353   6.209  12.096 -1.3371  0.7058 -1.6572
 2073TIP3    H227635   2.296   6.068  12.089  0.8202 -0.3203  0.1222
 2074TIP3   OH227636   6.523   0.653  11.615 -0.5314 -0.2040 -0.3998
 2074TIP3    H127637   6.478   0.586  11.564  0.0875 -0.6629 -0.3551
 2074TIP3    H227638   6.595   0.682  11.559 -0.1349 -0.3668  0.0209
 2075TIP3   OH227639   4.455   3.072  13.941 -0.5201  0.2091  0.1794
 2075TIP3    H127640   4.546   3.081  13.914 -1.2443  0.5499 -2.4371
 2075TIP3    H227641   4.435   2.979  13.929 -0.8941  0.3938 -0.8394
 2076TIP3   OH227642   0.621   4.444  11.846  0.2496 -0.0101  0.5951
 2076TIP3    H127643   0.625   4.348  11.851  0.9510  0.0571  1.6695
 2076TIP3    H227644   0.705   4.473  11.880  0.2702  0.9890 -0.2616
 2077TIP3   OH227645   5.545   1.672   6.197  0.1282 -0.0229  0.1467
 2077TIP3    H127646   5.527   1.762   6.169  0.3009 -0.2242 -0.6385
 2077TIP3    H227647   5.520   1.670   6.290 -0.3433  0.6983  0.0419
 2078TIP3   OH227648   5.484   2.278  15.158 -0.9099 -0.1417  0.7787
 2078TIP3    H127649   5.559   2.321  15.117 -0.9115 -0.7212  0.1536
 2078TIP3    H227650   5.480   2.316  15.246 -0.5548  0.6942  0.4470
 2079TIP3   OH227651   5.471   0.911  12.740  0.1420  0.4203  0.2189
 2079TIP3    H127652   5.449   0.968  12.666  0.0607 -0.5585 -0.5297
 2079TIP3    H227653   5.387   0.872  12.766  0.1488  0.8489  0.9247
 2080TIP3   OH227654   6.727   0.967   6.067  0.2636  0.8210 -0.3880
 2080TIP3    H127655   6.652   0.991   6.121 -1.2948 -1.7605 -1.2188
 2080TIP3    H227656   6.719   1.022   5.989 -0.9455  0.4278 -0.5659
 2081TIP3   OH227657   3.387   1.298   4.458  0.1725 -0.1315 -0.5511
 2081TIP3    H127658   3.301   1.338   4.452  0.4930  0.5006 -1.0715
 2081TIP3    H227659   3.371   1.211   4.494 -1.0194 -1.0721 -3.1054
 2082TIP3   OH227660   5.996   0.312  13.105 -0.0497  0.2378 -0.2127
 2082TIP3    H127661   5.928   0.342  13.045  0.7505  0.9880 -0.7631
 2082TIP3    H227662   5.948   0.265  13.174 -1.0147 -0.2912 -1.2163
 2083TIP3   OH227663   4.715   3.505  11.979 -0.2070  0.2251  0.3554
 2083TIP3    H127664   4.667   3.436  12.025 -0.5882  0.7571  0.7688
 2083TIP3    H227665   4.728   3.471  11.891  0.5520 -0.8204  0.8529
 2084TIP3   OH227666   4.344   3.740   1.324  0.2874  0.4304  0.6061
 2084TIP3    H127667   4.421   3.740   1.381  0.9795  0.1313 -0.3074
 2084TIP3    H227668   4.336   3.650   1.294 -0.7388  0.3446  1.0895
 2085TIP3   OH227669   0.836   4.606   5.331 -0.0866 -0.0980  0.0433
 2085TIP3    H127670   0.804   4.680   5.280 -1.3406  0.5074  1.6060
 2085TIP3    H227671   0.918   4.637   5.370  2.0896 -1.3079 -3.1757
 2086TIP3   OH227672   0.009   0.376  15.369 -0.0408 -0.2012 -0.6176
 2086TIP3    H127673   0.012   0.323  15.289  0.0975  1.4410 -1.7464
 2086TIP3    H227674   0.068   0.332  15.430  0.1501 -1.2685 -1.5480
 2087TIP3   OH227675   3.402   5.258   3.951 -0.6394 -0.1428  0.4770
 2087TIP3    H127676   3.474   5.195   3.951 -0.2682  0.1786  3.2190
 2087TIP3    H227677   3.403   5.296   4.038 -2.7394  1.5307 -0.1425
 2088TIP3   OH227678   5.431   5.879  12.497  0.2129  0.3979 -0.1887
 2088TIP3    H127679   5.516   5.923  12.502  0.0326  1.0601 -2.2988
 2088TIP3    H227680   5.373   5.941  12.453 -0.5261 -1.2282 -1.6219
 2089TIP3   OH227681   4.362   5.376  13.290 -0.1520  0.0645  0.2507
 2089TIP3    H127682   4.396   5.358  13.202 -0.8317 -0.1379  0.0283
 2089TIP3    H227683   4.353   5.290  13.331 -0.2638  0.1273  0.3588
 2090TIP3   OH227684   5.166   1.441   0.294 -0.0910  0.0206 -0.2717
 2090TIP3    H127685   5.140   1.483   0.211  2.1673  0.6973 -0.6987
 2090TIP3    H227686   5.083   1.410   0.331 -1.2549  0.2067 -2.4898
 2091TIP3   OH227687   5.694   5.236  12.888  0.0448 -0.3536  0.7752
 2091TIP3    H127688   5.623   5.218  12.950 -0.6292  1.6238  0.6580
 2091TIP3    H227689   5.716   5.328  12.903  2.5153 -0.8711  0.7001
 2092TIP3   OH227690   2.269   3.434   0.716  0.0868 -0.5739 -0.6073
 2092TIP3    H127691   2.175   3.452   0.713 -0.6300 -3.8042 -0.6742
 2092TIP3    H227692   2.307   3.496   0.653 -2.5107 -1.7244 -3.5586
 2093TIP3   OH227693   3.030   6.218   2.899  0.4862  0.5866  0.7397
 2093TIP3    H127694   2.999   6.227   2.989 -1.1270  0.9607  0.1778
 2093TIP3    H227695   2.971   6.273   2.848  1.1947  0.1461 -0.5936
 2094TIP3   OH227696   4.167   0.505  15.051  0.2884 -0.6534  0.0454
 2094TIP3    H127697   4.258   0.512  15.080 -0.4730  1.0216  2.4105
 2094TIP3    H227698   4.132   0.430  15.098  0.1757 -0.6445 -0.0240
 2095TIP3   OH227699   1.426   5.404   6.071  1.0481 -0.1832 -0.0460
 2095TIP3    H127700   1.432   5.309   6.081  2.0882 -0.1095  0.0862
 2095TIP3    H227701   1.385   5.434   6.153  1.3088 -0.4520  0.1838
 2096TIP3   OH227702   0.780   4.877   5.261  0.3660 -0.1630 -0.2237
 2096TIP3    H127703   0.823   4.950   5.217  1.0011 -0.6642 -0.4539
 2096TIP3    H227704   0.786   4.898   5.354 -1.8366  1.3782 -0.3473
 2097TIP3   OH227705   4.067   4.872  11.832  0.0128  0.1188 -0.1934
 2097TIP3    H127706   4.082   4.793  11.780 -0.9327 -1.3408  1.6341
 2097TIP3    H227707   4.151   4.891  11.873  0.3741  0.3939 -1.0442
 2098TIP3   OH227708   5.354   3.367  13.845  0.2531 -0.4917  0.0609
 2098TIP3    H127709   5.418   3.414  13.791  0.5039  0.0208  0.7793
 2098TIP3    H227710   5.302   3.437  13.886  1.6842 -0.7089  2.4327
 2099TIP3   OH227711   0.153   2.296  12.622  0.4708  0.7599  0.0524
 2099TIP3    H127712   0.210   2.318  12.548  1.8964 -1.1868  0.4928
 2099TIP3    H227713   0.193   2.341  12.697 -0.3099  1.7892 -0.1283
 2100TIP3   OH227714   1.457   0.827  10.641  0.2432 -0.7044 -0.2574
 2100TIP3    H127715   1.474   0.903  10.586 -2.0019 -0.5018 -0.7916
 2100TIP3    H227716   1.519   0.761  10.611 -0.1135 -0.2044 -2.2741
 2101TIP3   OH227717   1.432   0.083  14.254  0.3150 -0.2554  0.7559
 2101TIP3    H127718   1.514   0.091  14.302  0.6983 -1.0305  0.2655
 2101TIP3    H227719   1.407   0.173  14.233  0.4843  0.0467  1.8142
 2102TIP3   OH227720   3.683   6.018   0.435 -0.2183 -0.0867 -0.2086
 2102TIP3    H127721   3.707   6.018   0.343  0.3411  0.1444 -0.0676
 2102TIP3    H227722   3.628   5.941   0.446 -0.6859  0.1524 -0.8346
 2103TIP3   OH227723   4.644   4.107   3.865 -0.0968 -0.6384  0.2155
 2103TIP3    H127724   4.686   4.138   3.785 -1.3523 -1.0821 -0.6499
 2103TIP3    H227725   4.694   4.147   3.936  0.0039  1.1358 -0.8104
 2104TIP3   OH227726   5.885   3.427   6.082  0.0817  0.0463  0.5458
 2104TIP3    H127727   5.896   3.340   6.120  1.2608  0.8115  2.0358
 2104TIP3    H227728   5.800   3.456   6.115 -0.0690 -0.3054  0.4801
 2105TIP3   OH227729   4.887   3.278   6.054  0.6223 -0.2161  0.3478
 2105TIP3    H127730   4.947   3.350   6.072  0.1431  0.2130  0.2429
 2105TIP3    H227731   4.929   3.230   5.983  1.1609 -0.3063  0.7145
 2106TIP3   OH227732   2.538   1.203  12.325 -0.0412 -0.2196  0.0200
 2106TIP3    H127733   2.499   1.123  12.361 -0.1285 -1.2665 -2.2274
 2106TIP3    H227734   2.630   1.200  12.351 -0.6024  0.4577  2.3411
 2107TIP3   OH227735   1.999   0.355   0.809  0.4981  0.9064 -0.5458
 2107TIP3    H127736   1.955   0.342   0.894 -0.9888  0.9872 -1.2720
 2107TIP3    H227737   2.019   0.449   0.807 -1.1348  1.2833 -1.0191
 2108TIP3   OH227738   6.180   1.318  15.447 -0.5818  0.6741  0.4818
 2108TIP3    H127739   6.244   1.373  15.491 -0.0041  1.5008 -1.2684
 2108TIP3    H227740   6.224   1.234  15.435 -1.1743  0.0255  2.4411
 2109TIP3   OH227741   3.334   5.076  11.020  0.5331 -0.2280  0.7062
 2109TIP3    H127742   3.419   5.054  11.059  0.4509 -1.7647  0.0769
 2109TIP3    H227743   3.336   5.036  10.934 -0.3102  0.9113  0.1261
 2110TIP3   OH227744   1.354   3.564   2.531 -0.8152 -0.1672 -0.1430
 2110TIP3    H127745   1.446   3.544   2.546  0.2094  1.5543 -3.1032
 2110TIP3    H227746   1.338   3.645   2.578  0.7453  2.1763 -3.2565
 2111TIP3   OH227747   4.163   0.031  14.448 -0.6494  0.4039  0.3653
 2111TIP3    H127748   4.121   0.044  14.533  1.9296  1.9430  1.5326
 2111TIP3    H227749   4.124   0.098  14.391 -2.3440 -0.5916  0.3025
 2112TIP3   OH227750   0.921   1.876  15.589 -0.0046 -0.0049 -0.1785
 2112TIP3    H127751   0.995   1.936  15.588  0.8739 -0.9234 -3.5688
 2112TIP3    H227752   0.844   1.932  15.581  0.2635  0.9142  2.6378
 2113TIP3   OH227753   2.528   0.253  10.323  0.1913 -0.5873 -0.7244
 2113TIP3    H127754   2.526   0.347  10.343  1.3211 -0.4075 -1.3691
 2113TIP3    H227755   2.479   0.245  10.242  1.5947 -0.2746 -1.6297
 2114TIP3   OH227756   4.941   4.201   1.951 -0.2517  0.0545  0.6975
 2114TIP3    H127757   4.999   4.203   2.028 -1.0310 -1.6111  1.3851
 2114TIP3    H227758   4.996   4.231   1.879  0.6382  1.2157  1.8166
 2115TIP3   OH227759   5.783   3.756   1.159 -0.7755 -0.6486  0.1747
 2115TIP3    H127760   5.803   3.707   1.079 -0.3077 -1.0849  0.5470
 2115TIP3    H227761   5.747   3.690   1.218  0.3516 -0.6708  0.8676
 2116TIP3   OH227762   6.632   2.492  16.754  0.3410  0.1156  0.1719
 2116TIP3    H127763   6.577   2.551  16.807 -0.5608 -0.5168 -0.0316
 2116TIP3    H227764   6.695   2.550  16.712 -1.4875  1.1921 -1.2571
 2117TIP3   OH227765   4.531   3.191   1.625 -0.2808  0.1597  0.0562
 2117TIP3    H127766   4.551   3.265   1.567 -0.8289  0.0552 -0.2767
 2117TIP3    H227767   4.502   3.122   1.565  0.3845 -0.3850  0.3474
 2118TIP3   OH227768   2.123   3.503   4.995  0.1205  0.0236 -0.6770
 2118TIP3    H127769   2.210   3.477   4.966  0.4575  0.0722  0.2569
 2118TIP3    H227770   2.068   3.426   4.981  0.3812 -0.1113 -0.9625
 2119TIP3   OH227771   5.300   2.684   3.715  0.2694 -0.3113  0.0334
 2119TIP3    H127772   5.257   2.689   3.630  0.7251 -1.2673 -0.2632
 2119TIP3    H227773   5.392   2.702   3.697  0.2273  0.3757  0.4636
 2120TIP3   OH227774   0.339   6.264  16.253 -0.0903  0.7664 -0.0008
 2120TIP3    H127775   0.428   6.257  16.288  0.9297  0.2061 -2.4824
 2120TIP3    H227776   0.313   6.174  16.234 -1.7611  0.7868  1.8394
 2121TIP3   OH227777   5.959   5.069   0.012  0.3005  0.2704 -0.2924
 2121TIP3    H127778   5.919   5.016   0.080  0.4757  2.1106  1.3225
 2121TIP3    H227779   5.887   5.120  -0.025  0.5485  0.8529  0.0206
 2122TIP3   OH227780   3.709   3.199   6.044  0.5397  0.3664 -0.3969
 2122TIP3    H127781   3.708   3.184   6.139  1.3311 -0.2637 -0.4786
 2122TIP3    H227782   3.649   3.272   6.031  0.0473  0.1454  0.5377
 2123TIP3   OH227783   2.413   4.112  15.915 -0.2553 -0.0006 -0.0243
 2123TIP3    H127784   2.420   4.159  15.998  0.0999 -1.7308  0.9636
 2123TIP3    H227785   2.419   4.181  15.849 -1.2539  1.5034  1.3629
 2124TIP3   OH227786   1.391   5.063   5.200 -0.2997 -0.4200 -0.2977
 2124TIP3    H127787   1.486   5.071   5.200 -0.3917  0.9837 -0.9936
 2124TIP3    H227788   1.372   4.996   5.265  1.1231 -0.1165  0.4599
 2125TIP3   OH227789   1.301   2.134  11.647 -0.5560  0.4905  0.1439
 2125TIP3    H127790   1.232   2.078  11.612 -0.0450 -0.7272  1.0118
 2125TIP3    H227791   1.382   2.098  11.609 -0.1303  0.0124  1.4342
 2126TIP3   OH227792   6.313   0.398  11.908 -0.3250 -0.0998 -0.0927
 2126TIP3    H127793   6.382   0.338  11.939  3.5747  3.1372 -1.5717
 2126TIP3    H227794   6.338   0.418  11.818 -2.1581  2.6443 -0.1013
 2127TIP3   OH227795   5.551   4.562  16.239 -0.5501  0.6303  0.1746
 2127TIP3    H127796   5.545   4.512  16.320  2.9013  1.4596  1.0914
 2127TIP3    H227797   5.569   4.652  16.266 -1.1176  1.3037 -1.5128
 2128TIP3   OH227798   2.792   0.842  12.963  0.2127 -0.3084 -0.1498
 2128TIP3    H127799   2.789   0.773  12.897 -2.5522  0.5418 -1.0493
 2128TIP3    H227800   2.735   0.810  13.034 -0.3981  0.6511 -0.1923
 2129TIP3   OH227801   4.620   2.577   3.296 -0.1298 -0.0493 -0.6146
 2129TIP3    H127802   4.651   2.592   3.385 -1.9245  2.1806 -0.2460
 2129TIP3    H227803   4.558   2.504   3.304  0.4898 -0.5420 -0.2428
 2130TIP3   OH227804   0.879   1.070  12.584 -0.5355 -0.4130  0.2874
 2130TIP3    H127805   0.898   1.012  12.658 -1.3003  1.3830  1.9698
 2130TIP3    H227806   0.966   1.095  12.552 -0.1916 -1.4281  0.3569
 2131TIP3   OH227807   5.224   1.711  12.097 -0.1114 -0.2784 -0.2247
 2131TIP3    H127808   5.248   1.662  12.176 -0.5889 -0.8290 -0.4094
 2131TIP3    H227809   5.290   1.780  12.090  0.0714 -0.3657  0.5267
 2132TIP3   OH227810   0.155   5.816  13.259  0.0120 -0.2477  0.1951
 2132TIP3    H127811   0.188   5.870  13.331  0.2624 -0.5874  0.3385
 2132TIP3    H227812   0.232   5.796  13.207 -0.0868 -0.4390  0.1220
 2133TIP3   OH227813   1.609   3.230   6.849  0.2856  0.0189 -0.1698
 2133TIP3    H127814   1.691   3.240   6.800  0.2948 -0.3161 -0.2275
 2133TIP3    H227815   1.591   3.317   6.884 -0.3818  0.5738 -1.8046
 2134TIP3   OH227816   5.086   1.900  15.227  0.4100 -0.7014 -0.4241
 2134TIP3    H127817   5.020   1.846  15.183 -0.2811 -0.0467 -0.1987
 2134TIP3    H227818   5.061   1.898  15.320 -0.5185  1.2070 -0.5843
 2135TIP3   OH227819   0.378   3.420   1.610  0.5612  0.9151 -0.2465
 2135TIP3    H127820   0.429   3.498   1.585  0.4863  1.2544  0.6355
 2135TIP3    H227821   0.288   3.451   1.614  0.5668  0.8717  0.4023
 2136TIP3   OH227822   4.289   2.092   0.599 -0.3218 -0.4594  0.3185
 2136TIP3    H127823   4.306   1.999   0.612  0.1163 -0.2415  1.4204
 2136TIP3    H227824   4.330   2.134   0.674  1.6715  0.8493 -1.3756
 2137TIP3   OH227825   0.236   1.953  11.598 -0.0636 -0.3472  0.4206
 2137TIP3    H127826   0.252   2.044  11.573 -0.4610 -0.5353 -0.5596
 2137TIP3    H227827   0.283   1.943  11.681  0.8539  0.4529  0.0224
 2138TIP3   OH227828   6.747   0.202   2.451  0.0267 -0.2852 -0.0378
 2138TIP3    H127829   6.812   0.261   2.411  0.2364 -0.4335  0.0798
 2138TIP3    H227830   6.699   0.166   2.377 -0.6135  0.6155 -0.0690
 2139TIP3   OH227831   0.103   0.581  16.040 -0.2947  0.1577  0.3825
 2139TIP3    H127832   0.195   0.607  16.033 -0.3697  0.1728 -0.7724
 2139TIP3    H227833   0.076   0.567  15.949 -0.6842 -2.4982  0.8323
 2140TIP3   OH227834   6.006   0.011  12.529 -0.3935 -0.0438  0.1305
 2140TIP3    H127835   5.967   0.032  12.444 -2.0015 -0.9229  0.6106
 2140TIP3    H227836   5.934   0.017  12.591  0.5837 -0.2007  1.3325
 2141TIP3   OH227837   5.963   5.129   1.830 -0.1110  0.6859 -0.0704
 2141TIP3    H127838   6.026   5.082   1.885 -2.0093  0.7441  2.3099
 2141TIP3    H227839   6.017   5.186   1.775  2.0321 -1.4623 -0.3200
 2142TIP3   OH227840   6.062   1.333   4.261  0.1659 -0.3273  0.2690
 2142TIP3    H127841   6.155   1.352   4.254  0.5244 -1.5831  1.1729
 2142TIP3    H227842   6.036   1.370   4.346 -0.2892  0.4236 -0.1798
 2143TIP3   OH227843   2.037   6.054   0.510  0.5220 -0.0515  0.0204
 2143TIP3    H127844   2.070   5.985   0.453  1.4812 -0.0705  0.5771
 2143TIP3    H227845   2.081   6.133   0.481  0.4760  0.0679  0.2742
 2144TIP3   OH227846   1.030   4.931   3.974 -0.2055  0.1672 -0.0408
 2144TIP3    H127847   1.028   4.946   4.069 -1.0343  1.3489 -0.2243
 2144TIP3    H227848   0.962   4.866   3.958 -0.7942  0.7594  0.0504
 2145TIP3   OH227849   4.871   5.628  10.864 -0.0968 -0.6546 -0.2906
 2145TIP3    H127850   4.801   5.684  10.898 -0.6712 -3.0521  3.0683
 2145TIP3    H227851   4.826   5.566  10.806 -0.7458 -1.6538  1.1947
 2146TIP3   OH227852   3.033   2.753  13.491 -0.0264 -0.2455 -0.2306
 2146TIP3    H127853   2.960   2.785  13.544 -1.1915  1.2942 -2.6022
 2146TIP3    H227854   3.092   2.828  13.483 -0.1550 -0.2484 -1.5059
 2147TIP3   OH227855   0.248   2.003  14.740  0.8073 -0.1744  0.7446
 2147TIP3    H127856   0.163   2.034  14.768  0.7369  0.8822 -0.5675
 2147TIP3    H227857   0.300   2.082  14.728  1.2386 -0.6460 -0.7344
 2148TIP3   OH227858   3.415   3.261   3.425 -0.7306  0.0722  0.0175
 2148TIP3    H127859   3.340   3.252   3.484 -1.3909  0.5468 -0.7454
 2148TIP3    H227860   3.428   3.173   3.389 -2.4332  0.4678 -1.6651
 2149TIP3   OH227861   3.781   5.289  14.405  0.3091  0.3130  0.1713
 2149TIP3    H127862   3.833   5.304  14.483  1.2896  0.6120 -0.5218
 2149TIP3    H227863   3.750   5.376  14.379 -0.6183  0.1335  0.6141
 2150TIP3   OH227864   5.140   3.212   2.625 -0.2899 -0.0426 -0.2272
 2150TIP3    H127865   5.180   3.140   2.577 -0.4374 -0.5407  0.3749
 2150TIP3    H227866   5.056   3.177   2.655 -1.3480  1.0857 -1.7390
 2151TIP3   OH227867   6.630   3.343  12.544  0.4521 -0.6744 -0.0835
 2151TIP3    H127868   6.685   3.306  12.614 -2.8073 -0.0505  3.1054
 2151TIP3    H227869   6.670   3.428  12.525  0.5040 -0.0732  2.3710
 2152TIP3   OH227870   3.093   5.846   0.766 -0.0075 -0.2264  0.3063
 2152TIP3    H127871   3.179   5.843   0.725  0.2553 -0.3628  0.8663
 2152TIP3    H227872   3.095   5.777   0.832 -0.9597 -1.0346 -0.4799
 2153TIP3   OH227873   4.563   1.524   4.925  0.0496  0.3005  0.4250
 2153TIP3    H127874   4.575   1.442   4.973  0.1428  0.0255 -0.0624
 2153TIP3    H227875   4.650   1.547   4.893 -0.1031  0.1655 -0.1089
 2154TIP3   OH227876   3.655   1.407   3.464 -0.1620 -0.4493 -0.6148
 2154TIP3    H127877   3.662   1.319   3.501  1.8892 -0.3389 -0.5920
 2154TIP3    H227878   3.655   1.465   3.540  0.6194 -0.3708 -0.6603
 2155TIP3   OH227879   0.887   0.963  14.731 -0.4996  0.1448  0.1886
 2155TIP3    H127880   0.979   0.955  14.755  0.6072 -0.5259 -3.5978
 2155TIP3    H227881   0.886   1.034  14.666 -2.5244 -0.3477 -0.3707
 2156TIP3   OH227882   5.156   1.928   4.872  0.0558 -0.0720  0.2635
 2156TIP3    H127883   5.112   1.862   4.819 -0.2901  1.0136 -0.8594
 2156TIP3    H227884   5.124   1.914   4.961 -1.0321 -0.5653 -0.1964
 2157TIP3   OH227885   0.584   0.387  16.258 -0.2336 -0.5116 -0.0080
 2157TIP3    H127886   0.653   0.328  16.289  1.1491  0.9839 -0.1652
 2157TIP3    H227887   0.595   0.388  16.163  0.2601  0.6028  0.0559
 2158TIP3   OH227888   0.372   2.776   6.692  0.3704  0.3076  0.6790
 2158TIP3    H127889   0.410   2.780   6.604 -0.4544 -0.9687  0.2513
 2158TIP3    H227890   0.334   2.689   6.698 -0.3011  0.6739  2.0118
 2159TIP3   OH227891   5.486   1.435  12.527 -0.1821  0.3502  0.3129
 2159TIP3    H127892   5.495   1.500  12.457 -1.1836 -0.7890 -0.9232
 2159TIP3    H227893   5.445   1.482  12.599 -0.8211  1.1098 -0.5319
 2160TIP3   OH227894   6.456   0.742   5.480 -0.0025  0.5111 -0.2455
 2160TIP3    H127895   6.372   0.727   5.522 -0.7213  0.3455 -1.7008
 2160TIP3    H227896   6.521   0.716   5.546 -1.0573  1.0527  1.0512
 2161TIP3   OH227897   6.468   2.934   0.406  0.3348  0.1692 -0.4402
 2161TIP3    H127898   6.472   2.999   0.476 -0.2802 -0.7291  0.4535
 2161TIP3    H227899   6.380   2.898   0.410  0.4923 -0.3535 -1.2614
 2162TIP3   OH227900   0.929   3.231   6.675 -0.7690 -0.1545  0.1802
 2162TIP3    H127901   0.999   3.248   6.613 -1.3937 -0.8872 -0.7497
 2162TIP3    H227902   0.919   3.312   6.725 -0.5512  0.5863 -0.9691
 2163TIP3   OH227903   0.998   3.984   0.870 -0.0833  0.1908 -0.9792
 2163TIP3    H127904   0.941   4.033   0.811 -0.1178  0.0720 -1.0463
 2163TIP3    H227905   1.046   3.924   0.813 -1.2728 -1.0549 -0.7311
 2164TIP3   OH227906   1.331   5.664   0.660  0.2453 -0.0914  0.5532
 2164TIP3    H127907   1.285   5.591   0.700 -1.7803 -0.7933 -2.7519
 2164TIP3    H227908   1.262   5.720   0.624  1.8687  1.4023 -0.4135
 2165TIP3   OH227909   5.499   3.239  13.575  0.0748  0.3994 -0.2169
 2165TIP3    H127910   5.508   3.312  13.513 -0.1427  0.1844 -0.5056
 2165TIP3    H227911   5.585   3.233  13.618  0.2004  0.6060 -0.4394
 2166TIP3   OH227912   0.970   2.886   2.032 -0.0396  0.6321  0.0944
 2166TIP3    H127913   1.020   2.966   2.044  0.2248  0.3081  1.1972
 2166TIP3    H227914   0.919   2.902   1.952  0.3588  1.7092  0.0397
 2167TIP3   OH227915   1.665   1.361  12.790 -0.8033  0.1803  0.2278
 2167TIP3    H127916   1.696   1.271  12.802 -1.1963 -0.0018 -0.0941
 2167TIP3    H227917   1.610   1.378  12.866 -2.1299 -0.4669 -0.5539
 2168TIP3   OH227918   0.640   4.845  11.734  0.0571 -0.7081  0.0452
 2168TIP3    H127919   0.604   4.914  11.678 -0.6063 -1.7530 -0.8515
 2168TIP3    H227920   0.690   4.892  11.801 -0.1151  0.6208 -0.7285
 2169TIP3   OH227921   1.349   6.564   0.120 -0.0436  0.1286  0.6648
 2169TIP3    H127922   1.382   6.513   0.193  2.2557  0.9595  0.3107
 2169TIP3    H227923   1.351   6.654   0.150 -0.7020  0.3314  0.1361
 2170TIP3   OH227924   1.652   4.535   1.006 -0.3877  0.3704  0.3079
 2170TIP3    H127925   1.584   4.469   1.020  0.2010 -0.6827 -1.5111
 2170TIP3    H227926   1.622   4.611   1.056 -2.0691 -0.6154  0.8750
 2171TIP3   OH227927   3.445   3.215   0.588 -0.0079  0.2509  0.4086
 2171TIP3    H127928   3.397   3.288   0.626 -0.7453 -0.4076  0.7645
 2171TIP3    H227929   3.382   3.172   0.530  0.3679 -0.2022  0.3290
 2172TIP3   OH227930   0.398   1.712  12.982 -0.0720 -0.2411  0.6563
 2172TIP3    H127931   0.329   1.777  12.995  0.0394  0.2044 -0.7488
 2172TIP3    H227932   0.393   1.655  13.058 -0.1134  1.4701  1.9790
 2173TIP3   OH227933   4.010   4.979  12.439  0.4193 -0.5047 -0.2562
 2173TIP3    H127934   4.078   4.912  12.441  1.3708  0.4180  1.8144
 2173TIP3    H227935   3.934   4.937  12.480  1.5307  0.0506  2.6691
 2174TIP3   OH227936   2.169   1.352  16.242  0.2386  0.3125 -0.1121
 2174TIP3    H127937   2.099   1.390  16.188 -0.8889 -0.8415  0.4727
 2174TIP3    H227938   2.182   1.264  16.206  0.8658  0.2480  0.2629
 2175TIP3   OH227939   3.841   1.568   4.263  0.2539 -0.0725  0.8277
 2175TIP3    H127940   3.804   1.558   4.350 -0.1928 -0.0150  0.6481
 2175TIP3    H227941   3.865   1.661   4.257  3.6235 -0.7098  2.1856
 2176TIP3   OH227942   3.598   3.045  12.529  0.1130 -0.2361  0.5306
 2176TIP3    H127943   3.622   3.097  12.453 -1.8156 -0.5935 -0.3824
 2176TIP3    H227944   3.531   3.097  12.573 -1.0290 -1.3888  0.2273
 2177TIP3   OH227945   6.208   0.205   6.098 -0.0813  0.8614 -0.3032
 2177TIP3    H127946   6.258   0.159   6.030  1.0353  0.0749  0.9948
 2177TIP3    H227947   6.116   0.191   6.074  0.2611 -0.6739 -0.8452
 2178TIP3   OH227948   2.591   6.038   4.026  0.0199  0.1312 -0.2050
 2178TIP3    H127949   2.634   5.959   4.058 -1.1463 -0.5591 -0.2712
 2178TIP3    H227950   2.651   6.074   3.961  1.8981  0.9064  1.8310
 2179TIP3   OH227951   1.787   5.481  14.655  0.4377 -0.6624  0.5130
 2179TIP3    H127952   1.843   5.512  14.727  0.3277  1.5630 -0.2993
 2179TIP3    H227953   1.698   5.495  14.687  0.3128 -2.3272  1.0048
 2180TIP3   OH227954   0.717   1.450   3.489  0.3601  1.2391 -0.2112
 2180TIP3    H127955   0.673   1.430   3.406  1.4845  0.8937 -0.7453
 2180TIP3    H227956   0.681   1.386   3.551  0.4277  0.6633 -0.7505
 2181TIP3   OH227957   3.455   5.362  13.936  0.4893 -0.1046  0.0990
 2181TIP3    H127958   3.374   5.412  13.939  0.3865 -0.2767  3.1290
 2181TIP3    H227959   3.431   5.275  13.966  1.8645  0.0871  1.9754
 2182TIP3   OH227960   4.564   1.088   2.132 -0.1285 -0.0107 -0.1958
 2182TIP3    H127961   4.618   1.162   2.102  0.7342 -0.5139  0.1032
 2182TIP3    H227962   4.540   1.111   2.221 -0.2666  0.1301 -0.2678
 2183TIP3   OH227963   5.932   6.088   4.264 -0.2415 -0.1864  0.6684
 2183TIP3    H127964   5.922   6.132   4.348 -1.4611 -0.3831  0.6472
 2183TIP3    H227965   6.026   6.075   4.254  0.1089  1.7404  1.0240
 2184TIP3   OH227966   0.145   5.494   3.002 -0.3650  0.5557  0.4320
 2184TIP3    H127967   0.134   5.553   2.928 -0.4008 -0.6696 -0.5847
 2184TIP3    H227968   0.080   5.523   3.066 -2.1296  0.0970 -1.0639
 2185TIP3   OH227969   2.497   2.948   0.908  0.0482 -0.0187  0.2337
 2185TIP3    H127970   2.448   3.003   0.846  0.4375  1.5232  1.2453
 2185TIP3    H227971   2.450   2.864   0.907  0.5475 -0.3925 -2.7987
 2186TIP3   OH227972   5.275   0.138   4.211  0.4427  0.6588 -0.2670
 2186TIP3    H127973   5.186   0.171   4.215  0.6302  1.1239  0.3985
 2186TIP3    H227974   5.326   0.201   4.262  1.0279  0.0170 -0.0295
 2187TIP3   OH227975   0.136   0.059   1.210  0.3368 -0.8788  0.3130
 2187TIP3    H127976   0.117  -0.031   1.183 -0.6900 -0.6969  0.3635
 2187TIP3    H227977   0.206   0.088   1.152 -2.0406 -0.3656 -2.5823
 2188TIP3   OH227978   0.678   6.320  16.599  0.4961 -0.3609  0.3200
 2188TIP3    H127979   0.750   6.317  16.536 -0.0990 -2.1424 -0.3285
 2188TIP3    H227980   0.613   6.376  16.557  1.2730  0.8992  0.7159
 2189TIP3   OH227981   1.116   1.878  16.804 -0.2145  0.2235  0.1785
 2189TIP3    H127982   1.093   1.869  16.897 -0.6628  1.4815  0.2115
 2189TIP3    H227983   1.210   1.895  16.804  0.1811 -1.7181  0.2509
 2190TIP3   OH227984   4.194   4.167  13.190 -0.2902  0.0948  0.2342
 2190TIP3    H127985   4.244   4.109  13.247  0.1749 -2.5296 -2.5703
 2190TIP3    H227986   4.208   4.131  13.102 -0.7345  3.9968 -1.6290
 2191TIP3   OH227987   0.024   3.236   1.133 -0.3665  0.0680 -0.4515
 2191TIP3    H127988   0.034   3.159   1.189  0.1861  0.1816 -0.3912
 2191TIP3    H227989   0.099   3.233   1.074 -0.7605  0.1351 -0.9651
 2192TIP3   OH227990   3.473   1.888   2.580 -0.1500  0.2322  0.9607
 2192TIP3    H127991   3.558   1.929   2.567  0.0698 -0.2303  0.8982
 2192TIP3    H227992   3.482   1.802   2.538 -0.3302 -0.2036  1.8018
 2193TIP3   OH227993   2.590   2.883  11.709 -0.1089  0.1709  0.1731
 2193TIP3    H127994   2.656   2.817  11.730 -2.2428 -2.7391 -1.6484
 2193TIP3    H227995   2.532   2.884  11.785  0.5235  0.8212  0.6648
 2194TIP3   OH227996   4.864   1.689  16.595  0.5386  0.1789  0.4116
 2194TIP3    H127997   4.940   1.634  16.576  0.1675 -0.3273  0.3721
 2194TIP3    H227998   4.798   1.660  16.532  0.3493  0.6904  0.3774
 2195TIP3   OH227999   5.857   1.065   2.816 -0.0257 -0.2817  0.3131
 2195TIP3    H128000   5.772   1.067   2.860 -2.3873 -0.7938 -3.7707
 2195TIP3    H228001   5.872   1.156   2.790 -0.9262 -0.6109 -1.5293
 2196TIP3   OH228002   6.549   0.478  16.130 -0.0055  0.0291  0.2267
 2196TIP3    H128003   6.569   0.468  16.223  2.7956  0.0194 -0.2765
 2196TIP3    H228004   6.536   0.573  16.119  2.2537  0.4209  0.2966
 2197TIP3   OH228005   5.827   2.504   6.652  0.3567 -0.1062  0.2713
 2197TIP3    H128006   5.746   2.553   6.637  0.6894  0.6896  0.9811
 2197TIP3    H228007   5.818   2.426   6.597 -0.5797  0.3103 -0.1986
 2198TIP3   OH228008   5.326   3.481   4.377 -0.4427 -0.2996 -0.1675
 2198TIP3    H128009   5.286   3.415   4.321  1.6228 -1.5670 -0.2470
 2198TIP3    H228010   5.420   3.466   4.368  0.0374  1.7152  0.9748
 2199TIP3   OH228011   2.993   3.277   1.571  0.1881  0.2126  0.4907
 2199TIP3    H128012   3.074   3.230   1.551  0.2870  0.3015  0.6727
 2199TIP3    H228013   2.948   3.220   1.633 -0.2802 -0.2251 -0.2451
 2200TIP3   OH228014   5.280   3.184   0.153  0.2811 -0.0168  0.4926
 2200TIP3    H128015   5.240   3.097   0.157  1.6608 -0.7041 -0.1594
 2200TIP3    H228016   5.331   3.190   0.234  1.6958 -0.6045 -0.3211
 2201TIP3   OH228017   6.197   5.446  12.290 -0.8289  0.3268  0.3382
 2201TIP3    H128018   6.132   5.391  12.335 -0.5731 -0.9299 -0.7713
 2201TIP3    H228019   6.255   5.477  12.360 -0.4245 -1.5997  0.9178
 2202TIP3   OH228020   0.087   6.252  13.148  0.0990  0.0902 -0.0487
 2202TIP3    H128021   0.070   6.160  13.127  1.6791 -0.0771 -0.6947
 2202TIP3    H228022   0.111   6.292  13.065 -2.5749  1.6407 -0.2056
 2203TIP3   OH228023   5.282   1.033  12.040  0.2750 -0.2946  0.2686
 2203TIP3    H128024   5.367   1.076  12.027  0.6443 -0.3497  2.2459
 2203TIP3    H228025   5.234   1.092  12.097 -0.3931 -1.0467  0.4967
 2204TIP3   OH228026   6.159   4.870  16.279 -0.2426  0.1083  0.2246
 2204TIP3    H128027   6.139   4.779  16.257 -1.7672  0.6225 -0.6671
 2204TIP3    H228028   6.128   4.920  16.204 -1.0157  1.5150  1.4304
 2205TIP3   OH228029   2.929   4.211  16.513 -0.1361  0.0126  0.0082
 2205TIP3    H128030   2.855   4.260  16.549  0.4138  1.2938 -0.5666
 2205TIP3    H228031   2.992   4.207  16.585 -0.6081 -0.7855  0.3899
 2206TIP3   OH228032   1.556   5.683  14.707 -0.2659  0.8949  0.0814
 2206TIP3    H128033   1.626   5.741  14.679 -0.3556  0.5537 -0.8862
 2206TIP3    H228034   1.503   5.670  14.629 -0.4876 -0.1443  0.3892
 2207TIP3   OH228035   2.317   0.698  12.307  0.1017 -0.0115  0.5298
 2207TIP3    H128036   2.232   0.655  12.318  0.9924 -1.8464  0.6509
 2207TIP3    H228037   2.364   0.642  12.245  0.9847  1.3505 -0.0531
 2208TIP3   OH228038   0.925   6.599   2.193 -0.4774 -0.6713 -0.3272
 2208TIP3    H128039   0.895   6.520   2.237  0.2846 -0.2587  1.0052
 2208TIP3    H228040   0.985   6.640   2.256  1.2435 -0.4087 -2.0444
 2209TIP3   OH228041   3.118   0.739  10.986  0.1447  0.1343  0.0223
 2209TIP3    H128042   3.113   0.672  10.918 -1.0864  0.1580  0.0600
 2209TIP3    H228043   3.195   0.791  10.963 -0.5280  0.4578 -1.6535
 2210TIP3   OH228044   4.780   2.533   1.802 -0.1397  0.6790 -0.1706
 2210TIP3    H128045   4.775   2.487   1.719 -1.6255 -3.7036  2.0600
 2210TIP3    H228046   4.698   2.582   1.808  0.3287  1.6760 -1.5260
 2211TIP3   OH228047   1.383   5.220  14.961 -0.4635  0.3461  0.0335
 2211TIP3    H128048   1.442   5.264  14.900  0.0037  0.9914  0.9204
 2211TIP3    H228049   1.296   5.249  14.934 -0.4316 -0.8285 -1.4563
 2212TIP3   OH228050   6.418   2.177   5.323 -0.5440 -0.0897 -0.1613
 2212TIP3    H128051   6.454   2.238   5.259  2.1603 -1.5961 -0.2013
 2212TIP3    H228052   6.324   2.198   5.326  0.2852  4.6513  0.5368
 2213TIP3   OH228053   1.361   2.688   3.253 -0.1722 -0.3428  0.6973
 2213TIP3    H128054   1.418   2.613   3.270 -0.4967 -1.1767 -1.4869
 2213TIP3    H228055   1.356   2.693   3.157 -4.3050 -0.7660  0.7035
 2214TIP3   OH228056   6.449   1.577  17.091  0.4472  0.3527 -0.3190
 2214TIP3    H128057   6.359   1.593  17.064  0.9983  0.4782 -2.2297
 2214TIP3    H228058   6.456   1.619  17.177 -1.7457 -1.0789  0.6586
 2215TIP3   OH228059   6.234   6.071   5.657 -0.2321 -0.0171  0.7514
 2215TIP3    H128060   6.182   6.054   5.736 -1.9242  0.4411 -0.2162
 2215TIP3    H228061   6.206   6.003   5.595 -1.8397  1.8789 -0.7397
 2216TIP3   OH228062   5.075   5.053  11.479  0.1515 -0.1620  0.0578
 2216TIP3    H128063   5.120   5.134  11.457 -1.1964  0.4962 -0.3702
 2216TIP3    H228064   5.017   5.036  11.405 -0.8074 -0.6045  0.8880
 2217TIP3   OH228065   3.604   2.793  13.641  0.3034  0.0072  0.4418
 2217TIP3    H128066   3.515   2.813  13.611  1.1007  2.0460 -0.8116
 2217TIP3    H228067   3.618   2.702  13.617 -1.5525 -0.4425  0.9588
 2218TIP3   OH228068   2.064   3.604  13.013 -0.0497  0.0934  0.5358
 2218TIP3    H128069   2.139   3.642  12.967 -0.1142 -1.8388 -1.2928
 2218TIP3    H228070   2.095   3.592  13.103  0.3879  3.1294  0.8961
 2219TIP3   OH228071   5.890   1.204   1.371  0.6890  0.3164  0.7175
 2219TIP3    H128072   5.895   1.240   1.282 -0.4846 -0.9105  0.1299
 2219TIP3    H228073   5.942   1.124   1.368  0.1209 -0.0670  0.9637
 2220TIP3   OH228074   2.440   5.275  14.728  0.0345 -0.1115  0.2715
 2220TIP3    H128075   2.532   5.277  14.753  0.1661 -1.9313  0.0251
 2220TIP3    H228076   2.432   5.200  14.669 -1.2694  1.0651 -1.1497
 2221TIP3   OH228077   4.075   0.320  15.244 -0.4661 -0.1209  0.0064
 2221TIP3    H128078   4.162   0.290  15.271 -0.1450  0.2943 -0.5634
 2221TIP3    H228079   4.072   0.412  15.271 -0.3484  0.1470 -0.8566
 2222TIP3   OH228080   1.208   4.715  13.474 -0.1614 -0.1942 -0.1918
 2222TIP3    H128081   1.144   4.781  13.447  0.2324  0.5890  0.7390
 2222TIP3    H228082   1.208   4.718  13.570  0.2209 -1.2082 -0.1410
 2223TIP3   OH228083   4.019   2.959   4.867 -0.2356 -0.4837 -0.1867
 2223TIP3    H128084   4.076   2.912   4.807  0.1544  1.2809 -1.2722
 2223TIP3    H228085   3.932   2.921   4.854 -0.0674 -0.4192 -1.5715
 2224TIP3   OH228086   4.745   3.697   6.549  0.1101 -0.1612 -0.2266
 2224TIP3    H128087   4.733   3.789   6.529 -3.0199  0.2105  2.6080
 2224TIP3    H228088   4.669   3.653   6.510  0.1614 -1.1333  0.7124
 2225TIP3   OH228089   0.311   0.035   4.386 -0.4662  0.0310  0.5620
 2225TIP3    H128090   0.266   0.096   4.445  0.3455  1.0440  0.1726
 2225TIP3    H228091   0.274   0.053   4.300  1.5476  1.8468 -0.0113
 2226TIP3   OH228092   2.107   3.559   1.438 -0.2481 -0.0985 -0.2714
 2226TIP3    H128093   2.027   3.601   1.407 -1.4782 -1.1714  1.3469
 2226TIP3    H228094   2.106   3.472   1.398 -0.0035 -0.1848 -0.0934
 2227TIP3   OH228095   6.251   0.041   5.053 -0.4561  0.4132  0.0783
 2227TIP3    H128096   6.317   0.101   5.089 -0.3355  0.0524  0.4664
 2227TIP3    H228097   6.302  -0.034   5.022 -0.7165 -0.1072  0.8663
 2228TIP3   OH228098   1.087   4.218   5.937  0.2380  0.4168  0.4682
 2228TIP3    H128099   1.118   4.259   6.018 -1.1483  0.0176  1.2441
 2228TIP3    H228100   1.164   4.177   5.899  1.0987  1.3919  1.1112
 2229TIP3   OH228101   4.394   1.124  11.216  0.1418 -0.0603  0.2955
 2229TIP3    H128102   4.325   1.146  11.153  0.4953 -2.1666 -0.9006
 2229TIP3    H228103   4.369   1.038  11.250  1.4579 -0.2243  0.9098
 2230TIP3   OH228104   1.872   4.768  14.473  0.0891 -0.4136 -0.3078
 2230TIP3    H128105   1.853   4.811  14.390 -1.1499  0.2945  0.3078
 2230TIP3    H228106   1.786   4.757  14.514  0.5938 -1.5248  0.5160
 2231TIP3   OH228107   1.479   0.575   1.362  0.1967 -0.3964 -0.2411
 2231TIP3    H128108   1.491   0.562   1.268  0.4115 -1.0788 -0.1250
 2231TIP3    H228109   1.402   0.524   1.384 -0.9025  1.1526 -0.3459
 2232TIP3   OH228110   2.548   5.760  15.241  0.6963  0.1457 -0.3411
 2232TIP3    H128111   2.500   5.841  15.224  0.6214 -0.0390 -1.0261
 2232TIP3    H228112   2.488   5.690  15.213  1.6462 -0.0650 -1.9732
 2233TIP3   OH228113   4.557   5.853   0.857 -0.7363  0.2689 -0.5355
 2233TIP3    H128114   4.594   5.856   0.769 -0.5114 -1.9510 -0.5863
 2233TIP3    H228115   4.631   5.869   0.915 -0.6408  0.5213 -0.7256
 2234TIP3   OH228116   2.090   1.886  13.929 -0.3959 -0.1497  0.1999
 2234TIP3    H128117   2.139   1.816  13.888 -0.0241  0.1775  0.0788
 2234TIP3    H228118   2.117   1.884  14.021 -0.1310  0.0425  0.1299
 2235TIP3   OH228119   1.174   5.048  13.039  0.2127  0.3984 -0.5384
 2235TIP3    H128120   1.128   4.996  13.104  0.7670  0.0870 -0.3865
 2235TIP3    H228121   1.183   4.990  12.964  1.2522  0.1057 -0.1962
 2236TIP3   OH228122   0.798   2.582   6.693 -0.0456  0.0877 -0.0952
 2236TIP3    H128123   0.878   2.544   6.656  0.9990  0.6933  1.4394
 2236TIP3    H228124   0.823   2.671   6.717 -2.0026  1.3392 -2.1905
 2237TIP3   OH228125   4.899   3.418   1.257 -0.8753  0.4080  0.7578
 2237TIP3    H128126   4.854   3.458   1.182 -0.1681  0.6488  0.4483
 2237TIP3    H228127   4.853   3.336   1.272 -0.0015 -0.4541 -1.0115
 2238TIP3   OH228128   6.671   1.568   4.678 -0.3517 -0.5576  0.0579
 2238TIP3    H128129   6.702   1.633   4.615 -0.2972 -0.5171  0.1266
 2238TIP3    H228130   6.656   1.618   4.759  1.9182 -1.0162  0.8318
 2239TIP3   OH228131   3.392   6.495  15.149 -0.3772  0.3180  0.4126
 2239TIP3    H128132   3.304   6.462  15.166  0.1991 -0.2271  2.6679
 2239TIP3    H228133   3.448   6.418  15.153  0.3570  0.8319  0.2602
 2240TIP3   OH228134   5.059   2.293   4.059 -0.0165  0.1983 -0.2612
 2240TIP3    H128135   5.068   2.376   4.105  0.4118  0.2688 -0.4646
 2240TIP3    H228136   5.070   2.316   3.967  0.3506 -0.1177 -0.2986
 2241TIP3   OH228137   2.832   0.815  13.625 -0.4610 -0.0871  0.7367
 2241TIP3    H128138   2.894   0.887  13.634  1.1483 -1.1517 -1.0423
 2241TIP3    H228139   2.759   0.853  13.577  0.7514  0.2153 -0.9596
 2242TIP3   OH228140   1.347   0.926  17.052  0.3954  0.2382  0.4185
 2242TIP3    H128141   1.384   0.923  16.963  1.8738  2.3356  0.8928
 2242TIP3    H228142   1.253   0.919  17.039  0.5986  0.2405 -1.2909
 2243TIP3   OH228143   2.339   0.852  11.596  0.5446  0.2652  0.0351
 2243TIP3    H128144   2.268   0.883  11.540  0.6849 -0.2594 -0.4527
 2243TIP3    H228145   2.397   0.805  11.536  3.1719  3.5852 -0.3304
 2244TIP3   OH228146   0.635   5.490  13.114 -0.0632  0.1033 -0.1213
 2244TIP3    H128147   0.581   5.457  13.186 -1.1115  1.2304 -0.3565
 2244TIP3    H228148   0.589   5.464  13.035  0.8342 -0.7058 -0.4002
 2245TIP3   OH228149   3.717   2.534  14.439  0.6904  0.1038 -0.4618
 2245TIP3    H128150   3.708   2.439  14.431  0.5603 -0.1449  2.0019
 2245TIP3    H228151   3.644   2.569  14.388 -1.6132 -1.2664  1.6973
 2246TIP3   OH228152   2.774   2.740   1.782  0.2475  0.0452  0.6054
 2246TIP3    H128153   2.691   2.786   1.770 -0.1151 -0.3697  1.4687
 2246TIP3    H228154   2.823   2.794   1.844  0.7350  0.4136 -0.0795
 2247TIP3   OH228155   5.798   4.939  11.296  0.0099 -0.0733  0.4122
 2247TIP3    H128156   5.746   4.880  11.241  1.0894 -0.6774 -0.0033
 2247TIP3    H228157   5.799   5.021  11.248 -0.9477  0.1023  0.6649
 2248TIP3   OH228158   3.440   3.543   3.440 -0.1443  0.3853 -0.3606
 2248TIP3    H128159   3.510   3.591   3.395 -0.3360  0.8464 -0.1717
 2248TIP3    H228160   3.451   3.453   3.411  0.8355  0.3617  0.0338
 2249TIP3   OH228161   3.162   4.115  15.081  0.2869  0.5437 -0.2397
 2249TIP3    H128162   3.066   4.118  15.088  0.2776  0.1831 -0.2284
 2249TIP3    H228163   3.187   4.031  15.119  0.7352  1.2713  1.1704
 2250TIP3   OH228164   3.037   4.909   4.952 -0.2939  0.5939 -0.3155
 2250TIP3    H128165   2.949   4.921   4.918 -0.0988  1.6619 -0.5066
 2250TIP3    H228166   3.055   4.990   5.000  0.7105  0.5561 -0.5941
 2251TIP3   OH228167   1.474   4.219  17.002 -0.1895 -0.3648 -0.1513
 2251TIP3    H128168   1.550   4.163  16.987 -0.5925 -0.9652 -0.0166
 2251TIP3    H228169   1.492   4.264  17.084  0.8082  0.8587 -1.0057
 2252TIP3   OH228170   1.137   1.459  10.978  0.1403  0.1668  0.0949
 2252TIP3    H128171   1.130   1.410  10.896  1.0241  1.4616 -0.7813
 2252TIP3    H228172   1.074   1.530  10.969  0.6240  0.6259  0.3294
 2253TIP3   OH228173   5.230   0.109  15.017  0.1535 -0.3077  0.1133
 2253TIP3    H128174   5.325   0.119  15.027 -0.0436  2.0638  0.1565
 2253TIP3    H228175   5.206   0.047  15.086  1.4398  0.5920  1.4520
 2254TIP3   OH228176   0.332   4.582  12.560 -0.2184  0.0135  0.1573
 2254TIP3    H128177   0.306   4.669  12.529  0.2283  0.1348  0.1072
 2254TIP3    H228178   0.412   4.562  12.509 -1.0885 -1.0257 -0.8688
 2255TIP3   OH228179   2.991   6.610   3.295  0.0230 -0.1809 -0.5111
 2255TIP3    H128180   3.005   6.516   3.306 -0.4766 -0.6121 -2.9933
 2255TIP3    H228181   2.900   6.624   3.320  0.2652 -0.2159  0.4396
 2256TIP3   OH228182   1.515   2.796   0.336  0.3248  0.4112  0.6731
 2256TIP3    H128183   1.506   2.881   0.379  0.2732  0.4156  0.6539
 2256TIP3    H228184   1.565   2.743   0.398  1.2716  0.7743  0.2360
 2257TIP3   OH228185   5.110   0.385   1.637 -0.0286 -0.0890 -0.1358
 2257TIP3    H128186   5.143   0.353   1.721 -1.3609  0.2229  0.5363
 2257TIP3    H228187   5.050   0.456   1.660 -3.4816 -2.4719 -0.9836
 2258TIP3   OH228188   6.364   4.981   2.217 -0.2201 -0.6472  0.1978
 2258TIP3    H128189   6.400   5.054   2.167  0.7760 -0.7714  0.7128
 2258TIP3    H228190   6.377   5.006   2.309  0.2256 -1.5065  0.3812
 2259TIP3   OH228191   0.808   5.324   2.519 -0.1101  0.5529 -0.3443
 2259TIP3    H128192   0.767   5.238   2.513 -0.0422  0.5633 -1.0428
 2259TIP3    H228193   0.816   5.354   2.428  2.2082  0.2016 -0.3288
 2260TIP3   OH228194   2.278   5.581   4.731  0.4257 -0.2401 -0.3289
 2260TIP3    H128195   2.312   5.610   4.816  2.2982 -3.3005  0.0948
 2260TIP3    H228196   2.195   5.538   4.752  1.2228 -1.6133  0.1010
 2261TIP3   OH228197   5.984   5.913  11.107  0.0926 -0.2075  0.9242
 2261TIP3    H128198   6.061   5.966  11.089 -1.2697  1.9019  0.9289
 2261TIP3    H228199   5.989   5.894  11.201  1.1039 -0.9511  0.7260
 2262TIP3   OH228200   0.231   0.216  13.439 -0.5751 -0.3563 -0.3211
 2262TIP3    H128201   0.164   0.161  13.480 -1.3090  0.7488  0.0140
 2262TIP3    H228202   0.288   0.242  13.510 -1.1768  0.6116 -0.1604
 2263TIP3   OH228203   6.720   4.271  14.821 -0.4295  0.2106  0.8402
 2263TIP3    H128204   6.701   4.358  14.856 -0.5485 -0.2526  1.9428
 2263TIP3    H228205   6.696   4.277  14.728  1.9235  2.0952  0.2426
 2264TIP3   OH228206   6.224   3.360   2.277 -0.2341  0.6072 -0.2426
 2264TIP3    H128207   6.281   3.396   2.346  0.2244  0.6805 -0.6511
 2264TIP3    H228208   6.262   3.275   2.256  0.5323  1.2125 -1.4449
 2265TIP3   OH228209   1.436   1.702  16.212  0.0598 -0.2780 -0.1267
 2265TIP3    H128210   1.389   1.629  16.170 -0.4188 -0.9202  1.4302
 2265TIP3    H228211   1.526   1.692  16.183  0.0732 -1.7301  0.3220
 2266TIP3   OH228212   6.051   5.612   2.961  0.2982 -0.5027 -0.0493
 2266TIP3    H128213   6.140   5.641   2.940 -0.1822  0.3051 -1.0640
 2266TIP3    H228214   6.013   5.588   2.877 -0.6893 -0.1358  0.2772
 2267TIP3   OH228215   2.835   4.071   3.110  0.3043  0.0094  0.6787
 2267TIP3    H128216   2.920   4.034   3.132 -0.1263 -0.4937  1.5615
 2267TIP3    H228217   2.774   4.029   3.172 -0.7706 -0.5371 -0.6881
 2268TIP3   OH228218   4.782   2.011  13.961  0.6892  0.0913  0.1212
 2268TIP3    H128219   4.872   2.044  13.965  0.5515  0.7756 -1.5466
 2268TIP3    H228220   4.766   1.974  14.048  3.1175 -1.4509  0.0131
 2269TIP3   OH228221   2.098   5.675   5.541 -0.3630  1.0463  0.0486
 2269TIP3    H128222   2.106   5.745   5.476  1.6597  2.8085  2.0252
 2269TIP3    H228223   2.086   5.721   5.624 -0.5242 -1.0390  1.2527
 2270TIP3   OH228224   2.636   1.376  16.676  0.1450 -0.1965  0.1970
 2270TIP3    H128225   2.598   1.408  16.758  0.5514  0.5946  0.0908
 2270TIP3    H228226   2.695   1.305  16.703 -0.1558 -0.3251  0.5275
 2271TIP3   OH228227   4.035   0.954   1.620  0.0548 -0.4047  0.2951
 2271TIP3    H128228   4.041   0.963   1.525 -0.0366 -0.2435  0.3060
 2271TIP3    H228229   4.115   0.907   1.644 -0.2691 -1.1007  0.0554
 2272TIP3   OH228230   3.406   3.434   2.644  0.0736 -0.1391 -0.4125
 2272TIP3    H128231   3.439   3.434   2.734 -1.7246 -0.9370  0.3058
 2272TIP3    H228232   3.392   3.526   2.623  0.2687  0.0416  0.2240
 2273TIP3   OH228233   3.698   2.285   2.278 -0.2287 -0.3758  0.3144
 2273TIP3    H128234   3.718   2.340   2.353 -1.1558 -0.7595  0.8603
 2273TIP3    H228235   3.779   2.237   2.260  0.6049  1.1674 -0.1937
 2274TIP3   OH228236   6.421   6.164   6.013  0.0990  0.1754 -0.2751
 2274TIP3    H128237   6.346   6.223   6.014 -0.1729 -0.1629 -0.3056
 2274TIP3    H228238   6.433   6.139   6.105  1.0078  1.2565 -0.0818
 2275TIP3   OH228239   2.559   0.008   5.846  0.1179 -0.7315  0.5284
 2275TIP3    H128240   2.512   0.051   5.916 -0.4376 -2.5072  1.2977
 2275TIP3    H228241   2.528  -0.083   5.847  2.2634 -1.5539 -0.0569
 2276TIP3   OH228242   4.976   5.151   0.050  0.4014 -0.2621 -0.5683
 2276TIP3    H128243   5.068   5.173   0.065  0.1094 -0.1215  1.3579
 2276TIP3    H228244   4.945   5.215  -0.013  0.5215  2.6592  2.1136
 2277TIP3   OH228245   2.722   0.651  11.632 -0.1755  0.1461  0.2784
 2277TIP3    H128246   2.816   0.660  11.620 -0.4012  0.6699 -1.4621
 2277TIP3    H228247   2.689   0.741  11.633 -0.6915 -0.0368  0.6027
 2278TIP3   OH228248   2.464   1.938  14.028 -0.7950  0.3470  0.4658
 2278TIP3    H128249   2.518   1.861  14.046 -2.2208 -1.8584 -3.3869
 2278TIP3    H228250   2.527   2.010  14.021  0.8909 -0.8983  1.8468
 2279TIP3   OH228251   1.351   0.477   2.981  0.6538  0.1074 -0.4027
 2279TIP3    H128252   1.416   0.446   3.045  1.2396  0.0195 -1.0289
 2279TIP3    H228253   1.301   0.543   3.028  1.2197  0.1955  0.0876
 2280TIP3   OH228254   3.387   5.631   1.291  0.6441 -0.4952  0.2124
 2280TIP3    H128255   3.350   5.709   1.331 -0.0360  0.0216 -1.3828
 2280TIP3    H228256   3.452   5.664   1.229 -1.1011 -1.0257 -2.0165
 2281TIP3   OH228257   3.759   0.717  16.229 -0.2344  0.5019  0.6286
 2281TIP3    H128258   3.752   0.644  16.291 -0.9282  1.6530  1.9547
 2281TIP3    H228259   3.679   0.768  16.242 -0.2685  0.9521 -1.0317
 2282TIP3   OH228260   5.047   6.671  13.360  0.0323 -0.3078  0.6571
 2282TIP3    H128261   4.986   6.597  13.367  0.9103 -1.0055  1.2238
 2282TIP3    H228262   5.102   6.663  13.438 -0.5791  1.6340  1.3283
 2283TIP3   OH228263   5.692   2.466  17.311  0.8228  0.1315  0.8388
 2283TIP3    H128264   5.777   2.449  17.271  0.8934 -1.4534  1.6080
 2283TIP3    H228265   5.649   2.526  17.250  2.4139  0.8304  0.3643
 2284TIP3   OH228266   5.905   6.421   1.169  0.2544 -0.3161 -0.7600
 2284TIP3    H128267   5.976   6.437   1.231  0.2527 -0.3901 -0.7391
 2284TIP3    H228268   5.923   6.481   1.097  0.3778 -0.3830 -0.7855
 2285TIP3   OH228269   3.339   5.927   5.278  0.1097 -0.5156 -0.7513
 2285TIP3    H128270   3.400   5.861   5.310 -1.0647 -0.2841  2.1863
 2285TIP3    H228271   3.384   6.011   5.292  0.2901 -0.4799 -1.4612
 2286TIP3   OH228272   5.318   1.875   5.257  0.0349  0.0651 -0.4517
 2286TIP3    H128273   5.392   1.817   5.272 -0.3186 -0.7641 -1.6699
 2286TIP3    H228274   5.355   1.950   5.209  0.0432 -0.5670 -1.4747
 2287TIP3   OH228275   6.394   4.206  14.906  1.1201  0.0921 -0.0308
 2287TIP3    H128276   6.463   4.150  14.940  0.3803 -0.4972  0.5435
 2287TIP3    H228277   6.377   4.172  14.818  0.6240 -0.6653  0.3416
 2288TIP3   OH228278   1.610   4.046   1.371  0.1187  0.1172  0.4816
 2288TIP3    H128279   1.590   4.065   1.463  0.2626 -2.4976  1.1440
 2288TIP3    H228280   1.702   4.020   1.371  0.3065  0.7256 -0.5347
 2289TIP3   OH228281   0.765   0.867  17.262  0.6125  0.4307 -0.0751
 2289TIP3    H128282   0.833   0.871  17.194 -0.5740  0.3247 -1.3181
 2289TIP3    H228283   0.685   0.846  17.214 -0.1055 -0.5920  1.4854
 2290TIP3   OH228284   6.086   2.888   2.721 -0.5194 -0.0678 -0.5855
 2290TIP3    H128285   6.002   2.924   2.750 -0.0978 -0.2773  1.0109
 2290TIP3    H228286   6.068   2.795   2.707 -0.3486 -0.3313  0.7835
 2291TIP3   OH228287   2.027   3.903   5.704 -0.4197  0.5666  0.3279
 2291TIP3    H128288   2.044   3.972   5.768  0.3401  0.9014 -0.2193
 2291TIP3    H228289   2.000   3.950   5.625 -1.2732  0.1618  0.3621
 2292TIP3   OH228290   6.582   5.061   4.745  0.2116  0.7072  0.9928
 2292TIP3    H128291   6.536   5.017   4.817  1.2682 -0.6260  0.8942
 2292TIP3    H228292   6.668   5.020   4.743  0.2857  0.8719 -0.8984
 2293TIP3   OH228293   6.223   2.161  14.705  0.3824 -0.1527 -0.1097
 2293TIP3    H128294   6.207   2.236  14.763  0.4525  0.9274 -1.4390
 2293TIP3    H228295   6.143   2.152  14.654  1.0357  0.2281 -1.2507
 2294TIP3   OH228296   1.249   5.839  16.980 -0.1791  0.2958  0.2690
 2294TIP3    H128297   1.220   5.910  16.923  1.0342  0.5940 -0.0119
 2294TIP3    H228298   1.299   5.882  17.049  1.9326 -0.3402 -0.7678
 2295TIP3   OH228299   3.223   6.258  11.444 -0.4460 -0.0475  0.5236
 2295TIP3    H128300   3.202   6.269  11.536  0.8804  0.3730  0.7961
 2295TIP3    H228301   3.238   6.346  11.412 -1.2976 -0.1536 -0.2188
 2296TIP3   OH228302   5.054   2.494   4.669 -0.1711 -0.8752  0.5248
 2296TIP3    H128303   5.131   2.550   4.654 -1.0752  0.3034  0.0802
 2296TIP3    H228304   5.046   2.490   4.764  1.2064 -2.1307  0.6210
 2297TIP3   OH228305   5.497   3.116   4.865  0.0727  0.3892  0.1578
 2297TIP3    H128306   5.513   3.178   4.936 -0.0619 -0.9099  1.3577
 2297TIP3    H228307   5.558   3.142   4.796  1.3806  0.6657  1.3882
 2298TIP3   OH228308   3.891   4.610   4.778 -0.2792 -0.3234 -0.0603
 2298TIP3    H128309   3.932   4.530   4.811  0.1020  0.0776  0.4395
 2298TIP3    H228310   3.964   4.664   4.748 -0.1384  1.4810  3.1354
 2299TIP3   OH228311   3.131   0.490   6.221  0.9170 -0.0256 -0.0421
 2299TIP3    H128312   3.072   0.462   6.151  0.6539  1.8993 -0.6594
 2299TIP3    H228313   3.079   0.485   6.301  0.6752 -0.5717 -0.2274
 2300TIP3   OH228314   1.045   1.625  11.552  0.0053  0.3720 -0.1198
 2300TIP3    H128315   0.961   1.618  11.505  0.2932 -1.3893 -0.4645
 2300TIP3    H228316   1.036   1.564  11.625  0.9687  0.1559 -0.1647
 2301TIP3   OH228317   2.559   6.583  11.097 -0.2174  0.2012 -0.4916
 2301TIP3    H128318   2.510   6.641  11.156 -1.5424 -1.8789  0.5916
 2301TIP3    H228319   2.493   6.522  11.064  1.1300 -0.7822 -1.4843
 2302TIP3   OH228320   3.589   0.832  16.617  0.1450 -0.3098 -0.3364
 2302TIP3    H128321   3.563   0.845  16.526  2.1416  0.8254 -0.8016
 2302TIP3    H228322   3.633   0.746  16.617 -0.1337 -0.4533 -0.3698
 2303TIP3   OH228323   2.218   1.909  16.316 -0.4714 -0.3123  0.2018
 2303TIP3    H128324   2.196   1.825  16.357 -2.0831 -0.9162 -1.7112
 2303TIP3    H228325   2.309   1.898  16.289 -0.4706 -1.2153  0.5252
 2304TIP3   OH228326   4.073   4.970  13.736  0.0765  0.0352  0.2842
 2304TIP3    H128327   4.088   5.021  13.815 -0.6294  0.9102 -0.1370
 2304TIP3    H228328   4.107   4.883  13.757 -0.5854  0.1043  1.7421
 2305TIP3   OH228329   3.529   6.260  15.155  0.4716  0.2856  0.0450
 2305TIP3    H128330   3.617   6.286  15.126  0.7756  0.3370  0.9711
 2305TIP3    H228331   3.536   6.165  15.168 -0.2184 -0.0747 -1.9021
 2306TIP3   OH228332   0.221   6.267  11.330  0.3492 -0.1295  0.7942
 2306TIP3    H128333   0.235   6.174  11.349  0.3593 -0.3159 -0.1135
 2306TIP3    H228334   0.210   6.272  11.235  1.7339  0.9714  0.6517
 2307TIP3   OH228335   6.648   0.672   4.603 -0.6732 -0.0193 -0.2434
 2307TIP3    H128336   6.641   0.756   4.648  1.7107 -0.9893  2.3006
 2307TIP3    H228337   6.572   0.622   4.632 -0.4075  0.2004  0.8755
 2308TIP3   OH228338   5.229   0.712  12.839 -0.1700  0.1642  0.0981
 2308TIP3    H128339   5.279   0.731  12.918  0.3642  1.5957 -0.5496
 2308TIP3    H228340   5.147   0.675  12.871  0.3043  0.1063  1.2861
 2309TIP3   OH228341   6.750   0.377   1.161  0.9558 -0.4967 -0.2188
 2309TIP3    H128342   6.729   0.287   1.185  1.8117 -1.2978 -2.2471
 2309TIP3    H228343   6.790   0.413   1.240  0.2225 -1.7463  0.7705
 2310TIP3   OH228344   2.446   5.226   3.135 -0.0049 -0.1963  0.0327
 2310TIP3    H128345   2.526   5.174   3.125  0.0132 -0.5423  1.6474
 2310TIP3    H228346   2.407   5.228   3.047  1.5694 -0.3306 -0.6960
 2311TIP3   OH228347   6.588   1.550   0.134 -0.5836 -0.0606 -0.1130
 2311TIP3    H128348   6.601   1.457   0.116 -0.6233  0.1205 -1.1612
 2311TIP3    H228349   6.521   1.578   0.071 -0.7033  0.6386  0.3089
 2312TIP3   OH228350   2.562   6.569  11.725 -0.1773 -0.2530  0.0747
 2312TIP3    H128351   2.533   6.645  11.676 -0.0827 -0.0428  0.3429
 2312TIP3    H228352   2.625   6.525  11.668 -0.7349 -0.5062 -0.3604
 2313TIP3   OH228353   6.760   0.345   4.799 -0.5979 -0.3805 -0.2607
 2313TIP3    H128354   6.754   0.255   4.829  0.1246 -0.3482  0.0238
 2313TIP3    H228355   6.853   0.357   4.779 -0.6574  0.3458 -0.1418
 2314TIP3   OH228356   4.105   6.772  14.099  0.5073  0.5440 -0.1442
 2314TIP3    H128357   4.036   6.713  14.129 -0.1923  1.6566  0.5000
 2314TIP3    H228358   4.093   6.776  14.004 -1.1908  1.7395  0.0720
 2315TIP3   OH228359   5.578   6.471  14.856 -0.2441  0.5622  0.0350
 2315TIP3    H128360   5.489   6.439  14.874 -0.9074  1.1487 -1.9423
 2315TIP3    H228361   5.602   6.429  14.773  1.5690  0.0097  0.7760
 2316TIP3   OH228362   4.422   4.057  12.664 -1.1534 -0.3560  1.4703
 2316TIP3    H128363   4.499   4.023  12.709 -1.2876 -0.1126  1.8967
 2316TIP3    H228364   4.355   3.989  12.675 -0.6450 -1.1140  0.0377
 2317TIP3   OH228365   4.372   6.293  13.949 -0.3091  0.5856  0.0213
 2317TIP3    H128366   4.282   6.299  13.982 -0.2296  1.9538  0.0572
 2317TIP3    H228367   4.400   6.384  13.939  0.8243  0.1841 -0.6883
 2318TIP3   OH228368   0.469   2.642  15.770 -0.2249 -0.2276 -0.2593
 2318TIP3    H128369   0.544   2.611  15.720  0.5508  1.0608  0.0452
 2318TIP3    H228370   0.448   2.570  15.830  0.7712 -0.6039 -0.3471
 2319TIP3   OH228371   2.663   5.175   3.489  0.3269 -0.1274  0.4957
 2319TIP3    H128372   2.588   5.223   3.455  1.0039 -0.7613 -2.1120
 2319TIP3    H228373   2.637   5.150   3.578 -2.1439  0.4818  0.0196
 2320TIP3   OH228374   4.893   0.168  15.330 -0.1401  0.2583  0.7578
 2320TIP3    H128375   4.855   0.160  15.417 -0.8273 -0.8087  0.3765
 2320TIP3    H228376   4.818   0.169  15.270  0.3310  0.6598  0.1542
 2321TIP3   OH228377   1.171   4.400  12.840  0.0834 -0.2413  0.0734
 2321TIP3    H128378   1.132   4.432  12.759  3.2739 -0.1254 -1.5333
 2321TIP3    H228379   1.134   4.312  12.852 -0.9310  0.0054 -1.1006
 2322TIP3   OH228380   5.526   6.450   4.615  0.1851 -0.2387  0.0294
 2322TIP3    H128381   5.589   6.517   4.589  2.6748 -2.2189  0.6131
 2322TIP3    H228382   5.508   6.402   4.534  0.0167 -0.1548  0.0166
 2323TIP3   OH228383   5.332   4.185   4.911 -0.1385 -0.0076  0.0184
 2323TIP3    H128384   5.259   4.158   4.966  0.7853 -0.8942  0.8502
 2323TIP3    H228385   5.374   4.255   4.960  0.3781 -0.4496  0.2247
 2324TIP3   OH228386   2.365   5.232   5.102  0.2302 -0.1150 -0.9903
 2324TIP3    H128387   2.362   5.235   5.198 -1.3110 -0.1848 -1.0224
 2324TIP3    H228388   2.410   5.313   5.078 -2.1114  1.5156 -0.2841
 2325TIP3   OH228389   0.257   2.539  14.038  0.4611 -0.2136  0.0924
 2325TIP3    H128390   0.284   2.448  14.030  0.0199 -0.2926 -0.5627
 2325TIP3    H228391   0.334   2.584  14.073 -0.4458 -1.4986  4.3898
 2326TIP3   OH228392   4.166   3.458   1.088 -0.4171  0.4851  0.5513
 2326TIP3    H128393   4.126   3.545   1.085 -0.4503  0.5778  2.2355
 2326TIP3    H228394   4.109   3.403   1.035  0.2545  1.6889 -1.5535
 2327TIP3   OH228395   3.672   4.598  14.956 -0.0973  0.6099 -0.6444
 2327TIP3    H128396   3.685   4.686  14.920  0.6370 -0.0193 -2.0130
 2327TIP3    H228397   3.749   4.583  15.011  2.2138 -0.7802 -3.9201
 2328TIP3   OH228398   1.912   1.171  15.393 -0.5948  0.1107  0.4006
 2328TIP3    H128399   1.892   1.200  15.304 -1.1647 -1.2446  0.0604
 2328TIP3    H228400   1.998   1.131  15.387 -0.8064 -0.3458  0.3628
 2329TIP3   OH228401   3.832   0.732   3.652  0.7088 -0.8860 -0.0262
 2329TIP3    H128402   3.784   0.746   3.570  2.2120 -1.9217 -1.1665
 2329TIP3    H228403   3.766   0.739   3.721 -0.2178  2.3535 -1.1008
 2330TIP3   OH228404   5.699   6.564   2.998  0.2185  0.4849  0.0928
 2330TIP3    H128405   5.621   6.544   3.050 -1.3682  1.3990 -1.8041
 2330TIP3    H228406   5.702   6.495   2.931 -0.1883  1.5914 -1.1005
 2331TIP3   OH228407   0.569   0.396  15.992 -0.2679  0.7256  0.1772
 2331TIP3    H128408   0.651   0.364  15.954  0.5992  1.5378  1.2938
 2331TIP3    H228409   0.507   0.325  15.978  0.4673  0.3124 -1.1799
 2332TIP3   OH228410   0.322   5.373   5.241 -0.2533  0.4461 -0.4494
 2332TIP3    H128411   0.338   5.466   5.260  0.3288  0.6221 -1.6676
 2332TIP3    H228412   0.331   5.367   5.146 -1.2800 -0.6817 -0.4943
 2333TIP3   OH228413   2.238   6.619  12.304 -0.2738  0.0800 -0.4431
 2333TIP3    H128414   2.331   6.638  12.293 -0.4869  0.7836 -1.0847
 2333TIP3    H228415   2.233   6.570  12.386  0.6016  0.5000 -0.1311
 2334TIP3   OH228416   5.231   4.642  14.189 -0.2463 -0.1326 -0.2613
 2334TIP3    H128417   5.187   4.630  14.273 -1.2301 -1.2995 -0.9094
 2334TIP3    H228418   5.270   4.556  14.170  2.1442  0.7703  0.1531
 2335TIP3   OH228419   1.447   1.691   2.693 -0.1029  0.3917  0.4641
 2335TIP3    H128420   1.357   1.696   2.724  0.0744 -0.0738  1.0652
 2335TIP3    H228421   1.494   1.754   2.747 -0.0732  0.6886  0.1001
 2336TIP3   OH228422   3.099   3.619  16.943 -0.1518  0.4180  0.0081
 2336TIP3    H128423   3.042   3.660  16.877  1.2335 -0.9344 -2.1480
 2336TIP3    H228424   3.176   3.676  16.947  1.2923 -1.1859 -2.2006
 2337TIP3   OH228425   6.033   1.608   5.232 -0.8474  0.1846 -0.1184
 2337TIP3    H128426   6.096   1.537   5.243 -0.2185  0.9351  1.2355
 2337TIP3    H228427   5.974   1.577   5.163  1.1361 -0.4240 -1.6278
 2338TIP3   OH228428   0.213   3.169   6.645 -0.0404  0.5083  0.2695
 2338TIP3    H128429   0.294   3.205   6.608  0.0537 -1.9569 -2.2329
 2338TIP3    H228430   0.242   3.116   6.719  0.3279  1.3835  0.7800
 2339TIP3   OH228431   1.958   5.367  15.479  0.1842  0.2105  0.3563
 2339TIP3    H128432   1.909   5.379  15.561  1.3670 -0.6396  1.2212
 2339TIP3    H228433   1.910   5.420  15.415 -1.9037 -0.6481  1.1165
 2340TIP3   OH228434   1.263   5.680   3.397  0.0943 -0.3646 -0.3667
 2340TIP3    H128435   1.203   5.739   3.351  1.0923  1.1897  0.2359
 2340TIP3    H228436   1.263   5.600   3.345  0.3265  0.9233 -2.4458
 2341TIP3   OH228437   5.172   4.685  17.143  0.6766  0.6517 -0.4971
 2341TIP3    H128438   5.226   4.727  17.077  0.8412 -0.8632 -1.3629
 2341TIP3    H228439   5.108   4.634  17.094 -1.0776  1.7461  0.5064
 2342TIP3   OH228440   4.973   4.096   2.518 -0.1977 -0.3912 -0.2401
 2342TIP3    H128441   4.937   4.011   2.543 -2.0050  0.3342 -0.2193
 2342TIP3    H228442   4.963   4.100   2.423  1.0545 -0.6915 -0.3995
 2343TIP3   OH228443   5.819   4.420  12.195 -0.3062 -0.4932  0.0616
 2343TIP3    H128444   5.895   4.475  12.213  0.7663 -1.7814 -0.3229
 2343TIP3    H228445   5.787   4.449  12.110  0.7123 -0.9252 -0.4915
 2344TIP3   OH228446   2.951   6.058  12.096 -0.4431  0.2012 -0.5385
 2344TIP3    H128447   2.890   6.021  12.032 -0.5620 -1.2375  0.3555
 2344TIP3    H228448   3.029   6.002  12.089  0.8613  2.0506 -1.7179
 2345TIP3   OH228449   4.742   3.532   0.332 -0.0017  0.3065  0.3402
 2345TIP3    H128450   4.811   3.546   0.398 -0.3524 -1.4020  1.1140
 2345TIP3    H228451   4.726   3.619   0.296  1.5305  0.9777  1.1846
 2346TIP3   OH228452   5.579   4.901  12.340 -0.0263 -0.2030 -0.4038
 2346TIP3    H128453   5.609   4.811  12.350 -0.5911 -0.4368 -0.7785
 2346TIP3    H228454   5.529   4.918  12.420  0.8966  0.1149  0.1204
 2347TIP3   OH228455   6.737   5.741  14.914  0.5626  0.1653 -0.3958
 2347TIP3    H128456   6.774   5.811  14.860  1.1731  0.8872  0.8951
 2347TIP3    H228457   6.795   5.666  14.900  1.3014  0.6493  0.0043
 2348TIP3   OH228458   1.491   1.949  11.517 -0.1278  0.6803 -0.1331
 2348TIP3    H128459   1.516   1.858  11.535  2.2490  1.3784  0.4923
 2348TIP3    H228460   1.527   1.967  11.430  2.2567  1.8633  0.9915
 2349TIP3   OH228461   3.007   5.832   4.945  0.2286 -0.4073  0.1683
 2349TIP3    H128462   3.023   5.836   4.851  0.3035 -1.3209  0.1299
 2349TIP3    H228463   2.918   5.797   4.952 -0.5105  1.4399  0.4243
 2350TIP3   OH228464   5.657   4.835   4.479  1.0093  0.0793  0.5844
 2350TIP3    H128465   5.732   4.803   4.429  0.0728 -0.8044 -0.2816
 2350TIP3    H228466   5.595   4.763   4.479 -0.7580  1.5106 -0.6029
 2351TIP3   OH228467   2.283   3.497   2.026 -0.1848 -0.4017  0.1743
 2351TIP3    H128468   2.307   3.467   1.938  0.5473  0.2884  0.1254
 2351TIP3    H228469   2.268   3.591   2.016 -0.7301 -0.4334  0.6660
 2352TIP3   OH228470   2.297   2.364  13.667  0.3894 -0.2159  0.9593
 2352TIP3    H128471   2.228   2.325  13.720  0.0831 -0.7498  0.1855
 2352TIP3    H228472   2.293   2.317  13.584  0.5718  0.8963  0.3014
 2353TIP3   OH228473   6.463   6.465   2.736  0.3533  0.4548  0.3017
 2353TIP3    H128474   6.422   6.437   2.818  0.8611  0.6365  0.6267
 2353TIP3    H228475   6.496   6.553   2.755 -1.9697  1.6953 -0.9515
 2354TIP3   OH228476   3.893   0.405  11.580  0.2573  0.7683 -0.3587
 2354TIP3    H128477   3.904   0.327  11.526 -1.2778 -0.9304  1.6383
 2354TIP3    H228478   3.971   0.458  11.563  0.9244 -0.7737 -2.4020
 2355TIP3   OH228479   0.474   4.246   2.092 -0.2348 -0.0218 -0.2390
 2355TIP3    H128480   0.524   4.180   2.139  0.3730 -0.6267 -1.6652
 2355TIP3    H228481   0.383   4.226   2.112  0.0004 -0.1925  0.7257
 2356TIP3   OH228482   6.511   5.233   5.510  0.3086 -0.4297  0.2149
 2356TIP3    H128483   6.517   5.252   5.416  0.2164 -0.9529  0.0991
 2356TIP3    H228484   6.499   5.319   5.551  1.3736 -0.0821 -0.1618
 2357TIP3   OH228485   5.118   6.703   4.627 -0.0009 -0.2400  0.3397
 2357TIP3    H128486   5.078   6.662   4.704 -0.9195  0.2431  0.1277
 2357TIP3    H228487   5.188   6.758   4.663 -1.0443  0.7463  0.9385
 2358TIP3   OH228488   1.564   1.955  12.734 -0.4645  0.1701  0.3218
 2358TIP3    H128489   1.634   1.947  12.799  1.0392  0.2550 -1.2480
 2358TIP3    H228490   1.488   1.916  12.777  1.0053 -1.6983  1.3574
 2359TIP3   OH228491   0.986   1.414   2.644 -0.3598 -0.6639 -0.5188
 2359TIP3    H128492   0.951   1.330   2.613  0.0144 -0.4493 -1.5482
 2359TIP3    H228493   1.052   1.438   2.580 -0.4836  0.4438 -0.2521
 2360TIP3   OH228494   0.457   1.196  12.166 -0.4601  0.8043  0.9559
 2360TIP3    H128495   0.507   1.270  12.132  0.8843 -0.9414 -1.2126
 2360TIP3    H228496   0.380   1.191  12.110  0.8121 -0.9380 -0.8120
 2361TIP3   OH228497   0.331   0.371  11.609  0.1331  0.2620 -0.1978
 2361TIP3    H128498   0.389   0.301  11.639  1.0039  0.6056 -1.0615
 2361TIP3    H228499   0.306   0.417  11.689  0.4710 -0.3290  0.2556
 2362TIP3   OH228500   1.612   1.048   5.114  0.1309  0.6542 -0.5330
 2362TIP3    H128501   1.547   1.060   5.183 -0.3053 -1.4894 -0.4860
 2362TIP3    H228502   1.564   1.069   5.033  0.4560  2.5292 -0.2829
 2363TIP3   OH228503   5.395   6.689   5.003  0.0255  0.1397 -0.2341
 2363TIP3    H128504   5.341   6.658   5.076  0.0620 -1.6867 -0.9479
 2363TIP3    H228505   5.485   6.684   5.036 -0.0227  0.3736 -0.0560
 2364TIP3   OH228506   1.854   5.235  16.505 -0.2784  0.5088 -0.1585
 2364TIP3    H128507   1.920   5.175  16.471 -1.5906 -1.0456 -0.0386
 2364TIP3    H228508   1.833   5.202  16.592  0.0787  2.0717  0.5711
 2365TIP3   OH228509   2.306   3.119  12.311  0.0511 -0.3698 -0.8370
 2365TIP3    H128510   2.303   3.211  12.287  0.1113 -0.3916 -0.9286
 2365TIP3    H228511   2.303   3.119  12.407 -1.0727 -0.3204 -0.8602
 2366TIP3   OH228512   2.272   1.818   0.940  0.3416 -0.3037 -0.8852
 2366TIP3    H128513   2.336   1.794   1.007  0.4925  0.9188 -0.5746
 2366TIP3    H228514   2.202   1.753   0.950 -1.2027  1.5944  2.6673
 2367TIP3   OH228515   6.272   6.334  15.467 -0.7095 -0.0929 -0.0221
 2367TIP3    H128516   6.194   6.381  15.496 -0.2873 -0.2270  1.4106
 2367TIP3    H228517   6.322   6.398  15.415 -0.3300  0.9605  1.5699
 2368TIP3   OH228518   4.253   4.713  14.898  0.1303 -0.2848  0.2778
 2368TIP3    H128519   4.343   4.684  14.884 -0.2237 -1.3872  0.1625
 2368TIP3    H228520   4.221   4.657  14.968 -0.6086 -0.2024  0.0120
 2369TIP3   OH228521   6.226   1.256   0.217  0.9339 -0.1349 -0.2232
 2369TIP3    H128522   6.243   1.180   0.161  1.5037  0.9865 -1.6347
 2369TIP3    H228523   6.150   1.298   0.177 -0.4258 -0.8109  1.5052
 2370TIP3   OH228524   6.312   2.768  13.386 -0.3310  0.6181 -0.1267
 2370TIP3    H128525   6.384   2.790  13.445 -0.7144 -2.5548  1.7582
 2370TIP3    H228526   6.240   2.742  13.444 -1.1397 -1.5006 -1.9533
 2371TIP3   OH228527   3.617   6.739   4.141 -0.7417  0.5886 -0.3487
 2371TIP3    H128528   3.607   6.683   4.218  0.6516  1.3080  0.3954
 2371TIP3    H228529   3.609   6.828   4.174 -0.5905  0.8960 -1.1049
 2372TIP3   OH228530   1.918   1.975   4.487  0.1852 -0.1775 -0.0017
 2372TIP3    H128531   1.849   1.987   4.422  0.6450  0.5099 -0.3781
 2372TIP3    H228532   1.872   1.941   4.564 -0.4336 -0.5560 -0.5282
 2373TIP3   OH228533   2.855   6.320  11.508  0.3552  0.0966  0.0984
 2373TIP3    H128534   2.883   6.366  11.587 -0.5944 -1.0207  1.1503
 2373TIP3    H228535   2.870   6.227  11.528 -2.1340 -0.4166 -0.0089
 2374TIP3   OH228536   4.819   6.723   4.561 -0.1784 -0.0050  0.0867
 2374TIP3    H128537   4.897   6.725   4.615 -0.3186 -0.3863  0.3028
 2374TIP3    H228538   4.850   6.696   4.474 -0.1779 -0.8685  0.3522
 2375TIP3   OH228539   2.390   3.117   3.920 -1.1076 -0.0664  0.1403
 2375TIP3    H128540   2.358   3.146   3.834  1.5616 -0.1619 -0.9669
 2375TIP3    H228541   2.435   3.193   3.956  1.6256 -1.2075 -0.5924
 2376TIP3   OH228542   4.392   2.663  15.568 -0.1505  0.1905  0.0533
 2376TIP3    H128543   4.325   2.672  15.636 -2.1289 -3.1348 -1.1990
 2376TIP3    H228544   4.344   2.667  15.486  1.4185 -0.6170 -0.9617
 2377TIP3   OH228545   3.375   1.635  13.568  0.3922 -0.2184 -0.3604
 2377TIP3    H128546   3.467   1.653  13.550  0.0420  3.3990  0.6480
 2377TIP3    H228547   3.340   1.603  13.485  2.4383 -1.2330 -0.8885
 2378TIP3   OH228548   3.746   4.202   2.921  0.6175  0.0242  0.8268
 2378TIP3    H128549   3.792   4.127   2.958 -1.9175 -2.4879 -0.7808
 2378TIP3    H228550   3.754   4.192   2.827  0.2845  1.8587  0.5667
 2379TIP3   OH228551   4.036   3.535   0.228 -0.0749 -0.0166  0.2628
 2379TIP3    H128552   4.051   3.501   0.140  0.1356 -0.7723  0.5833
 2379TIP3    H228553   4.123   3.541   0.267 -0.3472 -2.4173  1.3979
 2380TIP3   OH228554   3.469   6.716  10.757  0.0093  0.2070 -0.3618
 2380TIP3    H128555   3.462   6.775  10.832 -1.1008  1.3775 -1.3489
 2380TIP3    H228556   3.423   6.761  10.686  1.6876 -0.5262 -1.9924
 2381TIP3   OH228557   4.268   1.260   4.042  0.2173 -0.2399 -0.5702
 2381TIP3    H128558   4.363   1.256   4.043  0.3381 -0.7172 -3.5088
 2381TIP3    H228559   4.244   1.306   4.122  2.9563  0.7258 -0.2156
 2382TIP3   OH228560   5.047   6.191   4.348 -0.1239  0.4720  0.2366
 2382TIP3    H128561   5.091   6.276   4.340 -0.4057  0.8003  1.8190
 2382TIP3    H228562   5.106   6.129   4.305  0.1080  1.4528 -0.9052
 2383TIP3   OH228563   3.756   4.537   1.113 -0.2502  0.8067  0.3083
 2383TIP3    H128564   3.816   4.468   1.139 -1.0732 -0.1417 -0.2461
 2383TIP3    H228565   3.801   4.583   1.042 -0.3723 -0.2404 -0.4759
 2384TIP3   OH228566   6.377   4.055   2.847 -0.0679 -0.2078 -0.5326
 2384TIP3    H128567   6.308   4.078   2.910  0.1350  0.6625 -0.6157
 2384TIP3    H228568   6.382   4.131   2.789  0.2422 -0.7080 -1.1680
 2385TIP3   OH228569   1.190   3.699  14.370  0.2034 -0.1234  0.4447
 2385TIP3    H128570   1.192   3.616  14.418 -1.6341  0.6634  1.9567
 2385TIP3    H228571   1.114   3.691  14.312  1.0660 -0.1429 -0.7455
 2386TIP3   OH228572   2.833   5.153  14.664 -0.6360  0.0794 -0.2480
 2386TIP3    H128573   2.766   5.087  14.681 -0.5521  0.1960  0.5740
 2386TIP3    H228574   2.783   5.233  14.645 -0.7272  0.0997  0.0831
 2387TIP3   OH228575   3.759   0.710   4.864 -0.3819 -0.3444 -0.5281
 2387TIP3    H128576   3.754   0.746   4.776 -1.2050  1.1293  0.0722
 2387TIP3    H228577   3.676   0.664   4.876 -0.9462  0.7482 -0.0356
 2388TIP3   OH228578   5.077   0.155  12.343 -0.0981  0.0377 -0.0161
 2388TIP3    H128579   5.018   0.127  12.413 -0.8500  1.1880 -0.1659
 2388TIP3    H228580   5.065   0.090  12.273  0.4906 -0.9895  0.7986
 2389TIP3   OH228581   2.042   1.065  14.869  0.1184  0.3485  1.0734
 2389TIP3    H128582   2.095   1.024  14.939  2.5303  0.9131 -0.2964
 2389TIP3    H228583   2.033   1.156  14.896  0.5838  0.4407  0.9309
 2390TIP3   OH228584   4.867   3.140  12.146 -0.8069  0.2733  0.3794
 2390TIP3    H128585   4.835   3.197  12.216  0.0784  2.2645 -0.7491
 2390TIP3    H228586   4.817   3.167  12.069  0.4873  0.3846 -0.4458
 2391TIP3   OH228587   4.980   5.207  11.831 -0.0331  0.1501 -0.5985
 2391TIP3    H128588   5.072   5.215  11.807 -0.1522 -1.1138 -1.5579
 2391TIP3    H228589   4.976   5.244  11.920  1.1499  1.3113 -0.9914
 2392TIP3   OH228590   5.221   1.482  16.142 -0.3886 -0.9007 -0.6618
 2392TIP3    H128591   5.226   1.483  16.046 -1.3739  0.8871 -0.7494
 2392TIP3    H228592   5.300   1.527  16.170 -0.6630 -0.3788 -0.7061
 2393TIP3   OH228593   2.732   5.995   2.162 -0.0292 -0.0480 -0.4165
 2393TIP3    H128594   2.732   5.947   2.244 -0.9440  0.5735 -0.0293
 2393TIP3    H228595   2.822   6.026   2.151  0.2187 -0.6022  0.0660
 2394TIP3   OH228596   2.682   5.075   0.698 -0.1026 -0.5044  0.0693
 2394TIP3    H128597   2.656   5.021   0.773  0.8047 -1.1384 -0.0604
 2394TIP3    H228598   2.699   5.162   0.735  0.8409 -0.9427  0.6884
 2395TIP3   OH228599   0.691   1.980  16.818  0.2400 -0.0076  0.1698
 2395TIP3    H128600   0.765   2.041  16.819  0.3001 -0.0814  0.6867
 2395TIP3    H228601   0.679   1.957  16.726 -0.3248  1.4395 -0.1400
 2396TIP3   OH228602   1.292   3.057  16.008  0.4981  0.1665 -0.0167
 2396TIP3    H128603   1.224   3.094  15.952 -0.0059  0.2154  0.6189
 2396TIP3    H228604   1.339   2.995  15.951  0.0756  0.3020 -0.5201
 2397TIP3   OH228605   2.430   0.680   2.103 -0.6438  0.0307 -0.1730
 2397TIP3    H128606   2.425   0.586   2.086 -2.2730  0.0907 -0.1855
 2397TIP3    H228607   2.418   0.721   2.017 -1.0028  0.2619 -0.0122
 2398TIP3   OH228608   5.621   3.513   6.171 -0.2306  0.5673  0.6417
 2398TIP3    H128609   5.553   3.540   6.110  1.0035  1.1962 -0.5168
 2398TIP3    H228610   5.574   3.467   6.241 -1.7719  0.6011 -0.3233
 2399TIP3   OH228611   0.021   4.033   5.485  0.2139  0.5615 -0.0646
 2399TIP3    H128612   0.114   4.058   5.490  0.1728  0.6238  0.3691
 2399TIP3    H228613  -0.025   4.117   5.475  0.2370  0.4968 -0.8119
 2400TIP3   OH228614   4.300   4.020   6.640 -0.4386 -0.2272  0.2406
 2400TIP3    H128615   4.234   4.086   6.662  0.8788  1.6164 -1.0867
 2400TIP3    H228616   4.378   4.047   6.688 -0.2191 -1.6038  0.7069
 2401TIP3   OH228617   2.965   2.130  14.989 -0.5787 -0.1892  0.0181
 2401TIP3    H128618   2.889   2.112  14.935 -1.5200  1.9739  0.5134
 2401TIP3    H228619   3.026   2.176  14.931 -1.3506  1.6127  0.5492
 2402TIP3   OH228620   4.017   0.713  14.102  0.4967  0.1449 -0.3916
 2402TIP3    H128621   4.091   0.697  14.045  0.7372 -2.1259  0.4413
 2402TIP3    H228622   4.056   0.733  14.187  0.1401  1.1407 -0.4514
 2403TIP3   OH228623   4.683   1.600  16.804  0.3360 -0.3969 -1.0623
 2403TIP3    H128624   4.687   1.616  16.898 -0.1339  1.0364 -1.2479
 2403TIP3    H228625   4.751   1.656  16.767 -0.2420 -0.0527 -1.6492
 2404TIP3   OH228626   4.856   3.023   4.177  0.5531  0.2636 -0.3058
 2404TIP3    H128627   4.914   2.978   4.238 -0.2901  1.6650  1.6696
 2404TIP3    H228628   4.783   2.963   4.165  2.0680 -1.2867 -2.3916
 2405TIP3   OH228629   1.957   4.616  14.782  0.2753 -0.8997  0.4997
 2405TIP3    H128630   1.920   4.528  14.780  0.7734 -1.1037 -0.6230
 2405TIP3    H228631   2.016   4.619  14.707  0.7549  0.1849  0.8947
 2406TIP3   OH228632   1.757   2.978  12.760 -0.2136  0.4718  0.0591
 2406TIP3    H128633   1.749   2.999  12.667  0.3262  1.3231  0.1943
 2406TIP3    H228634   1.699   3.041  12.804 -0.3265  0.1928  0.3116
 2407TIP3   OH228635   0.957   2.929   3.414  0.4696 -0.1876  0.4158
 2407TIP3    H128636   0.890   2.965   3.356  1.9707  0.8031 -0.7902
 2407TIP3    H228637   0.964   2.837   3.388  1.3500  0.3143 -1.2905
 2408TIP3   OH228638   2.928   0.720   6.115  0.0815  0.0638 -0.1607
 2408TIP3    H128639   2.926   0.625   6.125  0.0231 -0.0241 -0.9297
 2408TIP3    H228640   2.850   0.741   6.063  0.6662  0.4067 -0.9186
 2409TIP3   OH228641   4.532   3.314   1.861 -0.0917  0.5240 -0.0242
 2409TIP3    H128642   4.559   3.298   1.770 -1.4376  0.8856 -0.5075
 2409TIP3    H228643   4.470   3.244   1.880  0.2312  0.4192  0.6407
 2410TIP3   OH228644   3.425   5.630   0.063  0.0670 -0.4914  0.9744
 2410TIP3    H128645   3.331   5.622   0.047  0.4012 -1.8919 -0.6311
 2410TIP3    H228646   3.443   5.566   0.132 -0.3055  0.6849  2.2214
 2411TIP3   OH228647   3.194   6.248   5.357  0.2468  0.1020 -0.3881
 2411TIP3    H128648   3.205   6.335   5.397  1.9801 -1.3099  2.5378
 2411TIP3    H228649   3.284   6.215   5.346 -0.3883 -2.1835  0.7365
 2412TIP3   OH228650   4.780   1.079   0.785 -0.3316 -0.4054 -0.1662
 2412TIP3    H128651   4.729   1.137   0.729 -0.2721  0.1301  0.3344
 2412TIP3    H228652   4.733   0.996   0.782 -0.7078 -0.1838 -0.4569
 2413TIP3   OH228653   5.410   0.716   1.613 -0.7306  0.1595 -0.1761
 2413TIP3    H128654   5.364   0.668   1.545  0.9451 -1.9439  0.0596
 2413TIP3    H228655   5.390   0.670   1.694  0.4090  0.2050  0.1631
 2414TIP3   OH228656   4.293   6.618   0.332  0.3781 -0.2471  0.5321
 2414TIP3    H128657   4.356   6.687   0.349 -0.4885  0.8917 -0.6631
 2414TIP3    H228658   4.237   6.617   0.410 -0.7214  1.7067 -0.1532
 2415TIP3   OH228659   4.507   0.038  13.912 -0.0429 -0.1830  0.3305
 2415TIP3    H128660   4.568   0.021  13.840 -0.3065 -2.3223  0.5503
 2415TIP3    H228661   4.534  -0.022  13.981 -1.6174 -0.3003  0.8847
 2416TIP3   OH228662   4.175   6.426   1.229 -0.3823 -0.0866 -0.0482
 2416TIP3    H128663   4.096   6.463   1.266  0.0826  0.5615  0.3084
 2416TIP3    H228664   4.164   6.331   1.238 -0.6512  0.0332  0.9534
 2417TIP3   OH228665   3.774   0.246  11.010  0.0534 -0.1696 -0.3952
 2417TIP3    H128666   3.848   0.215  10.959  0.8345 -0.0859  0.6564
 2417TIP3    H228667   3.805   0.245  11.101 -1.2760 -0.2696  0.0817
 2418TIP3   OH228668   2.392   2.847   5.283  0.0040  0.2087 -0.0625
 2418TIP3    H128669   2.330   2.805   5.224 -1.6441 -0.0167  1.7056
 2418TIP3    H228670   2.438   2.774   5.325  1.3167  0.3701 -1.1683
 2419TIP3   OH228671   6.412   6.264  16.321 -0.3972 -0.6207 -0.2671
 2419TIP3    H128672   6.461   6.201  16.373 -0.3751  1.0622  1.9178
 2419TIP3    H228673   6.333   6.218  16.295  0.8166 -2.3564 -1.1076
 2420TIP3   OH228674   3.273   6.649  14.698  0.0672 -0.1930  0.3576
 2420TIP3    H128675   3.279   6.553  14.704  2.5010 -0.1005  0.2431
 2420TIP3    H228676   3.263   6.666  14.605 -1.3667 -0.3343  0.4621
 2421TIP3   OH228677   1.085   0.810   3.419  0.4333 -0.0805 -0.0808
 2421TIP3    H128678   1.086   0.860   3.500 -0.0957 -1.0677  0.5604
 2421TIP3    H228679   1.099   0.875   3.350 -1.9547  1.2196  0.5754
 2422TIP3   OH228680   4.950   3.746   2.997  0.3496  0.5073 -0.3574
 2422TIP3    H128681   4.862   3.774   3.022 -0.4102 -0.5902 -1.6467
 2422TIP3    H228682   4.982   3.697   3.072 -1.4111 -1.7451 -0.9727
 2423TIP3   OH228683   2.833   0.086   2.290 -0.7664 -0.0747  0.2901
 2423TIP3    H128684   2.844   0.167   2.340  0.5314  0.4169 -0.7484
 2423TIP3    H228685   2.887   0.022   2.336  3.4980  1.2489 -2.3064
 2424TIP3   OH228686   1.743   5.443  11.600  0.8217  0.1934  0.1434
 2424TIP3    H128687   1.738   5.512  11.665  0.3584  1.7194 -1.4309
 2424TIP3    H228688   1.707   5.482  11.520 -0.1264 -2.0913 -0.6447
 2425TIP3   OH228689   5.220   2.754  16.505  0.5000  0.2502 -0.2708
 2425TIP3    H128690   5.211   2.826  16.442  0.1653  1.6017  1.2632
 2425TIP3    H228691   5.259   2.683  16.454 -0.1939  1.1205 -2.1145
 2426TIP3   OH228692   4.859   5.180   4.050 -0.4495 -0.4262  0.6509
 2426TIP3    H128693   4.889   5.120   4.118  0.5315  0.5187  1.0640
 2426TIP3    H228694   4.873   5.267   4.085 -2.6930  0.1017  0.4151
 2427TIP3   OH228695   6.262   3.846  12.669 -0.6691 -0.1926 -0.2774
 2427TIP3    H128696   6.173   3.828  12.701 -0.5340  2.0371  1.5157
 2427TIP3    H228697   6.248   3.889  12.585 -1.1765 -1.5216 -0.9120
 2428TIP3   OH228698   3.566   6.495  12.926  0.1735 -0.1739  0.0223
 2428TIP3    H128699   3.631   6.482  12.858  0.9985 -0.0108  0.7600
 2428TIP3    H228700   3.566   6.414  12.977  0.0706 -0.0379  0.2450
 2429TIP3   OH228701   4.305   3.565  10.869  0.3772  0.0366  0.4128
 2429TIP3    H128702   4.293   3.660  10.869  2.8662  0.4217 -0.3572
 2429TIP3    H228703   4.379   3.550  10.811 -1.0875 -2.5882 -0.9806
 2430TIP3   OH228704   0.554   4.180  12.674  0.1141  0.1085  0.3958
 2430TIP3    H128705   0.486   4.135  12.724  0.6375 -0.2683  0.7864
 2430TIP3    H228706   0.520   4.184  12.584 -0.2262 -0.4837  0.4925
 2431TIP3   OH228707   6.478   0.178  16.068  0.5647 -0.7004 -0.2375
 2431TIP3    H128708   6.389   0.149  16.083  0.9179 -1.8861 -0.3503
 2431TIP3    H228709   6.480   0.268  16.100 -1.4989  0.4732 -3.0788
 2432TIP3   OH228710   1.295   4.373  13.750  0.0265  0.6169 -0.1359
 2432TIP3    H128711   1.305   4.458  13.792  1.1096 -0.2170  1.3825
 2432TIP3    H228712   1.218   4.383  13.694  0.6278  2.8301 -0.6617
 2433TIP3   OH228713   0.543   4.114   1.363  0.5829 -0.5921  0.0106
 2433TIP3    H128714   0.634   4.093   1.344  0.8741  0.6042 -0.0052
 2433TIP3    H228715   0.517   4.176   1.294  0.2399  0.2421  0.8575
 2434TIP3   OH228716   5.256   4.495  12.633  0.2045  0.6510 -0.4973
 2434TIP3    H128717   5.179   4.515  12.686  1.0467 -0.3040  1.1456
 2434TIP3    H228718   5.229   4.516  12.543 -2.1200 -0.0984 -0.0364
 2435TIP3   OH228719   5.609   6.677  15.337  0.3015  0.1516  0.0595
 2435TIP3    H128720   5.704   6.668  15.334  0.1394 -1.5378 -1.4172
 2435TIP3    H228721   5.590   6.747  15.274  0.4974 -0.3500 -0.5659
 2436TIP3   OH228722   4.505   2.740  16.936  0.2256  0.5047 -0.2383
 2436TIP3    H128723   4.428   2.683  16.932  0.8875 -0.5077  0.7092
 2436TIP3    H228724   4.476   2.817  16.985 -0.6729  1.0003 -1.5086
 2437TIP3   OH228725   2.821   5.513  11.895 -0.1070 -0.5237 -0.4402
 2437TIP3    H128726   2.865   5.529  11.978  0.2318 -0.5873 -0.6078
 2437TIP3    H228727   2.890   5.521  11.829 -0.2526 -1.1009 -0.6638
 2438TIP3   OH228728   6.589   2.144   1.747 -0.0910  0.2886  0.3585
 2438TIP3    H128729   6.576   2.050   1.739  2.5975 -0.2597  1.3869
 2438TIP3    H228730   6.538   2.169   1.824 -2.6722  0.2000 -1.2051
 2439TIP3   OH228731   5.287   3.982   6.249 -0.2783  0.1172 -0.2714
 2439TIP3    H128732   5.221   4.048   6.230 -2.0684 -1.0546  1.4608
 2439TIP3    H228733   5.325   4.009   6.332 -0.7554 -0.7778  0.2558
 2440TIP3   OH228734   0.769   6.649  13.950 -0.7257  0.1585 -0.0718
 2440TIP3    H128735   0.766   6.716  13.883  1.2530 -0.5419 -0.9436
 2440TIP3    H228736   0.808   6.573  13.907 -0.7480 -0.7963  1.4911
 2441TIP3   OH228737   6.485   1.587   2.442  0.2127 -0.5430 -0.0948
 2441TIP3    H128738   6.458   1.504   2.403 -0.5973  0.8192 -2.6884
 2441TIP3    H228739   6.412   1.611   2.499  0.6151 -1.7314  0.9723
 2442TIP3   OH228740   5.022   4.084   6.198  0.2117 -0.3182 -0.5392
 2442TIP3    H128741   4.957   4.115   6.135  0.1287 -0.5782 -0.5860
 2442TIP3    H228742   5.059   4.163   6.236  1.4500 -0.1167 -2.0938
 2443TIP3   OH228743   2.649   5.240  16.285 -0.0471  0.5523 -0.2224
 2443TIP3    H128744   2.712   5.309  16.264 -0.7253  0.7894 -1.5544
 2443TIP3    H228745   2.563   5.280  16.272 -0.4550 -0.3543 -0.4130
 2444TIP3   OH228746   2.414   1.542   4.859  0.0049 -0.1183 -0.2470
 2444TIP3    H128747   2.506   1.528   4.839 -0.2570 -0.7190 -1.0728
 2444TIP3    H228748   2.404   1.511   4.949  0.8547  1.0983  0.3047
 2445TIP3   OH228749   4.570   6.715  13.221  0.1091 -0.1314 -0.1860
 2445TIP3    H128750   4.587   6.806  13.244  0.2013 -0.6055  1.7914
 2445TIP3    H228751   4.475   6.705  13.229  0.0318 -0.0937 -0.9450
 2446TIP3   OH228752   3.779   4.493   5.661 -0.6239 -0.4197  0.0065
 2446TIP3    H128753   3.727   4.565   5.625 -0.5920 -0.8185 -0.8601
 2446TIP3    H228754   3.844   4.474   5.593  1.7084  1.0938  1.6528
 2447TIP3   OH228755   5.980   4.098   1.907 -0.0815  0.3290 -0.4332
 2447TIP3    H128756   6.052   4.048   1.867  1.0864  2.0083 -0.5194
 2447TIP3    H228757   5.901   4.059   1.870  0.6938 -2.1835  0.3550
 2448TIP3   OH228758   5.740   3.438  15.141 -0.2955  0.0301  0.2332
 2448TIP3    H128759   5.743   3.501  15.213  0.8480 -0.8154  0.9648
 2448TIP3    H228760   5.764   3.354  15.181 -2.3677 -1.0248 -0.5857
 2449TIP3   OH228761   2.313   2.462   2.929 -0.0085  0.3993  0.0992
 2449TIP3    H128762   2.400   2.470   2.891  0.5647 -1.2178  0.9577
 2449TIP3    H228763   2.327   2.413   3.010 -1.6452  0.6514  0.5769
 2450TIP3   OH228764   4.003   0.449  12.618 -0.9573  0.2537  0.4947
 2450TIP3    H128765   3.984   0.368  12.665 -1.5356 -0.9473 -1.6869
 2450TIP3    H228766   3.933   0.457  12.554  0.0004  1.5873 -0.4418
 2451TIP3   OH228767   5.119   0.460  13.303  0.5362  0.2285  0.1313
 2451TIP3    H128768   5.062   0.485  13.230  0.6728 -0.1212 -0.0986
 2451TIP3    H228769   5.160   0.542  13.330  1.2195  0.2175 -0.8175
 2452TIP3   OH228770   1.999   1.734  12.398  0.1216 -0.0817  0.1339
 2452TIP3    H128771   2.021   1.652  12.442 -0.6346 -0.9552 -1.0409
 2452TIP3    H228772   1.906   1.746  12.416 -0.3310 -0.7292 -1.5841
 2453TIP3   OH228773   2.523   3.359   2.789 -0.5885  0.5635  0.2650
 2453TIP3    H128774   2.454   3.374   2.725 -1.6962 -0.6164  1.1310
 2453TIP3    H228775   2.602   3.344   2.736 -0.6628  3.2137 -0.7035
 2454TIP3   OH228776   4.015   6.243  13.723 -0.6918  0.5370 -0.0483
 2454TIP3    H128777   3.948   6.240  13.791 -0.0448  0.2840  0.5881
 2454TIP3    H228778   3.974   6.201  13.647 -1.2831  0.4681  0.3067
 2455TIP3   OH228779   3.687   4.918   2.270 -0.8109  0.4203  0.3958
 2455TIP3    H128780   3.685   4.950   2.180  0.0989 -0.4279  0.0636
 2455TIP3    H228781   3.665   4.825   2.263 -0.6191  0.3207  1.0334
 2456TIP3   OH228782   1.073   5.654   3.903  0.0149 -0.1940  0.1286
 2456TIP3    H128783   1.035   5.708   3.972  1.1060 -0.3278  0.8526
 2456TIP3    H228784   1.037   5.690   3.822  1.9388  2.7666  0.4174
 2457TIP3   OH228785   0.699   5.476   1.843 -0.4865  0.0354  0.3883
 2457TIP3    H128786   0.647   5.556   1.851 -0.7596 -0.1178  0.1506
 2457TIP3    H228787   0.779   5.494   1.893  0.4997  1.3092 -1.4968
 2458TIP3   OH228788   0.615   4.828   0.548  0.6860  0.0993 -0.2328
 2458TIP3    H128789   0.668   4.908   0.552 -0.2261  0.6658  2.1256
 2458TIP3    H228790   0.642   4.786   0.466  2.7161  1.7532 -0.5100
 2459TIP3   OH228791   6.556   0.326   0.764  0.2948 -0.0105  0.3858
 2459TIP3    H128792   6.540   0.385   0.690 -0.8363 -2.1969 -1.2415
 2459TIP3    H228793   6.634   0.362   0.807 -0.1879  2.4805 -0.6314
 2460TIP3   OH228794   5.913   4.018   5.075 -0.8652 -0.8944  0.8140
 2460TIP3    H128795   5.953   3.952   5.018 -0.1962  0.0430  0.1618
 2460TIP3    H228796   5.946   3.998   5.162  2.5007  0.7869  0.1046
 2461TIP3   OH228797   2.200   4.929   5.260  0.3950 -0.9321 -0.1249
 2461TIP3    H128798   2.256   4.950   5.185  1.2168  0.8730  0.9303
 2461TIP3    H228799   2.167   5.014   5.290 -2.0944 -1.8541 -0.0392
 2462TIP3   OH228800   3.385   5.365   2.531 -0.2192  0.1425  0.5309
 2462TIP3    H128801   3.299   5.321   2.530 -0.0081 -0.2640 -0.1102
 2462TIP3    H228802   3.375   5.438   2.470 -0.4174  0.7154  1.2304
 2463TIP3   OH228803   0.279   3.558   3.794 -0.2420  0.5325 -0.3804
 2463TIP3    H128804   0.273   3.653   3.793  1.6921  0.7103 -1.8264
 2463TIP3    H228805   0.250   3.532   3.881  3.1373  2.7780  1.6242
 2464TIP3   OH228806   5.317   5.993  15.198  0.4722  0.0497 -0.3146
 2464TIP3    H128807   5.312   6.087  15.182  2.3112 -0.0697 -1.8861
 2464TIP3    H228808   5.343   5.985  15.290 -1.0826  0.9848  0.2602
 2465TIP3   OH228809   4.859   0.644  12.800 -0.4598 -0.0190  0.3795
 2465TIP3    H128810   4.881   0.725  12.846 -0.6114  0.4593 -0.3623
 2465TIP3    H228811   4.769   0.624  12.828 -0.0106 -0.5837  1.4615
 2466TIP3   OH228812   6.660   4.690   2.954  0.1176  0.4132 -0.5223
 2466TIP3    H128813   6.695   4.631   3.021  1.2316 -0.0320 -1.4648
 2466TIP3    H228814   6.569   4.662   2.942 -0.0878  0.4746  0.7631
 2467TIP3   OH228815   5.628   6.132  14.893 -0.2111 -0.1160  0.4282
 2467TIP3    H128816   5.586   6.174  14.968  1.3076 -0.4522  1.5183
 2467TIP3    H228817   5.719   6.159  14.899 -0.1018  0.0210 -1.4510
 2468TIP3   OH228818   5.963   6.609  16.633  0.3434 -0.2336 -0.4300
 2468TIP3    H128819   5.919   6.549  16.693  0.8914  0.5167  0.7528
 2468TIP3    H228820   5.894   6.669  16.605 -0.9493 -2.9532 -3.8807
 2469TIP3   OH228821   1.636   0.566   2.891  0.2671  0.1727 -1.0033
 2469TIP3    H128822   1.600   0.505   2.827  0.6120 -0.2813 -0.7689
 2469TIP3    H228823   1.702   0.515   2.939  0.9632  0.8828 -1.1860
 2470TIP3   OH228824   4.562   6.254  11.694 -0.3942  0.2397  0.4390
 2470TIP3    H128825   4.605   6.170  11.712  1.2613  0.8213 -0.5565
 2470TIP3    H228826   4.516   6.239  11.611 -2.0235 -0.3211  1.4019
 2471TIP3   OH228827   0.277   0.238  13.038 -0.2084  0.4738 -0.0390
 2471TIP3    H128828   0.250   0.304  13.102 -0.3388 -2.2001  2.9213
 2471TIP3    H228829   0.363   0.266  13.009 -0.1814  1.8567  1.2672
 2472TIP3   OH228830   3.924   3.741   4.253  0.2993  0.2065  0.0329
 2472TIP3    H128831   3.930   3.807   4.184  0.5512 -0.3642 -0.4982
 2472TIP3    H228832   3.932   3.791   4.335  1.7072  0.7015 -0.3781
 2473TIP3   OH228833   6.479   5.197  12.424  0.1258  0.0226  0.0007
 2473TIP3    H128834   6.450   5.234  12.508 -1.1954 -2.1568  0.5926
 2473TIP3    H228835   6.480   5.272  12.364 -0.3604  1.3754  1.5908
 2474TIP3   OH228836   5.407   3.161   3.719  0.2413  0.2934  0.1933
 2474TIP3    H128837   5.403   3.073   3.682 -0.6024  0.2539  0.3548
 2474TIP3    H228838   5.415   3.148   3.813 -1.1797  0.3674  0.3436
 2475TIP3   OH228839   4.495   5.062   0.721  0.6770 -0.0253  0.1293
 2475TIP3    H128840   4.519   5.045   0.630  2.3094  0.1047  0.5018
 2475TIP3    H228841   4.410   5.104   0.716 -0.4165 -2.2363 -1.1876
 2476TIP3   OH228842   5.795   4.849   2.368  0.6536  0.0812  0.0376
 2476TIP3    H128843   5.780   4.805   2.284 -0.3543 -2.1929  1.3290
 2476TIP3    H228844   5.864   4.798   2.410  0.8736  0.9551  0.7765
 2477TIP3   OH228845   6.476   3.557  11.703 -0.7929  0.4541  0.0776
 2477TIP3    H128846   6.450   3.637  11.749 -1.0482  0.8656 -0.7487
 2477TIP3    H228847   6.521   3.589  11.625 -0.0222 -0.2309  0.2296
 2478TIP3   OH228848   3.811   0.334  13.757  0.0969 -0.4448  0.7090
 2478TIP3    H128849   3.776   0.292  13.835 -1.8456 -0.2812 -0.0374
 2478TIP3    H228850   3.820   0.426  13.782 -0.5025 -0.3959  0.7595
 2479TIP3   OH228851   1.732   2.922  11.697 -0.2383 -0.2528  0.1699
 2479TIP3    H128852   1.719   3.016  11.700 -1.0993 -0.3630  0.1924
 2479TIP3    H228853   1.701   2.891  11.782  1.4774 -0.4087  0.7892
 2480TIP3   OH228854   1.154   5.288  15.269 -0.6942 -0.0136 -0.5417
 2480TIP3    H128855   1.069   5.333  15.276 -0.1782  0.9535 -0.3676
 2480TIP3    H228856   1.216   5.347  15.312 -0.2334 -1.6301  1.1199
 2481TIP3   OH228857   5.635   1.974  12.640  0.1430 -0.1093  0.0203
 2481TIP3    H128858   5.685   1.959  12.720 -1.7438 -0.2455  1.2285
 2481TIP3    H228859   5.698   1.958  12.569  1.5452 -1.1822  1.4352
 2482TIP3   OH228860   0.923   1.032   4.931 -0.4294  0.4528 -0.4219
 2482TIP3    H128861   0.991   0.995   4.987  0.6840  3.3155  0.2553
 2482TIP3    H228862   0.950   1.011   4.842  1.5312  1.7226 -0.1767
 2483TIP3   OH228863   0.266   1.240  16.408  0.2278 -0.3174  0.2188
 2483TIP3    H128864   0.229   1.256  16.495 -3.3998 -0.5056 -1.1228
 2483TIP3    H228865   0.258   1.324  16.363  1.8467 -0.2926 -0.0971
 2484TIP3   OH228866   5.234   3.033   0.736 -0.3353  0.5307 -0.1447
 2484TIP3    H128867   5.174   3.050   0.664 -0.6908  2.0589  0.4842
 2484TIP3    H228868   5.183   3.052   0.815  0.0689 -1.0171  0.5361
 2485TIP3   OH228869   3.863   4.162   4.167 -0.0427 -0.0813  0.0632
 2485TIP3    H128870   3.893   4.076   4.137 -0.1480  0.0769 -0.5204
 2485TIP3    H228871   3.917   4.182   4.242 -1.0473 -1.3507  1.1765
 2486TIP3   OH228872   5.912   6.014  13.538 -0.0723 -0.1051  0.0496
 2486TIP3    H128873   5.944   5.995  13.450  2.7412 -2.0217  1.3190
 2486TIP3    H228874   5.865   5.935  13.563 -1.5095  0.7239  0.0396
 2487TIP3   OH228875   5.639   4.731  14.584  0.2605  0.1240 -0.2878
 2487TIP3    H128876   5.639   4.684  14.500 -1.5791  1.2823 -1.0059
 2487TIP3    H228877   5.668   4.819  14.561  0.5599  0.2179  0.4489
 2488TIP3   OH228878   6.083   5.475   0.664 -0.1760  0.3776  0.0757
 2488TIP3    H128879   6.080   5.380   0.677  3.2486  0.2065  0.5249
 2488TIP3    H228880   6.059   5.488   0.573 -1.6177 -0.7647  0.2468
 2489TIP3   OH228881   4.093   0.766  15.168 -0.2021  0.0406  0.1497
 2489TIP3    H128882   4.123   0.691  15.118 -2.4541 -0.1815 -0.9855
 2489TIP3    H228883   4.072   0.731  15.254  0.4456 -0.2629  0.1869
 2490TIP3   OH228884   6.462   1.053  11.989  0.7750 -0.2457  0.5545
 2490TIP3    H128885   6.470   1.023  12.080 -0.1188  0.3421  0.8305
 2490TIP3    H228886   6.387   1.004  11.954  0.0155  0.8203  0.6672
 2491TIP3   OH228887   6.668   2.394  13.548 -0.6076  0.5431 -0.0604
 2491TIP3    H128888   6.590   2.356  13.590 -1.2729  3.0486  1.1632
 2491TIP3    H228889   6.656   2.377  13.455 -1.4803 -1.0510  0.3033
 2492TIP3   OH228890   4.797   6.046  14.383  0.0979  0.3716 -0.2240
 2492TIP3    H128891   4.766   5.981  14.447  1.9474 -0.4460 -0.0751
 2492TIP3    H228892   4.776   6.007  14.298 -0.1241  0.2759 -0.1266
 2493TIP3   OH228893   6.597   2.344  12.950  0.2266  0.0049 -0.4116
 2493TIP3    H128894   6.686   2.373  12.971 -0.3937  1.3491  0.4708
 2493TIP3    H228895   6.566   2.407  12.885 -0.4903  0.2584  0.1626
 2494TIP3   OH228896   5.576   1.151  11.440  0.0140 -0.1448  0.2543
 2494TIP3    H128897   5.646   1.119  11.384 -1.9218 -0.9559 -1.8320
 2494TIP3    H228898   5.496   1.140  11.389 -1.5439  1.9354  2.0102
 2495TIP3   OH228899   0.068   3.974  12.278  0.1693 -0.2928  0.5665
 2495TIP3    H128900   0.036   3.957  12.367  0.3386  1.1421  0.9270
 2495TIP3    H228901  -0.012   3.980  12.225 -0.1152  1.3842  1.1161
 2496TIP3   OH228902   4.165   5.969  14.409  0.0624 -0.0589 -0.2207
 2496TIP3    H128903   4.163   5.889  14.461 -0.4637  0.0556 -0.0612
 2496TIP3    H228904   4.091   6.020  14.440 -1.3314 -0.7236 -2.2325
 2497TIP3   OH228905   2.950   4.799   1.426 -0.1433 -0.1698  0.0810
 2497TIP3    H128906   3.011   4.805   1.500 -0.5476  1.9383  0.2796
 2497TIP3    H228907   3.003   4.823   1.350 -0.0671 -1.0484 -0.1609
 2498TIP3   OH228908   3.086   3.263  14.728 -0.3916 -0.2020 -0.3491
 2498TIP3    H128909   3.118   3.226  14.646  0.8184 -0.9440  0.4316
 2498TIP3    H228910   3.031   3.337  14.701  0.4417 -0.0786 -1.8086
 2499TIP3   OH228911   5.099   4.114   5.055 -0.4314 -0.3563  0.2656
 2499TIP3    H128912   5.067   4.063   5.130 -1.4957  0.0679  0.1263
 2499TIP3    H228913   5.061   4.201   5.068  1.3004  0.4159  0.4670
 2500TIP3   OH228914   0.905   6.018  12.309 -0.4308 -0.6265  0.0598
 2500TIP3    H128915   0.851   6.055  12.378 -0.0160  0.3033 -0.1051
 2500TIP3    H228916   0.950   5.944  12.350 -0.0217  0.0491  0.8374
 2501TIP3   OH228917   0.991   5.388  16.979  0.3030 -0.2429 -0.0796
 2501TIP3    H128918   0.976   5.297  17.003 -1.5233  0.1040  0.2250
 2501TIP3    H228919   0.996   5.434  17.063  2.2493 -0.1701 -0.1921
 2502TIP3   OH228920   3.854   6.464  12.262 -0.3335 -0.1421  0.1698
 2502TIP3    H128921   3.867   6.535  12.199  4.6575 -2.1669 -1.6300
 2502TIP3    H228922   3.908   6.489  12.337 -0.2712 -1.0078  0.4208
 2503TIP3   OH228923   0.639   2.800  16.639 -0.4593 -0.1175 -0.0285
 2503TIP3    H128924   0.680   2.873  16.593 -0.1697 -0.3699 -0.1757
 2503TIP3    H228925   0.708   2.765  16.695 -0.7200 -0.0105  0.3671
 2504TIP3   OH228926   6.605   6.575   4.693  0.0552  0.1904 -0.0333
 2504TIP3    H128927   6.541   6.505   4.683  0.5550 -0.1755 -0.7411
 2504TIP3    H228928   6.600   6.625   4.611  1.1607 -0.2646 -0.3927
 2505TIP3   OH228929   1.682   4.354   4.671 -0.3464  0.0816 -0.0845
 2505TIP3    H128930   1.655   4.441   4.701 -0.4774 -0.1308  0.4154
 2505TIP3    H228931   1.619   4.294   4.710  0.1917 -0.3079  0.2007
 2506TIP3   OH228932   5.684   6.330   4.816  0.0011  0.4297  0.4573
 2506TIP3    H128933   5.775   6.325   4.786  0.4088 -0.5494  1.7755
 2506TIP3    H228934   5.641   6.384   4.750  0.7087 -1.9482 -2.1323
 2507TIP3   OH228935   6.306   5.005   3.790 -0.3865  0.3868  0.5251
 2507TIP3    H128936   6.246   4.965   3.853 -0.4582 -0.0811  0.1648
 2507TIP3    H228937   6.250   5.061   3.736 -0.3181  0.8216  0.9041
 2508TIP3   OH228938   3.423   4.431   6.831  1.3014 -0.0456  0.3330
 2508TIP3    H128939   3.445   4.514   6.790 -0.6151 -0.8330 -2.6004
 2508TIP3    H228940   3.502   4.378   6.824  2.0750  0.9971  0.9146
 2509TIP3   OH228941   3.230   0.223   5.427  0.4336  0.3015  0.3148
 2509TIP3    H128942   3.137   0.233   5.403  0.4037 -2.3295 -1.0176
 2509TIP3    H228943   3.228   0.201   5.520 -0.0854  2.1472  0.7862
 2510TIP3   OH228944   3.970   2.680   2.035  0.4886  0.1130  0.6278
 2510TIP3    H128945   3.956   2.717   1.948 -2.1267 -0.5897  0.6612
 2510TIP3    H228946   3.970   2.756   2.093 -1.1298  0.3967  0.3170
 2511TIP3   OH228947   4.640   3.448   3.975  0.1707 -0.0781  0.4875
 2511TIP3    H128948   4.573   3.417   4.036  0.1269  0.3372  0.6570
 2511TIP3    H228949   4.718   3.461   4.030  0.2870 -0.2175  0.3565
 2512TIP3   OH228950   5.806   6.316   4.130 -0.7116  0.2335 -0.3877
 2512TIP3    H128951   5.735   6.277   4.079  0.3875  0.6287 -2.3096
 2512TIP3    H228952   5.849   6.242   4.173 -0.8618 -0.2641 -1.0865
 2513TIP3   OH228953   4.518   4.634  14.958  0.1621 -0.3045 -0.1146
 2513TIP3    H128954   4.598   4.686  14.965  0.6791 -1.2045  1.0474
 2513TIP3    H228955   4.548   4.547  14.930 -0.4046 -0.6308  0.2650
 2514TIP3   OH228956   5.213   3.439   3.934 -0.2043  0.4952  0.3716
 2514TIP3    H128957   5.227   3.360   3.987 -0.1926 -1.0241 -1.7615
 2514TIP3    H228958   5.151   3.491   3.985  1.7263  0.3911  3.0487
 2515TIP3   OH228959   2.079   1.880   2.596 -0.0105  0.6963 -0.6512
 2515TIP3    H128960   1.999   1.897   2.645 -2.0219 -3.0719 -2.2533
 2515TIP3    H228961   2.087   1.956   2.537 -1.2849  2.0310  0.7997
 2516TIP3   OH228962   2.183   2.748  15.907  0.6148 -0.0448  0.4401
 2516TIP3    H128963   2.209   2.681  15.970 -1.5038 -0.1755  1.2359
 2516TIP3    H228964   2.131   2.702  15.842 -0.2515  0.6916  0.5921
 2517TIP3   OH228965   0.843   1.563  16.177 -0.2252  0.2929  0.2197
 2517TIP3    H128966   0.823   1.650  16.210 -1.5134 -0.0496  0.3892
 2517TIP3    H228967   0.826   1.568  16.083 -0.1463  0.2655  0.2034
 2518TIP3   OH228968   3.265   0.144   5.712 -0.8199  1.4526  0.2265
 2518TIP3    H128969   3.264   0.052   5.739 -0.8232  0.5903 -2.3869
 2518TIP3    H228970   3.326   0.187   5.771  0.1664 -0.5195  0.7073
 2519TIP3   OH228971   2.830   0.970  12.454 -0.1795 -0.1305 -0.1999
 2519TIP3    H128972   2.903   0.957  12.395  1.0749 -0.2228  1.3114
 2519TIP3    H228973   2.867   1.016  12.529 -1.7072 -0.0184  0.5387
 2520TIP3   OH228974   5.728   1.497  16.724  1.0098 -0.3448 -0.4549
 2520TIP3    H128975   5.649   1.449  16.746  2.4202 -2.9238 -0.6329
 2520TIP3    H228976   5.759   1.532  16.808  0.4031 -0.4639 -0.1770
 2521TIP3   OH228977   1.503   5.555  12.180  0.4330 -0.1703 -0.6389
 2521TIP3    H128978   1.493   5.580  12.271 -0.1257 -0.8076 -0.5148
 2521TIP3    H228979   1.432   5.492  12.164  0.4269  0.0467 -1.5526
 2522TIP3   OH228980   5.668   5.084   2.164 -0.1611 -0.1704  0.0795
 2522TIP3    H128981   5.742   5.145   2.162 -0.1797 -0.1400  0.2979
 2522TIP3    H228982   5.693   5.018   2.228 -0.3133 -0.1740  0.1339
 2523TIP3   OH228983   6.203   2.003   3.210 -0.2147  0.2460  0.2283
 2523TIP3    H128984   6.280   2.059   3.219  0.4546 -0.9177  2.3982
 2523TIP3    H228985   6.226   1.941   3.140 -0.4532  1.7556 -1.2642
 2524TIP3   OH228986   5.660   3.245   4.686  0.4645 -0.6525  0.6070
 2524TIP3    H128987   5.756   3.251   4.682  0.6262 -2.0479  1.4808
 2524TIP3    H228988   5.629   3.335   4.675  1.8734 -0.1882  0.2514
 2525TIP3   OH228989   4.417   2.413  14.143  0.3602 -0.5210 -0.4547
 2525TIP3    H128990   4.456   2.427  14.056  0.0639  0.1041 -0.4942
 2525TIP3    H228991   4.412   2.501  14.181  0.5645 -0.7981  0.2362
 2526TIP3   OH228992   2.235   5.290  11.904  0.0810  0.0716  0.2736
 2526TIP3    H128993   2.194   5.360  11.954 -0.1115 -0.7977  1.3663
 2526TIP3    H228994   2.214   5.311  11.813  1.3511  2.2824  0.4077
 2527TIP3   OH228995   3.957   2.360  14.645  0.1249  0.0200  0.0261
 2527TIP3    H128996   4.016   2.431  14.669 -0.6141  0.6275  0.0784
 2527TIP3    H228997   3.904   2.345  14.723  0.9753 -1.3398  0.3959
 2528TIP3   OH228998   3.445   5.443  12.765 -0.3166 -0.1747 -0.2884
 2528TIP3    H128999   3.383   5.411  12.700  0.5218  1.4031 -1.9731
 2528TIP3    H229000   3.445   5.538  12.753  1.3186 -0.0053  0.6802
 2529TIP3   OH229001   5.862   0.010   6.353 -1.2970  0.3024  0.1983
 2529TIP3    H129002   5.772  -0.025   6.352 -0.7744 -1.1000 -0.9027
 2529TIP3    H229003   5.917  -0.067   6.342  0.0153  1.2576 -0.0633
 2530TIP3   OH229004   0.578   5.197   4.455 -0.1259  0.0338 -0.0185
 2530TIP3    H129005   0.604   5.275   4.407  0.4286 -0.6357 -0.8335
 2530TIP3    H229006   0.483   5.193   4.445 -0.0220 -0.0892 -1.0834
 2531TIP3   OH229007   4.356   5.077   5.923  1.0312 -0.0291 -0.2046
 2531TIP3    H129008   4.341   5.006   5.985  2.1660 -0.0514  0.0686
 2531TIP3    H229009   4.449   5.072   5.903  0.6274 -0.3120 -2.2673
 2532TIP3   OH229010   2.919   1.753   5.149 -0.0672 -0.2408 -0.2483
 2532TIP3    H129011   2.852   1.817   5.123 -0.3014 -0.9318 -1.4324
 2532TIP3    H229012   2.869   1.682   5.189  0.0730 -0.2280 -0.0515
 2533TIP3   OH229013   3.097   0.125   4.608  0.9843 -0.1357 -0.3555
 2533TIP3    H129014   3.005   0.108   4.589  1.0382  0.1889 -0.9018
 2533TIP3    H229015   3.101   0.218   4.629  1.2056 -0.1272 -0.4312
 2534TIP3   OH229016   6.563   2.639  13.689  0.6726 -0.3987  0.4329
 2534TIP3    H129017   6.519   2.572  13.742 -1.0236  0.0537 -0.3269
 2534TIP3    H229018   6.653   2.607  13.680  0.0660 -2.2889  0.5988
 2535TIP3   OH229019   6.595   4.449  14.064  0.4566 -0.7774 -0.5725
 2535TIP3    H129020   6.559   4.537  14.051 -0.0900 -0.8616  0.2477
 2535TIP3    H229021   6.613   4.417  13.976 -1.1717 -0.5864 -1.0138
 2536TIP3   OH229022   6.241   5.918   3.763  0.3058 -0.0141 -0.1801
 2536TIP3    H129023   6.255   5.856   3.834  1.9513  0.0049 -0.4451
 2536TIP3    H229024   6.280   5.876   3.686  0.3828  0.8403 -0.6211
 2537TIP3   OH229025   3.218   3.336   4.730  0.4448 -0.0882  0.0061
 2537TIP3    H129026   3.202   3.244   4.710  1.5172 -0.1335 -0.7631
 2537TIP3    H229027   3.149   3.383   4.685 -0.2584 -0.5150  0.6068
 2538TIP3   OH229028   2.971   0.744   4.638  0.2348 -0.0414 -0.1910
 2538TIP3    H129029   2.929   0.822   4.672  1.0654  0.1922  0.3425
 2538TIP3    H229030   2.986   0.763   4.545  0.5720  0.4994 -0.0311
 2539TIP3   OH229031   1.348   3.564   6.015 -0.4771  0.7025 -0.2004
 2539TIP3    H129032   1.427   3.510   6.017 -0.3336  0.8415 -1.1818
 2539TIP3    H229033   1.281   3.507   5.978 -1.2103  0.1636  1.8509
 2540TIP3   OH229034   3.222   3.950   4.501  0.6729 -0.4983  0.4491
 2540TIP3    H129035   3.243   4.031   4.547 -0.7172 -0.5521  1.2485
 2540TIP3    H229036   3.127   3.943   4.506  0.7479 -2.1446  0.3449
 2541TIP3   OH229037   6.398   1.528   3.952 -0.1431 -0.1018 -0.6983
 2541TIP3    H129038   6.473   1.562   4.000 -1.1145 -0.5495  1.2059
 2541TIP3    H229039   6.423   1.439   3.929  1.6600  1.0996 -4.0900
 2542TIP3   OH229040   4.718   1.718   1.789 -0.3983 -0.2024  0.0056
 2542TIP3    H129041   4.747   1.807   1.768 -0.0693  0.1548  1.8141
 2542TIP3    H229042   4.757   1.664   1.720 -0.6885  1.0470 -1.1894
 2543TIP3   OH229043   5.597   3.869   5.591  0.6582  0.7634  0.2149
 2543TIP3    H129044   5.543   3.801   5.552  1.6224  0.1307 -0.0405
 2543TIP3    H229045   5.565   3.876   5.681  0.9744 -0.4964  0.4407
 2544TIP3   OH229046   0.885   6.288  11.151 -0.1716 -0.3460  0.2103
 2544TIP3    H129047   0.800   6.243  11.144 -0.5764  0.6030 -3.9376
 2544TIP3    H229048   0.862   6.380  11.163  0.1998 -0.0992 -0.8151
 2545TIP3   OH229049   2.986   3.448   6.453 -0.3118  0.0276 -0.4128
 2545TIP3    H129050   3.042   3.508   6.500 -0.9132  0.0074  0.3459
 2545TIP3    H229051   3.005   3.362   6.491 -1.1928  0.0862  0.2056
 2546TIP3   OH229052   6.445   5.305   1.732  0.0609 -0.3653 -0.5308
 2546TIP3    H129053   6.469   5.387   1.776 -0.0818 -0.1816 -0.7963
 2546TIP3    H229054   6.509   5.295   1.662 -0.7610  0.2558 -1.4021
 2547TIP3   OH229055   3.896   2.230  13.526  0.4073  0.1172 -0.2186
 2547TIP3    H129056   3.838   2.289  13.572  1.6974  1.5792 -0.3874
 2547TIP3    H229057   3.913   2.159  13.588  0.8710  1.2512  0.9907
 2548TIP3   OH229058   0.191   2.774  14.580 -0.5289  0.3579 -0.1638
 2548TIP3    H129059   0.268   2.758  14.526 -0.2325  0.1950  0.2946
 2548TIP3    H229060   0.194   2.868  14.599  1.0640 -0.0330  2.0180
 2549TIP3   OH229061   1.200   0.445   0.897 -0.1014  0.1999 -0.4734
 2549TIP3    H129062   1.132   0.454   0.830 -1.2013 -1.7897  0.2821
 2549TIP3    H229063   1.261   0.381   0.861 -0.4005 -0.4636  0.1743
 2550TIP3   OH229064   2.160   5.662  16.986 -0.8011  0.1880 -0.3528
 2550TIP3    H129065   2.069   5.648  16.960 -1.0426  1.5746 -0.3364
 2550TIP3    H229066   2.155   5.679  17.080 -0.6616  1.1506 -0.4999
 2551TIP3   OH229067   6.347   0.643   0.080  0.5544  0.2199  0.1638
 2551TIP3    H129068   6.284   0.714   0.078 -0.7307 -0.8863 -1.3151
 2551TIP3    H229069   6.301   0.571   0.123  0.0500 -1.1888 -2.4972
 2552TIP3   OH229070   4.437   0.445  15.055 -0.4950  0.7102 -0.3146
 2552TIP3    H129071   4.473   0.370  15.008 -0.6514  1.4251 -1.6059
 2552TIP3    H229072   4.512   0.483  15.101 -0.5602 -0.6966  1.0521
 2553TIP3   OH229073   2.141   4.089  11.832 -1.1529 -0.4164 -0.2405
 2553TIP3    H129074   2.194   4.131  11.764 -0.8280  2.7491  1.7684
 2553TIP3    H229075   2.182   4.003  11.845  0.2593 -0.1317 -2.2738
 2554TIP3   OH229076   0.715   0.926   1.472  0.3147 -0.1983 -0.1602
 2554TIP3    H129077   0.685   0.991   1.408  0.8329 -0.0800 -0.2908
 2554TIP3    H229078   0.782   0.876   1.425  0.7294 -0.0857  0.2994
 2555TIP3   OH229079   1.095   4.348   5.352  0.3061 -0.1589  0.1830
 2555TIP3    H129080   1.095   4.385   5.441  2.9306  0.4385  0.0240
 2555TIP3    H229081   1.047   4.266   5.360 -2.1634  1.3088  1.4574
 2556TIP3   OH229082   3.359   5.829   0.611 -0.4164  0.0080 -0.1033
 2556TIP3    H129083   3.436   5.800   0.563 -1.3575 -0.4793 -1.3621
 2556TIP3    H229084   3.314   5.888   0.550 -1.1994  0.0422  0.4998
 2557TIP3   OH229085   4.887   4.923  11.890  0.2823 -0.5965  0.4044
 2557TIP3    H129086   4.915   5.013  11.873  0.3373 -0.8343 -0.8638
 2557TIP3    H229087   4.894   4.913  11.985 -0.5056  0.9948  0.6734
 2558TIP3   OH229088   2.830   3.312  14.523 -0.4050  0.1444  0.5826
 2558TIP3    H129089   2.837   3.344  14.613  0.0597 -0.4659  0.7709
 2558TIP3    H229090   2.747   3.263  14.523  0.2515 -0.9949  1.0543
 2559TIP3   OH229091   3.675   2.962   4.866  0.4662 -0.2478  0.4466
 2559TIP3    H129092   3.627   2.965   4.784 -2.1940 -1.6949  1.8279
 2559TIP3    H229093   3.644   2.882   4.910  2.5527 -0.0816  2.4094
 2560TIP3   OH229094   5.922   5.337   5.145 -0.1479 -0.0964  0.4863
 2560TIP3    H129095   5.887   5.383   5.221 -1.0289 -0.0511  0.0701
 2560TIP3    H229096   6.008   5.306   5.173  0.8787  2.5311  0.5133
 2561TIP3   OH229097   5.763   0.886  15.937  0.0118  0.7167  0.0912
 2561TIP3    H129098   5.801   0.803  15.908 -1.3075 -0.2672  1.0254
 2561TIP3    H229099   5.833   0.928  15.987  0.1525 -0.6964  1.1545
 2562TIP3   OH229100   1.122   5.949  15.542  0.1808 -0.4823 -0.3267
 2562TIP3    H129101   1.125   6.006  15.619  0.5165  0.6146 -1.1305
 2562TIP3    H229102   1.046   5.980  15.493 -0.3596 -1.5383 -0.1870
 2563TIP3   OH229103   6.335   3.373  16.845 -0.1322  0.9472  0.2226
 2563TIP3    H129104   6.245   3.406  16.843 -0.3052  0.5172 -2.3112
 2563TIP3    H229105   6.387   3.445  16.809  0.1494  0.2532 -0.7886
 2564TIP3   OH229106   3.803   0.704  13.029 -0.4918 -0.5979  0.0890
 2564TIP3    H129107   3.810   0.641  13.100 -0.5880  1.0105  1.5770
 2564TIP3    H229108   3.858   0.777  13.055  0.6531 -0.5485 -2.1994
 2565TIP3   OH229109   4.559   6.430   3.666 -0.6931  0.1490  0.0955
 2565TIP3    H129110   4.510   6.353   3.639 -1.1526  0.5506 -0.2316
 2565TIP3    H229111   4.494   6.500   3.672 -0.3730  0.3997  0.9006
 2566TIP3   OH229112   2.346   5.507   0.993  0.3751  0.3979  0.2948
 2566TIP3    H129113   2.268   5.469   0.951  0.2215 -1.0297  1.7820
 2566TIP3    H229114   2.417   5.489   0.932  0.1396 -1.5236  0.5314
 2567TIP3   OH229115   5.312   2.741   5.885  0.1450 -0.3908  0.0562
 2567TIP3    H129116   5.241   2.684   5.856 -1.8792  2.0934 -0.2034
 2567TIP3    H229117   5.368   2.751   5.808  0.6411 -2.1048  0.1609
 2568TIP3   OH229118   0.268   5.061   0.185 -0.2090 -0.3849 -0.3347
 2568TIP3    H129119   0.173   5.059   0.194 -0.2574 -0.5180 -0.8441
 2568TIP3    H229120   0.292   5.151   0.209 -0.5948  0.0055 -1.3335
 2569TIP3   OH229121   3.243   1.802  17.190  0.3593 -0.0101  0.2656
 2569TIP3    H129122   3.186   1.744  17.240  1.5782 -2.3880 -0.9677
 2569TIP3    H229123   3.199   1.814  17.106 -0.2132  1.5033  0.7390
 2570TIP3   OH229124   6.178   1.035  17.069  0.7656 -0.5617 -0.3082
 2570TIP3    H129125   6.216   0.983  17.139 -0.0268 -1.9819 -0.8935
 2570TIP3    H229126   6.086   1.010  17.067  0.0616  1.7184  0.1187
 2571TIP3   OH229127   6.243   1.694  16.927 -0.2263 -0.3436  0.0059
 2571TIP3    H129128   6.189   1.664  16.854  1.2965 -1.1183 -0.8281
 2571TIP3    H229129   6.279   1.777  16.897  0.6168 -0.7931 -0.2622
 2572TIP3   OH229130   5.147   0.992  15.378 -0.0691  0.7750 -0.2221
 2572TIP3    H129131   5.208   0.925  15.347  0.3730  0.9120  0.3209
 2572TIP3    H229132   5.200   1.047  15.436 -0.7980  0.6683  0.5636
 2573TIP3   OH229133   4.351   5.603   1.145  0.5705  0.1882 -0.1945
 2573TIP3    H129134   4.285   5.550   1.190 -1.3933  0.1741 -2.8463
 2573TIP3    H229135   4.434   5.560   1.166 -0.5828 -1.7985  0.6419
 2574TIP3   OH229136   1.013   2.728   6.413  0.1994 -0.0026 -0.0469
 2574TIP3    H129137   1.106   2.752   6.410  0.4557 -0.9277  0.0939
 2574TIP3    H229138   1.011   2.649   6.468 -0.7837  0.5060  0.6801
 2575TIP3   OH229139   1.540   1.387   0.947 -0.0027  0.5522  0.5585
 2575TIP3    H129140   1.548   1.299   0.910  2.4925  0.3357  1.3886
 2575TIP3    H229141   1.448   1.395   0.973 -0.6767 -1.1315 -1.1006
 2576TIP3   OH229142   3.235   3.106  16.417 -0.1657 -0.2824 -0.0553
 2576TIP3    H129143   3.196   3.114  16.504 -0.1353 -0.8970  0.0201
 2576TIP3    H229144   3.310   3.048  16.430  0.8928  1.0017 -0.1604
 2577TIP3   OH229145   6.710   2.750  11.846 -0.0147  0.2065  0.3817
 2577TIP3    H129146   6.691   2.823  11.786  0.5749  1.1413  1.2979
 2577TIP3    H229147   6.803   2.733  11.835 -0.5313 -1.9746 -1.4712
 2578TIP3   OH229148   1.538   2.315   1.677 -0.6933 -0.5422 -0.2438
 2578TIP3    H129149   1.482   2.360   1.741  1.4077  0.8064  0.7759
 2578TIP3    H229150   1.524   2.362   1.595 -0.5809  0.1818  0.1496
 2579TIP3   OH229151   6.578   0.946   0.577 -0.7185  0.1052  0.1511
 2579TIP3    H129152   6.530   0.943   0.495 -1.0097 -0.0168  0.3259
 2579TIP3    H229153   6.670   0.939   0.551 -0.5583  3.0107 -0.4055
 2580TIP3   OH229154   2.817   1.234   5.557 -0.2121 -0.2509  0.1721
 2580TIP3    H129155   2.769   1.297   5.611  0.9988 -1.9396  3.5039
 2580TIP3    H229156   2.904   1.272   5.546 -0.1330 -0.3762  0.3538
 2581TIP3   OH229157   4.779   6.671  14.472  0.0012  0.8091  0.3882
 2581TIP3    H129158   4.858   6.717  14.497  0.4144  2.0003 -2.7448
 2581TIP3    H229159   4.807   6.581  14.458 -0.5343 -0.3900  5.0733
 2582TIP3   OH229160   6.730   5.827   6.265  0.5198 -0.6966  0.4247
 2582TIP3    H129161   6.734   5.911   6.312 -0.4725 -0.1729 -0.3771
 2582TIP3    H229162   6.722   5.761   6.334 -1.6290  0.1017  1.0219
 2583TIP3   OH229163   5.238   2.390  15.953  0.3119  0.2293  0.0728
 2583TIP3    H129164   5.149   2.389  15.917 -0.7724  0.3888  2.5646
 2583TIP3    H229165   5.249   2.479  15.986  0.7145 -0.2780  1.3378
 2584TIP3   OH229166   5.949   4.323  11.663  0.2208 -0.5111 -0.3055
 2584TIP3    H129167   5.894   4.374  11.603  1.7158 -0.3009 -1.5540
 2584TIP3    H229168   5.886   4.273  11.716 -1.1874  0.3487 -1.0943
 2585TIP3   OH229169   2.830   0.286  11.497  0.1352  0.4067 -0.1174
 2585TIP3    H129170   2.885   0.364  11.493 -1.3018  1.4068 -2.1508
 2585TIP3    H229171   2.807   0.267  11.406 -2.0773 -0.5187  0.5511
 2586TIP3   OH229172   2.887   4.883  12.883 -0.8784 -0.2632 -0.0591
 2586TIP3    H129173   2.871   4.966  12.927 -0.7092  0.9149 -2.0814
 2586TIP3    H229174   2.822   4.880  12.813 -0.6233 -1.6514 -0.2609
 2587TIP3   OH229175   2.057   2.853  13.778  0.3130 -0.0458  0.1694
 2587TIP3    H129176   2.147   2.819  13.780 -0.0063 -0.8960  0.5522
 2587TIP3    H229177   2.029   2.851  13.869 -0.8160 -1.8184 -0.1576
 2588TIP3   OH229178   1.398   1.636  12.036 -0.3966  0.0629 -0.3680
 2588TIP3    H129179   1.432   1.547  12.025  2.5295  1.1756 -1.2641
 2588TIP3    H229180   1.338   1.630  12.110  0.9380 -2.3661  0.6352
 2589TIP3   OH229181   6.194   2.517  14.796 -0.4779 -0.1698 -0.2176
 2589TIP3    H129182   6.248   2.521  14.875  0.3556 -0.7467 -0.7468
 2589TIP3    H229183   6.128   2.450  14.815 -1.8374  1.3785  0.9038
 2590TIP3   OH229184   1.872   4.989   3.652 -0.5033  0.6113 -0.2596
 2590TIP3    H129185   1.777   4.987   3.642 -0.5167 -0.8423 -0.0635
 2590TIP3    H229186   1.886   4.987   3.747 -0.2759  0.8036 -0.2890
 2591TIP3   OH229187   4.957   3.731  11.513  0.3610  0.3265 -1.0400
 2591TIP3    H129188   4.882   3.751  11.458 -1.8605  0.4588  1.8309
 2591TIP3    H229189   5.002   3.815  11.524 -1.5220  1.2269  0.4954
 2592TIP3   OH229190   2.559   4.646   6.189  0.1091  0.8809 -0.4255
 2592TIP3    H129191   2.482   4.593   6.210 -0.0171  1.1707 -0.1510
 2592TIP3    H229192   2.554   4.721   6.249  2.0653 -0.4235  1.5468
 2593TIP3   OH229193   6.496   4.369  11.118  0.2088  0.4409  0.2326
 2593TIP3    H129194   6.420   4.350  11.063  0.7333 -0.1623 -0.3074
 2593TIP3    H229195   6.551   4.425  11.064  0.3143  0.5854  0.4872
 2594TIP3   OH229196   5.279   1.492   3.306  0.5386 -0.4261  0.4480
 2594TIP3    H129197   5.258   1.409   3.347  0.3611  0.3537  2.0176
 2594TIP3    H229198   5.310   1.547   3.378  0.3993  0.9478 -0.5054
 2595TIP3   OH229199   0.239   1.219  17.209  0.4149  0.4780  0.6226
 2595TIP3    H129200   0.329   1.193  17.187 -0.1055 -1.9436  1.0864
 2595TIP3    H229201   0.250   1.285  17.278  1.8399  1.7004 -0.6918
 2596TIP3   OH229202   3.852   6.306   2.242  0.2451  0.0515  0.3631
 2596TIP3    H129203   3.917   6.278   2.306  0.5084 -0.9261 -0.2912
 2596TIP3    H229204   3.841   6.229   2.185  0.0319  0.8819 -0.7577
 2597TIP3   OH229205   2.907   5.290   0.795  0.2597 -0.5886  0.3233
 2597TIP3    H129206   2.831   5.332   0.756  0.3731 -1.7738 -1.2879
 2597TIP3    H229207   2.911   5.324   0.884  0.3280  2.7594 -0.8231
 2598TIP3   OH229208   0.474   3.784   1.047  0.2156  0.6571  0.6129
 2598TIP3    H129209   0.484   3.689   1.058  0.5717  0.6049 -0.0599
 2598TIP3    H229210   0.564   3.817   1.040  0.0868  0.7624 -1.1329
 2599TIP3   OH229211   3.432   5.367  17.007 -0.9613  0.7092  0.3156
 2599TIP3    H129212   3.442   5.459  16.985  1.1664  0.5160  0.2402
 2599TIP3    H229213   3.472   5.358  17.094  0.0990 -0.3301 -0.2360
 2600TIP3   OH229214   1.779   5.522   4.811  0.1066  0.3787 -0.3086
 2600TIP3    H129215   1.820   5.482   4.734  1.7699  0.8108  0.3081
 2600TIP3    H229216   1.686   5.499   4.803  0.5441 -1.2184 -1.4367
 2601TIP3   OH229217   4.625   0.871  11.177 -0.4071 -0.1121 -0.2424
 2601TIP3    H129218   4.544   0.867  11.126 -0.7363 -0.1007  0.2720
 2601TIP3    H229219   4.658   0.782  11.177 -0.5997 -0.1839 -0.1732
 2602TIP3   OH229220   6.718   6.671  14.898 -0.5748 -0.5278 -0.4974
 2602TIP3    H129221   6.716   6.764  14.924  1.3421  0.0428 -2.1609
 2602TIP3    H229222   6.780   6.631  14.959 -1.3020 -0.7302  0.1344
 2603TIP3   OH229223   0.266   0.027   1.904 -0.6267 -0.4472  0.5421
 2603TIP3    H129224   0.216   0.013   1.984 -2.4671 -1.2410 -0.6611
 2603TIP3    H229225   0.289   0.120   1.905 -0.0535 -0.5883  2.2724
 2604TIP3   OH229226   5.681   2.922   4.606  0.1555  0.0609 -0.0446
 2604TIP3    H129227   5.721   3.001   4.641 -1.9900  1.5762 -0.8677
 2604TIP3    H229228   5.745   2.890   4.541 -0.0404  2.6125 -1.6123
 2605TIP3   OH229229   2.149   5.561  14.310  0.0483 -0.7094  0.0318
 2605TIP3    H129230   2.131   5.518  14.226 -1.6307 -0.4529  0.2329
 2605TIP3    H229231   2.197   5.495  14.360 -1.1929 -1.8375 -0.2028
 2606TIP3   OH229232   0.289   1.328  15.916 -0.7902 -0.2609  0.7722
 2606TIP3    H129233   0.297   1.238  15.948 -0.9845  0.2517  2.3454
 2606TIP3    H229234   0.322   1.324  15.826 -1.6357 -2.0693  0.4862
 2607TIP3   OH229235   0.289   5.296   4.289  0.1473  0.8479 -0.2587
 2607TIP3    H129236   0.336   5.376   4.263  2.0285 -0.0299  0.2147
 2607TIP3    H229237   0.283   5.303   4.385 -0.8029  0.9856 -0.3207
 2608TIP3   OH229238   3.291   6.271   0.168 -0.0870  0.0045 -0.0145
 2608TIP3    H129239   3.355   6.205   0.194 -1.0892 -0.7114  0.7179
 2608TIP3    H229240   3.244   6.291   0.249  0.2044  1.6445 -0.2245
 2609TIP3   OH229241   0.460   5.642   4.735  0.3695  0.8231  0.0965
 2609TIP3    H129242   0.524   5.572   4.745  1.4442  1.6285 -0.9400
 2609TIP3    H229243   0.495   5.715   4.786 -0.4404  0.8297  0.6709
 2610TIP3   OH229244   0.173   3.190   4.102  0.1503  0.1355  0.1765
 2610TIP3    H129245   0.207   3.192   4.191  0.4605 -0.6185  0.0759
 2610TIP3    H229246   0.183   3.100   4.074  2.9589  0.9038 -1.7291
 2611TIP3   OH229247   6.546   1.777  13.860  0.4052 -0.2560  0.4432
 2611TIP3    H129248   6.495   1.839  13.808  2.4178  1.0275 -0.1543
 2611TIP3    H229249   6.544   1.812  13.949 -1.3477 -1.3318  0.8794
 2612TIP3   OH229250   2.736   3.554  12.817  0.7552 -0.2794  0.7028
 2612TIP3    H129251   2.696   3.493  12.755 -2.6501  2.7434 -0.4784
 2612TIP3    H229252   2.782   3.618  12.761  0.2620  0.7790  1.4665
 2613TIP3   OH229253   2.934   5.177   2.678  0.2662  0.2613  0.5627
 2613TIP3    H129254   3.024   5.178   2.647  0.2971 -0.3299  0.6274
 2613TIP3    H229255   2.925   5.095   2.725  0.5030  1.5179  2.9608
 2614TIP3   OH229256   5.222   2.338   3.504  1.1461 -1.3288  0.4892
 2614TIP3    H129257   5.232   2.307   3.414  1.7852 -2.7142  1.0070
 2614TIP3    H229258   5.258   2.427   3.503  1.4184 -1.4379 -0.5474
 2615TIP3   OH229259   0.452   5.643  14.643  0.1315  0.8156  0.0070
 2615TIP3    H129260   0.443   5.693  14.562  0.4708  0.3713 -0.3122
 2615TIP3    H229261   0.425   5.554  14.620  1.5532  0.3520 -0.0008
 2616TIP3   OH229262   5.043   1.241   5.001  0.0627 -0.3086 -0.1488
 2616TIP3    H129263   5.098   1.281   5.068 -0.8546  1.6785 -0.4943
 2616TIP3    H229264   5.003   1.166   5.043  1.4765 -0.6122  0.7109
 2617TIP3   OH229265   4.538   1.050  17.166 -0.0502  0.0976  0.1809
 2617TIP3    H129266   4.620   1.002  17.179  0.2994  1.0179  1.6766
 2617TIP3    H229267   4.471   0.982  17.157  0.7366 -0.6677  0.0134
 2618TIP3   OH229268   6.058   1.381  16.869 -0.1010 -0.3078  0.3021
 2618TIP3    H129269   6.046   1.466  16.828  0.4745 -0.8195 -0.9941
 2618TIP3    H229270   5.970   1.349  16.885 -0.5230 -1.2373 -3.1001
 2619TIP3   OH229271   2.928   0.085  16.767  0.3072  0.2331  0.2263
 2619TIP3    H129272   3.016   0.061  16.737 -0.6760 -3.7724 -0.0578
 2619TIP3    H229273   2.918   0.040  16.851 -1.0621  1.7127  0.9201
 2620TIP3   OH229274   3.836   5.454   3.361  0.3545  0.1527 -0.3993
 2620TIP3    H129275   3.922   5.493   3.350  0.1744  0.5988 -0.2543
 2620TIP3    H229276   3.851   5.359   3.354  1.1864  0.0641  1.6663
 2621TIP3   OH229277   3.016   0.401   4.042  0.9379 -0.1608 -0.3974
 2621TIP3    H129278   2.985   0.489   4.020  1.0548 -0.0296 -0.0453
 2621TIP3    H229279   2.944   0.343   4.018  0.3608  0.1541  0.5314
 2622TIP3   OH229280   0.457   5.469   2.589 -0.3924 -0.0932  0.2203
 2622TIP3    H129281   0.550   5.495   2.589 -0.2317 -0.5860  1.5351
 2622TIP3    H229282   0.457   5.380   2.553 -0.3052 -0.2075  0.4959
 2623TIP3   OH229283   0.437   4.854  15.628  0.2923 -0.0308  0.3637
 2623TIP3    H129284   0.405   4.929  15.578  1.7570  1.0159  0.8980
 2623TIP3    H229285   0.408   4.871  15.718  0.1018 -0.4183  0.3759
 2624TIP3   OH229286   4.594   3.058   5.183  0.2969  0.1745  0.4215
 2624TIP3    H129287   4.606   3.064   5.088 -0.1459  0.9309  0.4115
 2624TIP3    H229288   4.505   3.090   5.199  0.7878  1.2268  1.2060
 2625TIP3   OH229289   0.743   2.275  12.236  0.1951  0.5501  0.0161
 2625TIP3    H129290   0.812   2.216  12.207 -0.6934  0.5728 -2.4339
 2625TIP3    H229291   0.671   2.217  12.261 -0.5864  0.4695 -2.1504
 2626TIP3   OH229292   3.663   5.098   3.408 -0.6598  1.0248 -0.0033
 2626TIP3    H129293   3.740   5.098   3.465  0.3135  1.9188 -1.2273
 2626TIP3    H229294   3.608   5.028   3.441  2.1077 -1.8075 -0.9381
 2627TIP3   OH229295   4.948   5.213   5.745 -1.1489 -0.1765 -0.4621
 2627TIP3    H129296   5.031   5.261   5.737 -1.3066  0.0255 -0.8987
 2627TIP3    H229297   4.941   5.194   5.838 -1.6451  1.6321 -0.1019
 2628TIP3   OH229298   6.251   6.332  13.408 -0.3874 -0.7330  0.3195
 2628TIP3    H129299   6.322   6.375  13.456 -0.9907 -0.8631  1.3780
 2628TIP3    H229300   6.235   6.252  13.458 -1.2971 -0.6890  0.1084
 2629TIP3   OH229301   2.030   3.521  11.308 -0.1442 -0.3278 -0.0948
 2629TIP3    H129302   2.057   3.465  11.235 -0.9373 -0.9033  0.0452
 2629TIP3    H229303   2.033   3.610  11.272 -1.1267 -0.6525 -1.0218
 2630TIP3   OH229304   4.606   2.202   0.163  0.4911  0.1166  0.1773
 2630TIP3    H129305   4.626   2.108   0.163  2.2000  0.4344  1.4064
 2630TIP3    H229306   4.538   2.213   0.229  1.7933 -0.0213  1.5946
 2631TIP3   OH229307   4.146   2.126  11.732 -0.1737 -0.9272 -0.9291
 2631TIP3    H129308   4.158   2.048  11.787  1.3217  0.1129  0.3263
 2631TIP3    H229309   4.061   2.160  11.758 -0.7733 -2.0351 -1.3749
 2632TIP3   OH229310   1.461   3.814   4.060 -0.1894  0.4294  0.1842
 2632TIP3    H129311   1.542   3.859   4.037  1.0553 -1.9504 -0.3941
 2632TIP3    H229312   1.402   3.830   3.986  0.8743 -0.3582 -0.8612
 2633TIP3   OH229313   0.903   0.862   2.003 -0.0662 -0.0393  0.1209
 2633TIP3    H129314   0.877   0.855   1.911 -0.8453 -1.7496  0.4322
 2633TIP3    H229315   0.820   0.861   2.051  0.3860 -1.6826  0.9476
 2634TIP3   OH229316   2.321   0.515  13.822  0.4153  0.0276 -0.5184
 2634TIP3    H129317   2.412   0.486  13.826  0.8545  1.4357  0.5582
 2634TIP3    H229318   2.319   0.580  13.752  0.3800  0.4666 -0.1101
 2635TIP3   OH229319   4.939   0.466   5.954  0.3133  0.3699 -0.6743
 2635TIP3    H129320   5.019   0.514   5.976  1.1334 -1.4728  0.7221
 2635TIP3    H229321   4.905   0.436   6.039 -0.2459 -1.2833 -1.4279
 2636TIP3   OH229322   6.411   6.574  13.596 -0.5499  0.5435  0.4697
 2636TIP3    H129323   6.490   6.589  13.544 -1.4597 -1.0328 -1.4757
 2636TIP3    H229324   6.444   6.557  13.685  1.2122  0.8921 -0.0848
 2637TIP3   OH229325   4.721   4.801  14.876  0.0386  0.0146  0.8120
 2637TIP3    H129326   4.764   4.885  14.859  0.9137 -0.6147 -0.2810
 2637TIP3    H229327   4.783   4.736  14.843 -0.9295 -1.0352  0.9953
 2638TIP3   OH229328   3.811   4.763   3.823  0.0675  0.4706  0.0829
 2638TIP3    H129329   3.804   4.668   3.824  0.7761  0.4053 -0.7058
 2638TIP3    H229330   3.793   4.789   3.913  0.9652 -0.4899  0.5581
 2639TIP3   OH229331   6.628   5.230   3.684 -0.3605 -0.0133 -0.1438
 2639TIP3    H129332   6.551   5.280   3.711 -0.4284 -0.5670  0.7071
 2639TIP3    H229333   6.702   5.278   3.721 -0.1371  1.2894 -2.0778
 2640TIP3   OH229334   0.085   6.046   3.997 -0.3355 -0.7083  0.5696
 2640TIP3    H129335   0.055   6.117   4.055  0.3563  0.2533 -0.2014
 2640TIP3    H229336   0.157   6.005   4.046  1.7298  1.5008 -0.3978
 2641TIP3   OH229337   2.681   4.330  11.330 -0.1174  0.3213 -0.0741
 2641TIP3    H129338   2.687   4.409  11.385  1.0675  1.3882 -1.6746
 2641TIP3    H229339   2.739   4.347  11.257  1.9506 -2.9872  0.6029
 2642TIP3   OH229340   3.583   2.035   3.880 -0.2142 -0.6776  0.0695
 2642TIP3    H129341   3.640   2.017   3.805 -2.5534 -2.0341 -1.5308
 2642TIP3    H229342   3.536   2.114   3.856 -2.3509 -2.1493 -0.8889
 2643TIP3   OH229343   1.424   2.371  14.248 -0.4784 -0.0614 -0.7265
 2643TIP3    H129344   1.336   2.395  14.220 -1.1307 -0.1691  1.1029
 2643TIP3    H229345   1.413   2.287  14.292  0.5548 -0.1209 -0.5536
 2644TIP3   OH229346   1.455   1.910   6.001  0.1105  0.4566  0.3120
 2644TIP3    H129347   1.405   1.852   5.944  1.6632 -0.5699 -0.0622
 2644TIP3    H229348   1.480   1.983   5.945 -0.1241  0.4771  0.2344
 2645TIP3   OH229349   5.899   1.170  15.162 -0.1407  0.7106  0.1137
 2645TIP3    H129350   5.933   1.212  15.083 -1.6422 -0.5598 -1.2974
 2645TIP3    H229351   5.822   1.223  15.186  2.6000  3.7160  3.4251
 2646TIP3   OH229352   2.785   5.323  12.306 -0.7184  0.6289  0.1236
 2646TIP3    H129353   2.801   5.311  12.400  0.3633 -1.7079 -0.2996
 2646TIP3    H229354   2.690   5.327  12.298 -0.9693 -1.8597  1.1071
 2647TIP3   OH229355   4.551   2.172   4.560 -0.2561  0.2946 -0.5046
 2647TIP3    H129356   4.496   2.110   4.607 -1.6362 -0.3491 -2.8063
 2647TIP3    H229357   4.545   2.145   4.469  0.6746  2.6397 -1.3428
 2648TIP3   OH229358   0.968   6.204   0.422  0.4780  0.4425 -0.2605
 2648TIP3    H129359   1.043   6.237   0.473  1.0306  0.1572 -0.8723
 2648TIP3    H229360   1.006   6.180   0.337 -0.2233 -0.1822 -0.4001
 2649TIP3   OH229361   5.669   2.304   2.800  0.3316 -0.1793 -0.0970
 2649TIP3    H129362   5.588   2.303   2.749  0.0272  1.3106  0.2922
 2649TIP3    H229363   5.645   2.263   2.883 -0.2593  0.9111  0.2955
 2650TIP3   OH229364   2.088   2.647   6.134 -0.2188 -0.8118 -0.7127
 2650TIP3    H129365   2.126   2.649   6.222  1.1067  2.5403 -1.1789
 2650TIP3    H229366   1.997   2.676   6.147  0.3588  1.0650 -0.4827
 2651TIP3   OH229367   1.116   5.042  15.934  0.2571  0.4073 -0.4894
 2651TIP3    H129368   1.065   5.107  15.984  0.6753  1.1860 -1.0500
 2651TIP3    H229369   1.163   4.993  16.001  0.8873  1.5080 -0.0915
 2652TIP3   OH229370   4.786   6.243  12.035  0.1419  0.3818  0.0430
 2652TIP3    H129371   4.862   6.232  11.977  0.4171  0.1429  0.4461
 2652TIP3    H229372   4.721   6.287  11.980  0.8645  1.3532 -0.0695
 2653TIP3   OH229373   0.968   2.511  12.377  0.1829 -0.4178 -0.5037
 2653TIP3    H129374   1.014   2.563  12.443  0.8756  1.8405 -2.6261
 2653TIP3    H229375   1.037   2.473  12.323 -0.3777 -0.7026 -1.0381
 2654TIP3   OH229376   1.853   4.112  17.251 -0.2326 -0.1760 -0.3116
 2654TIP3    H129377   1.880   4.201  17.272  0.2312 -0.3521 -0.1501
 2654TIP3    H229378   1.862   4.105  17.156  1.8533 -0.7255 -0.1084
 2655TIP3   OH229379   5.536   4.447  16.501 -0.5387 -0.5708  0.2730
 2655TIP3    H129380   5.568   4.520  16.554 -0.9163 -0.4642  0.3536
 2655TIP3    H229381   5.512   4.380  16.565 -2.9647  0.3175  0.3986
 2656TIP3   OH229382   5.292   4.137  12.422 -0.3390  0.1458 -0.2485
 2656TIP3    H129383   5.290   4.042  12.412 -1.5049  0.1281  0.0581
 2656TIP3    H229384   5.296   4.150  12.517 -1.5894  0.4048 -0.2229
 2657TIP3   OH229385   5.487   6.460  12.350  0.0568 -0.1364  1.1514
 2657TIP3    H129386   5.417   6.524  12.340  0.9315  0.8785  1.2856
 2657TIP3    H229387   5.567   6.512  12.352  0.7361 -1.1545  2.2616
 2658TIP3   OH229388   1.671   3.476  13.363  0.1503  0.4847  0.4982
 2658TIP3    H129389   1.614   3.484  13.440 -0.5526  1.6524 -0.1127
 2658TIP3    H229390   1.653   3.388  13.330  0.5063 -0.0618  1.6826
 2659TIP3   OH229391   4.157   0.380  13.490  0.0256  0.2288  0.2695
 2659TIP3    H129392   4.135   0.319  13.561 -1.0872 -0.0141 -0.2693
 2659TIP3    H229393   4.154   0.326  13.411 -2.0564  1.1777 -0.3511
 2660TIP3   OH229394   0.371   0.671  11.107  0.1107  0.0192 -0.7278
 2660TIP3    H129395   0.383   0.657  11.201  1.0505 -0.3093 -0.8783
 2660TIP3    H229396   0.303   0.737  11.101 -1.1238 -1.1053  0.1397
 2661TIP3   OH229397   5.240   4.656  16.534 -0.4608 -0.3741 -0.0054
 2661TIP3    H129398   5.171   4.613  16.584 -0.6378  0.2648  0.3054
 2661TIP3    H229399   5.320   4.640  16.584 -0.7250  0.7852  0.8322
 2662TIP3   OH229400   6.238   3.308   4.656  0.1379  0.1982  0.2887
 2662TIP3    H129401   6.261   3.379   4.715 -1.0915 -0.1436  1.2101
 2662TIP3    H229402   6.144   3.296   4.668 -0.5728  1.2836 -3.0039
 2663TIP3   OH229403   5.190   1.794  11.816  0.2420 -0.8323  0.4817
 2663TIP3    H129404   5.209   1.726  11.880  1.1189 -0.8139  0.2579
 2663TIP3    H229405   5.185   1.748  11.732 -3.0850 -1.2199  0.7380
 2664TIP3   OH229406   5.893   1.577   4.967  0.2410  0.4697 -0.0310
 2664TIP3    H129407   5.896   1.672   4.963 -1.3625  0.6149  1.0191
 2664TIP3    H229408   5.802   1.555   4.945  1.2495 -1.0859 -3.4286
 2665TIP3   OH229409   6.448   0.067  17.279  0.3607  0.0095  0.3003
 2665TIP3    H129410   6.500   0.047  17.201  0.7139  0.5918  0.3797
 2665TIP3    H229411   6.359   0.039  17.257  0.2661  1.0048 -0.6586
 2666TIP3   OH229412   3.090   1.566  13.344 -0.2245  0.0420  0.4352
 2666TIP3    H129413   3.104   1.658  13.368 -0.3991 -0.1587  1.3619
 2666TIP3    H229414   3.178   1.532  13.327 -0.0144  0.0423  1.4367
 2667TIP3   OH229415   2.127   1.715   1.458  0.4014 -0.4085 -0.3016
 2667TIP3    H129416   2.071   1.647   1.495 -2.0659  1.5284 -0.2010
 2667TIP3    H229417   2.132   1.694   1.365 -1.9279  0.1897 -0.6296
 2668TIP3   OH229418   1.190   0.949   0.565 -0.0388  0.0836  0.3523
 2668TIP3    H129419   1.194   0.943   0.470 -1.6291 -0.2561  0.2813
 2668TIP3    H229420   1.256   1.015   0.588 -0.3041  0.8718 -1.0532
 2669TIP3   OH229421   2.305   2.302   4.985 -0.3858  0.2290  0.2117
 2669TIP3    H129422   2.257   2.381   5.012 -2.0498 -0.9383  0.8487
 2669TIP3    H229423   2.255   2.230   5.023 -0.6168 -1.3332 -2.7909
 2670TIP3   OH229424   4.481   2.029  12.919  0.3315 -0.7654 -0.4091
 2670TIP3    H129425   4.457   1.979  12.841  0.8436 -1.5117 -0.1041
 2670TIP3    H229426   4.571   2.002  12.938  0.4580 -0.0576  0.0287
 2671TIP3   OH229427   6.338   0.531   3.711  0.9207  0.2143 -0.5752
 2671TIP3    H129428   6.341   0.436   3.717 -1.3583  0.1941  1.9154
 2671TIP3    H229429   6.262   0.549   3.657 -0.0945  0.5827  0.9322
 2672TIP3   OH229430   4.819   0.300   3.046 -0.1857  0.2434  0.9125
 2672TIP3    H129431   4.869   0.228   3.008  0.3109  0.1963  1.6319
 2672TIP3    H229432   4.736   0.261   3.071 -0.5284  0.2770 -0.1109
 2673TIP3   OH229433   5.807   5.500   5.930  0.3440  0.0994  0.5729
 2673TIP3    H129434   5.753   5.578   5.921 -2.4002 -1.9234 -2.5924
 2673TIP3    H229435   5.775   5.458   6.010  0.6251  1.2615  1.3271
 2674TIP3   OH229436   4.147   2.155  14.590 -0.4021 -0.2422  0.8367
 2674TIP3    H129437   4.081   2.222  14.607  0.1533  0.6172 -0.2862
 2674TIP3    H229438   4.179   2.175  14.503  0.0656 -1.7459  0.6397
 2675TIP3   OH229439   2.671   5.292   5.254 -0.0486 -0.0909 -0.6674
 2675TIP3    H129440   2.588   5.333   5.276 -0.1478  1.0885 -2.9425
 2675TIP3    H229441   2.738   5.352   5.288 -0.1051 -0.5274  0.2539
 2676TIP3   OH229442   5.255   4.570   0.131  0.3697 -0.4397 -0.3423
 2676TIP3    H129443   5.178   4.529   0.091  1.0515  1.4400 -4.0114
 2676TIP3    H229444   5.229   4.661   0.145  1.1826 -0.3568  0.7823
 2677TIP3   OH229445   6.594   4.188  15.957  0.6867  0.0134 -0.2516
 2677TIP3    H129446   6.578   4.279  15.932  5.1805  1.2285  0.5197
 2677TIP3    H229447   6.627   4.146  15.878 -1.1083 -0.9859 -0.5313
 2678TIP3   OH229448   2.698   5.281  14.986  0.0586  0.1186  0.0247
 2678TIP3    H129449   2.782   5.239  15.004  0.1203 -0.0521 -0.6317
 2678TIP3    H229450   2.720   5.373  14.968 -0.0723  0.4484  1.4235
 2679TIP3   OH229451   0.942   1.004   4.652 -0.1217  0.1426 -0.3464
 2679TIP3    H129452   0.904   1.085   4.619  0.1069 -0.7961 -3.1747
 2679TIP3    H229453   0.868   0.944   4.660 -0.1604  0.3267  0.8890
 2680TIP3   OH229454   6.561   5.608   2.356  0.4888  0.3413  0.3828
 2680TIP3    H129455   6.604   5.611   2.442  1.8283  0.8430 -0.2716
 2680TIP3    H229456   6.575   5.695   2.320 -0.2348  0.1900 -0.2719
 2681TIP3   OH229457   0.282   3.543   5.704 -0.1405  0.2054 -0.0912
 2681TIP3    H129458   0.304   3.571   5.615 -1.0015 -0.9963 -0.6970
 2681TIP3    H229459   0.186   3.546   5.707 -0.2385 -1.8403  0.0739
 2682TIP3   OH229460   2.747   0.700   5.571  0.1277 -0.3850  0.4245
 2682TIP3    H129461   2.781   0.667   5.654 -1.6034 -0.3363  1.2109
 2682TIP3    H229462   2.697   0.627   5.535  0.6465 -0.3144 -0.4485
 2683TIP3   OH229463   4.600   6.268  13.085  0.4968 -0.2578 -0.0935
 2683TIP3    H129464   4.648   6.269  13.002 -1.2825 -1.5197 -1.2102
 2683TIP3    H229465   4.585   6.175  13.102 -0.2280  0.0464  1.0130
 2684TIP3   OH229466   3.561   2.792   0.368  0.1200 -0.1192  0.3953
 2684TIP3    H129467   3.617   2.802   0.291  0.0392  0.8015  0.4521
 2684TIP3    H229468   3.615   2.823   0.441 -0.8404  1.8835  0.3026
 2685TIP3   OH229469   1.393   1.790   1.901  0.1880  0.3986 -0.1485
 2685TIP3    H129470   1.454   1.812   1.830 -0.5801  0.5897 -0.7667
 2685TIP3    H229471   1.362   1.702   1.879 -2.4333  1.6013 -1.8449
 2686TIP3   OH229472   5.745   2.352  11.965 -0.1508  0.7780 -0.0656
 2686TIP3    H129473   5.808   2.385  12.029 -0.5185  3.8997 -1.1504
 2686TIP3    H229474   5.797   2.335  11.887  0.0586 -1.6164  0.5181
 2687TIP3   OH229475   4.573   5.118  15.408  0.1356  0.0913 -0.0556
 2687TIP3    H129476   4.623   5.085  15.482 -2.7781 -1.0600  1.5703
 2687TIP3    H229477   4.565   5.043  15.349 -0.1449  0.1017 -0.0316
 2688TIP3   OH229478   2.999   4.059  15.943 -0.1927 -0.3818 -0.3135
 2688TIP3    H129479   3.041   3.977  15.917 -1.5874 -0.9522 -0.8959
 2688TIP3    H229480   2.924   4.067  15.884  0.6583  2.0089 -1.1602
 2689TIP3   OH229481   2.708   0.272   5.421 -0.3836 -0.4321  0.5592
 2689TIP3    H129482   2.750   0.213   5.483  0.6111  0.2733  0.5741
 2689TIP3    H229483   2.747   0.251   5.336 -0.3511 -0.1008  0.4899
 2690TIP3   OH229484   1.746   0.223   5.240 -0.6881  0.1345 -0.4856
 2690TIP3    H129485   1.688   0.168   5.188 -0.4441 -0.9966  0.4110
 2690TIP3    H229486   1.688   0.286   5.283 -1.0658  0.0044 -0.8044
 2691TIP3   OH229487   5.803   1.107  16.842 -0.2937  0.1524  0.3642
 2691TIP3    H129488   5.798   1.202  16.855  2.6188  0.5144 -0.2538
 2691TIP3    H229489   5.877   1.096  16.782 -2.6312 -2.3586 -2.3465
 2692TIP3   OH229490   0.127   0.429  14.118  0.1525  0.0751 -0.2774
 2692TIP3    H129491   0.166   0.363  14.176  0.2587  0.7749  0.4576
 2692TIP3    H229492   0.201   0.483  14.090 -0.0770  0.4814 -0.0926
 2693TIP3   OH229493   5.970   2.136   3.231 -0.6315  0.4879  0.3634
 2693TIP3    H129494   6.047   2.083   3.213  0.6238  2.3796 -0.1399
 2693TIP3    H229495   6.002   2.208   3.285 -2.5560  0.0062  2.2843
 2694TIP3   OH229496   2.352   5.479  13.697  0.2327  0.5679 -0.1487
 2694TIP3    H129497   2.403   5.400  13.678 -1.7102 -1.0732  1.0144
 2694TIP3    H229498   2.402   5.525  13.764 -0.0594 -1.3692  1.5020
 2695TIP3   OH229499   3.238   1.802  16.376 -0.2049  0.1506 -0.2945
 2695TIP3    H129500   3.305   1.735  16.389 -1.2909 -1.1288 -1.0308
 2695TIP3    H229501   3.164   1.772  16.428 -0.4231  1.2337  0.0372
 2696TIP3   OH229502   1.553   5.492  16.042  0.5060 -0.1622 -0.4982
 2696TIP3    H129503   1.612   5.460  16.109  1.0595  0.8537 -0.4724
 2696TIP3    H229504   1.512   5.570  16.081 -0.9456 -0.9048 -0.4731
 2697TIP3   OH229505   5.090   2.078   2.685  0.3838 -0.0005  0.5390
 2697TIP3    H129506   5.046   2.146   2.634  0.1984  0.3866  1.2146
 2697TIP3    H229507   5.143   2.126   2.749  2.3507 -0.4205 -0.6775
 2698TIP3   OH229508   1.615   5.640   1.399 -0.3179 -0.3579 -0.0104
 2698TIP3    H129509   1.671   5.712   1.370  0.2329 -0.1261  1.5448
 2698TIP3    H229510   1.642   5.566   1.345 -0.7690  0.5299 -1.5135
 2699TIP3   OH229511   2.229   0.064  14.895  0.1857 -0.3090  0.0624
 2699TIP3    H129512   2.245  -0.011  14.838 -0.3393  0.8408 -1.6967
 2699TIP3    H229513   2.315   0.101  14.912  0.2155  1.6389 -3.3882
 2700TIP3   OH229514   1.900   3.834   2.332  0.9471 -0.2146 -0.7882
 2700TIP3    H129515   1.945   3.769   2.386  0.1956  0.3088  0.5109
 2700TIP3    H229516   1.939   3.917   2.358  2.5084 -0.1495 -3.0488
 2701TIP3   OH229517   3.112   0.289  15.729  0.1509  0.0987  0.5203
 2701TIP3    H129518   3.082   0.336  15.651  0.3140  0.2685  0.5601
 2701TIP3    H229519   3.036   0.238  15.757  0.5037 -1.1645 -0.6452
 2702TIP3   OH229520   1.562   0.303  16.566 -0.5091 -0.0445  0.0628
 2702TIP3    H129521   1.608   0.336  16.644 -1.6769 -0.9132  1.1718
 2702TIP3    H229522   1.525   0.382  16.525 -0.7726  0.3354  0.9982
 2703TIP3   OH229523   0.384   3.284   0.813  0.1789 -0.5336 -0.1618
 2703TIP3    H129524   0.421   3.331   0.739 -0.0439 -0.3856 -0.1810
 2703TIP3    H229525   0.322   3.346   0.852 -1.4914 -1.4304 -1.2682
 2704TIP3   OH229526   4.846   5.063   5.421 -0.2187  0.3369 -0.1668
 2704TIP3    H129527   4.898   5.043   5.499 -1.4116 -0.1355  0.5534
 2704TIP3    H229528   4.887   5.140   5.383  1.9440 -0.9330 -0.5514
 2705TIP3   OH229529   4.920   0.012  13.708  0.1784 -0.5751  0.0429
 2705TIP3    H129530   4.871  -0.069  13.722  1.0004 -1.2701 -0.9369
 2705TIP3    H229531   4.852   0.080  13.702 -1.0331 -1.8069 -3.7130
 2706TIP3   OH229532   0.004   3.281   0.442 -0.6827 -0.3047  0.0740
 2706TIP3    H129533   0.050   3.285   0.527 -0.5713 -0.6677  0.0295
 2706TIP3    H229534  -0.038   3.196   0.441 -0.3787 -0.4551 -0.3951
 2707TIP3   OH229535   1.895   6.527   0.744  0.4743  0.0289  0.1976
 2707TIP3    H129536   1.898   6.436   0.714 -1.1764  0.6493 -2.1918
 2707TIP3    H229537   1.858   6.522   0.832  1.6018 -1.6759  0.6201
 2708TIP3   OH229538   1.124   1.773   1.637 -0.0980  0.1436 -0.3114
 2708TIP3    H129539   1.103   1.782   1.544 -0.5841 -4.1184 -0.7950
 2708TIP3    H229540   1.043   1.740   1.676  1.6361 -3.9549  0.3012
 2709TIP3   OH229541   2.714   2.542   2.025  0.1835 -0.2927 -0.6336
 2709TIP3    H129542   2.637   2.569   2.075 -1.2040  0.1102 -2.8307
 2709TIP3    H229543   2.719   2.447   2.037  2.0329  0.1211  3.0196
 2710TIP3   OH229544   3.092   5.175  14.140  0.3382  0.5177 -0.1132
 2710TIP3    H129545   3.027   5.236  14.175  0.5378 -0.2912  1.7790
 2710TIP3    H229546   3.172   5.227  14.133  0.1582  0.8383  0.1499
 2711TIP3   OH229547   5.782   0.235   0.032 -0.6317 -0.0290 -0.2337
 2711TIP3    H129548   5.767   0.174   0.104  1.3676  1.1497  1.3142
 2711TIP3    H229549   5.852   0.195  -0.020 -0.9223 -0.1096 -0.5661
 2712TIP3   OH229550   1.365   2.408  16.133 -0.5661 -0.5960 -0.1568
 2712TIP3    H129551   1.346   2.315  16.136 -1.9290 -0.3454 -0.0651
 2712TIP3    H229552   1.410   2.421  16.049  0.2869 -1.4310  0.1677
 2713TIP3   OH229553   5.060   4.212  16.322 -0.1487 -0.5694  0.3291
 2713TIP3    H129554   5.005   4.253  16.256 -1.8744 -0.1763  1.9184
 2713TIP3    H229555   5.040   4.260  16.403  2.7929 -0.2256  0.9444
 2714TIP3   OH229556   2.980   2.410  12.369 -0.1211 -0.2798 -0.2410
 2714TIP3    H129557   2.976   2.453  12.454 -1.9768  0.3600 -0.6001
 2714TIP3    H229558   2.889   2.388  12.349  0.5680 -2.7423 -0.9220
 2715TIP3   OH229559   0.064   0.257   3.332 -0.5284 -0.4828  0.8226
 2715TIP3    H129560   0.040   0.266   3.424  3.4018  1.5045  1.8569
 2715TIP3    H229561   0.132   0.189   3.331 -2.3475 -2.4498 -1.1520
 2716TIP3   OH229562   4.857   2.751   3.156  0.3380 -0.2914 -0.0678
 2716TIP3    H129563   4.825   2.687   3.093 -1.1848  0.0439  0.3312
 2716TIP3    H229564   4.898   2.818   3.103 -1.0442  0.0530 -0.7471
 2717TIP3   OH229565   3.021   2.775   3.093 -0.8698  0.0245  0.3800
 2717TIP3    H129566   3.043   2.848   3.035 -1.5672  1.6503  2.0615
 2717TIP3    H229567   3.057   2.800   3.178  0.3520 -2.4144  0.6578
 2718TIP3   OH229568   3.968   2.136  16.644  0.5588  0.5036  0.5058
 2718TIP3    H129569   3.879   2.111  16.668  0.1044 -0.3018 -1.7924
 2718TIP3    H229570   4.010   2.054  16.619  0.6017  1.3117 -2.4083
 2719TIP3   OH229571   4.010   6.306  16.010  0.3470 -0.0223 -0.2324
 2719TIP3    H129572   3.993   6.397  15.986  0.1429  0.0553  0.2005
 2719TIP3    H229573   3.985   6.255  15.933  1.5510  0.3706 -0.9090
 2720TIP3   OH229574   3.896   3.767   2.229  0.0795  0.3139  0.2052
 2720TIP3    H129575   3.810   3.757   2.187  0.3781 -1.9524  0.0046
 2720TIP3    H229576   3.935   3.680   2.224  2.1104  1.1232  0.9537
 2721TIP3   OH229577   6.156   0.527   4.590 -0.2010  0.4764  0.4735
 2721TIP3    H129578   6.103   0.595   4.633  0.0012 -0.4367  2.2597
 2721TIP3    H229579   6.166   0.559   4.500 -2.1411  1.6208  0.5885
 2722TIP3   OH229580   1.323   1.522  14.761 -0.0755 -0.4997 -0.3801
 2722TIP3    H129581   1.251   1.546  14.820  0.1635 -0.0165 -0.2852
 2722TIP3    H229582   1.337   1.429  14.778  0.3772 -0.2378  0.7510
 2723TIP3   OH229583   2.797   0.593   3.802 -0.2392 -0.0146 -0.1019
 2723TIP3    H129584   2.724   0.617   3.745 -0.2462  0.3705  0.0665
 2723TIP3    H229585   2.852   0.536   3.747  1.3988  2.8023 -1.6465
 2724TIP3   OH229586   2.155   4.122   4.240 -0.0295 -0.0750  0.5882
 2724TIP3    H129587   2.095   4.089   4.307 -0.1573 -0.8763  0.0874
 2724TIP3    H229588   2.134   4.215   4.233  0.4277  0.1628  2.1143
 2725TIP3   OH229589   1.273   4.153  15.354 -0.2939  0.2188 -0.4324
 2725TIP3    H129590   1.213   4.108  15.414 -0.4040  0.9679  0.0418
 2725TIP3    H229591   1.354   4.164  15.405 -1.5130  4.0415  0.9723
 2726TIP3   OH229592   1.725   6.591   3.619  0.2215  0.5889  0.4473
 2726TIP3    H129593   1.738   6.620   3.529  1.2027  2.1452  1.0522
 2726TIP3    H229594   1.635   6.616   3.640 -0.0204  0.1837 -0.1084
 2727TIP3   OH229595   4.635   0.132  12.240  0.0981 -0.1872  0.6728
 2727TIP3    H129596   4.571   0.129  12.310 -3.1330  1.5485 -1.9249
 2727TIP3    H229597   4.669   0.222  12.242 -0.7905  0.1989 -0.5432
 2728TIP3   OH229598   0.905   2.777  13.149  0.2552 -0.0757 -0.2453
 2728TIP3    H129599   0.932   2.728  13.227  1.2854 -0.3090 -0.7278
 2728TIP3    H229600   0.963   2.852  13.146 -2.3284  2.1583  1.3679
 2729TIP3   OH229601   2.748   4.533  16.096  0.0653  0.2425 -0.7433
 2729TIP3    H129602   2.659   4.561  16.116  0.3589  0.2668  0.6371
 2729TIP3    H229603   2.793   4.534  16.181  1.1032 -0.7563 -1.2538
 2730TIP3   OH229604   6.168   0.233   0.398 -0.3553 -0.5369  0.2297
 2730TIP3    H129605   6.092   0.181   0.423 -0.3335 -0.9832 -0.6075
 2730TIP3    H229606   6.241   0.170   0.397  0.4473  0.2101  2.8478
 2731TIP3   OH229607   6.708   3.908   0.574 -0.1419  0.0719  0.0963
 2731TIP3    H129608   6.691   3.995   0.611  1.4072  0.2014  0.5899
 2731TIP3    H229609   6.646   3.850   0.618  0.9468  0.4008  2.2321
 2732TIP3   OH229610   5.976   3.434  15.789 -1.1377  0.0828 -0.3202
 2732TIP3    H129611   5.883   3.451  15.808 -0.9721 -0.4432  1.0546
 2732TIP3    H229612   6.019   3.517  15.806 -1.1520 -0.0874  0.6087
 2733TIP3   OH229613   0.334   0.316   0.960 -0.3228  0.1210 -0.1726
 2733TIP3    H129614   0.416   0.297   0.914 -0.8889  1.0251 -1.6262
 2733TIP3    H229615   0.275   0.244   0.934 -0.2600 -0.0577  0.1742
 2734TIP3   OH229616   6.007   3.822  14.042  0.1316  0.2680 -0.6147
 2734TIP3    H129617   6.021   3.793  14.132  1.2348 -0.6976 -1.0698
 2734TIP3    H229618   6.034   3.747  13.989 -1.2098  0.5549 -1.7462
 2735TIP3   OH229619   3.015   3.546   4.351  0.0385 -0.8153 -0.0162
 2735TIP3    H129620   3.049   3.515   4.267  0.6379 -2.5223  0.7967
 2735TIP3    H229621   2.975   3.468   4.390 -1.7938  0.3462  0.5471
 2736TIP3   OH229622   1.167   6.682  16.944 -0.1106 -0.3712  0.5226
 2736TIP3    H129623   1.154   6.671  16.850 -0.3708 -0.1719  0.5331
 2736TIP3    H229624   1.109   6.755  16.967 -0.3642 -0.6910  0.9126
 2737TIP3   OH229625   2.855   5.624  11.410  0.7801  0.0494 -0.0695
 2737TIP3    H129626   2.879   5.616  11.318 -0.6163 -0.2330 -0.4334
 2737TIP3    H229627   2.821   5.714  11.418 -1.0730 -0.5705 -0.3631
 2738TIP3   OH229628   4.512   3.877   6.004 -0.0384  0.4712 -0.5082
 2738TIP3    H129629   4.457   3.936   6.057 -0.2793  0.2935 -0.5573
 2738TIP3    H229630   4.476   3.790   6.021  1.0277  0.1966  0.4454
 2739TIP3   OH229631   1.757   0.920   0.915 -0.3754 -0.2474  0.5071
 2739TIP3    H129632   1.767   0.827   0.938  0.4575  0.1199  1.7036
 2739TIP3    H229633   1.846   0.948   0.894 -0.5582  0.4068  0.6046
 2740TIP3   OH229634   4.948   3.937   1.124  0.0088 -0.4547  0.2295
 2740TIP3    H129635   4.866   3.921   1.077  0.4596 -0.8121 -0.4396
 2740TIP3    H229636   5.003   3.984   1.062  0.1203  0.2896  0.8670
 2741TIP3   OH229637   1.929   3.842  14.062  0.0864 -0.2401 -0.1340
 2741TIP3    H129638   1.860   3.787  14.100 -0.5982  0.4901 -0.3043
 2741TIP3    H229639   1.885   3.923  14.038  0.8675 -0.0271 -0.9018
 2742TIP3   OH229640   0.519   2.765  13.579 -0.0686  0.2089 -0.7969
 2742TIP3    H129641   0.430   2.783  13.609 -0.0453  0.3309 -0.8018
 2742TIP3    H229642   0.525   2.812  13.495 -0.6527 -1.3586 -1.7706
 2743TIP3   OH229643   3.747   0.660  12.605  0.2162 -0.3062  0.2038
 2743TIP3    H129644   3.703   0.641  12.522  0.4946 -0.3783  0.0699
 2743TIP3    H229645   3.702   0.605  12.669 -1.2286  1.1220  0.4664
 2744TIP3   OH229646   0.715   6.412  15.099  0.4932 -0.4530 -0.2196
 2744TIP3    H129647   0.623   6.389  15.115  0.3860  0.1091 -0.0012
 2744TIP3    H229648   0.752   6.424  15.186  0.3832  0.8107 -0.3285
 2745TIP3   OH229649   2.021   1.632   3.340  0.0718 -0.1004  0.1981
 2745TIP3    H129650   2.018   1.614   3.434  1.4461  2.6026  0.8565
 2745TIP3    H229651   2.113   1.648   3.322 -0.1646 -0.6253 -1.6805
 2746TIP3   OH229652   2.129   5.977  12.042  0.3927 -0.3868  0.3492
 2746TIP3    H129653   2.182   5.928  11.980  0.2957  0.1089 -0.1426
 2746TIP3    H229654   2.085   6.043  11.988  0.2409 -0.0019  0.9347
 2747TIP3   OH229655   6.377   4.477  11.714 -0.1885 -0.2643  0.0283
 2747TIP3    H129656   6.335   4.409  11.766 -2.4752 -0.0978 -1.4849
 2747TIP3    H229657   6.320   4.489  11.638 -0.5609  4.1225  0.7254
 2748TIP3   OH229658   4.527   3.179  17.331 -0.1630 -0.1292  0.4985
 2748TIP3    H129659   4.585   3.127  17.385  1.1230  0.2480 -0.4619
 2748TIP3    H229660   4.575   3.261  17.316 -0.5209 -0.1642 -1.0666
 2749TIP3   OH229661   6.082   0.399  16.993  0.5891  0.1331 -0.2228
 2749TIP3    H129662   6.143   0.419  17.064  0.2298 -1.7332  0.6727
 2749TIP3    H229663   6.005   0.363  17.037 -0.1468  0.0840 -1.5001
 2750TIP3   OH229664   1.218   2.162  11.946  0.8082  0.5588 -0.5670
 2750TIP3    H129665   1.298   2.151  11.894  1.5243 -2.2699  0.9116
 2750TIP3    H229666   1.216   2.085  12.003 -2.7085  0.8043 -0.1402
 2751TIP3   OH229667   2.997   5.750   2.299  0.6633 -0.2909 -0.2236
 2751TIP3    H129668   3.014   5.661   2.331  2.6143  0.2692  0.4377
 2751TIP3    H229669   3.078   5.774   2.253 -0.5082  0.5008 -1.9819
 2752TIP3   OH229670   4.482   2.708   2.890  0.3806 -0.0039  0.2017
 2752TIP3    H129671   4.502   2.623   2.929 -0.5229 -0.3518 -0.0690
 2752TIP3    H229672   4.488   2.770   2.962  0.4691 -0.3770  0.5186
 2753TIP3   OH229673   0.262   1.552   3.279 -0.4057  0.0821 -0.2453
 2753TIP3    H129674   0.247   1.583   3.189 -1.7429  0.0774 -0.0453
 2753TIP3    H229675   0.340   1.599   3.307  0.6195 -0.6470 -1.7379
 2754TIP3   OH229676   5.294   6.319   0.152  0.1349  0.0327  0.2236
 2754TIP3    H129677   5.346   6.247   0.116 -0.6839 -0.0378 -0.8649
 2754TIP3    H229678   5.336   6.339   0.235  1.1384 -0.8611 -0.0408
 2755TIP3   OH229679   4.634   5.696  13.584 -0.0227 -0.7114  0.1103
 2755TIP3    H129680   4.663   5.623  13.529  0.2871  0.5775 -1.5329
 2755TIP3    H229681   4.679   5.772  13.547 -1.8147  0.6090  0.5470
 2756TIP3   OH229682   6.434   0.962  16.801  0.2784 -0.0247 -0.5017
 2756TIP3    H129683   6.502   0.958  16.868 -0.0336 -0.7537 -0.2190
 2756TIP3    H229684   6.479   0.995  16.723  1.1515 -1.2272 -0.5412
 2757TIP3   OH229685   4.413   1.960   4.640  0.1522 -0.3768 -0.1092
 2757TIP3    H129686   4.369   1.942   4.723  1.5653 -0.6555  0.6031
 2757TIP3    H229687   4.342   1.982   4.579 -1.1532 -2.7820  0.4403
 2758TIP3   OH229688   1.040   1.544  16.758  0.3573  0.0194  0.4011
 2758TIP3    H129689   1.032   1.608  16.830  0.3278  1.5410 -0.9016
 2758TIP3    H229690   1.074   1.595  16.685 -0.9327 -1.1741 -1.0910
 2759TIP3   OH229691   2.360   0.966  12.315  0.2403 -0.2872 -0.1714
 2759TIP3    H129692   2.351   0.871  12.318 -0.3979 -0.2695 -1.3331
 2759TIP3    H229693   2.383   0.990  12.405 -1.7040 -1.3334  0.6750
 2760TIP3   OH229694   2.460   5.884  11.217 -0.3106  0.5034 -0.1711
 2760TIP3    H129695   2.515   5.916  11.145  1.4869  1.2605  1.4181
 2760TIP3    H229696   2.472   5.789  11.216  0.2458  0.5696 -0.4860
 2761TIP3   OH229697   4.071   1.948  16.986 -0.7311  0.1981  0.3132
 2761TIP3    H129698   4.033   1.888  17.050  1.7115 -0.5219  1.1961
 2761TIP3    H229699   4.124   1.893  16.929 -0.1449  1.2592 -0.2043
 2762TIP3   OH229700   0.520   4.880   0.821 -0.4449 -0.5027 -0.2098
 2762TIP3    H129701   0.540   4.880   0.728  0.7463 -1.1860  0.0267
 2762TIP3    H229702   0.493   4.790   0.840  0.8713 -0.7916  0.3968
 2763TIP3   OH229703   1.155   4.017   5.608 -0.2111  0.2225 -0.2140
 2763TIP3    H129704   1.201   3.960   5.546  0.2814  1.2500 -0.8200
 2763TIP3    H229705   1.185   3.987   5.694 -0.5155 -0.8879 -0.4699
 2764TIP3   OH229706   6.193   4.963   1.618 -0.2364 -0.1555 -0.4275
 2764TIP3    H129707   6.167   4.874   1.644  0.9293  0.1895  2.2514
 2764TIP3    H229708   6.200   4.959   1.523  0.4409 -3.1402 -0.3517
 2765TIP3   OH229709   0.900   4.595   4.224 -0.3435  0.2919  0.0555
 2765TIP3    H129710   0.845   4.614   4.149  1.2256  0.1597 -1.1675
 2765TIP3    H229711   0.952   4.519   4.198 -1.6820 -1.5608  2.3179
 2766TIP3   OH229712   3.946   1.264  15.613  0.7789  0.6747 -0.0191
 2766TIP3    H129713   3.967   1.191  15.672 -1.4865  1.1787  1.5292
 2766TIP3    H229714   3.896   1.325  15.667  2.7060  3.5190 -1.2152
 2767TIP3   OH229715   2.581   1.556   2.609 -0.3739  0.1786 -0.1091
 2767TIP3    H129716   2.498   1.602   2.597 -0.7162 -0.1628  0.8216
 2767TIP3    H229717   2.557   1.464   2.619  0.0799  0.1167  0.4836
 2768TIP3   OH229718   2.485   0.333   2.827  0.2427  0.6157 -0.3132
 2768TIP3    H129719   2.546   0.345   2.900  0.7689 -0.7986 -0.5011
 2768TIP3    H229720   2.414   0.280   2.863  1.0944 -1.1397 -1.0864
 2769TIP3   OH229721   4.324   4.427   4.049 -0.5011 -0.0011 -0.0480
 2769TIP3    H129722   4.338   4.339   4.015  0.2689  0.3113 -0.5506
 2769TIP3    H229723   4.269   4.414   4.126 -0.1650 -0.9425  0.0429
 2770TIP3   OH229724   5.608   2.039   1.982  0.0578  0.2219  0.4086
 2770TIP3    H129725   5.649   2.051   1.897 -1.4066  2.2419 -0.0876
 2770TIP3    H229726   5.682   2.036   2.044  1.0631  1.5190 -0.6669
 2771TIP3   OH229727   4.249   0.236   1.633  0.3635  0.4414 -0.1753
 2771TIP3    H129728   4.229   0.149   1.599 -1.4189  1.2605 -1.4085
 2771TIP3    H229729   4.344   0.244   1.626  0.4972 -1.1707 -0.5780
 2772TIP3   OH229730   3.913   3.607  13.996  0.3934  0.0447  0.3400
 2772TIP3    H129731   3.964   3.617  14.076  0.9756  0.7754 -0.1062
 2772TIP3    H229732   3.978   3.607  13.926 -0.2347  1.5673 -0.2805
 2773TIP3   OH229733   3.773   5.827  12.980  0.2911 -0.3639  0.0601
 2773TIP3    H129734   3.761   5.761  13.049  0.5395  0.6911  1.1468
 2773TIP3    H229735   3.787   5.909  13.027  0.1301  0.4575 -1.2629
 2774TIP3   OH229736   3.835   3.235  17.063 -0.2925  0.1890  0.1359
 2774TIP3    H129737   3.906   3.172  17.074  0.1911  0.6410 -0.3707
 2774TIP3    H229738   3.793   3.211  16.981 -0.1133  0.5225 -0.0533
 2775TIP3   OH229739   2.540   4.842   1.195 -0.4852  0.6434  0.1950
 2775TIP3    H129740   2.473   4.777   1.173 -0.4185  0.2465  1.1398
 2775TIP3    H229741   2.554   4.832   1.289  1.6144  0.0381 -0.1380
 2776TIP3   OH229742   5.797   6.290   1.933  0.0847  0.1388  0.3567
 2776TIP3    H129743   5.882   6.308   1.893  1.1887 -0.2713  2.3773
 2776TIP3    H229744   5.801   6.198   1.959 -1.0684  0.0474  0.2904
 2777TIP3   OH229745   1.876   0.544   2.635 -0.3566  0.1694  0.5062
 2777TIP3    H129746   1.881   0.455   2.670 -1.3215  0.0983  0.4954
 2777TIP3    H229747   1.902   0.535   2.543 -0.9451 -0.1944  0.3719
 2778TIP3   OH229748   4.141   4.137  14.840  0.6067  0.4113 -0.7704
 2778TIP3    H129749   4.215   4.163  14.895 -1.0517 -1.3280  2.5091
 2778TIP3    H229750   4.181   4.122  14.753  3.5033  2.4391  0.0519
 2779TIP3   OH229751   0.615   4.597  13.423 -0.0940  0.5264 -0.0088
 2779TIP3    H129752   0.632   4.637  13.508  0.4115  0.0506  0.1126
 2779TIP3    H229753   0.689   4.538  13.408 -0.2015  0.5720 -0.7560
 2780TIP3   OH229754   3.796   6.335  15.208 -0.6838  0.1194 -0.7674
 2780TIP3    H129755   3.779   6.429  15.214 -1.6964  0.1895 -3.4033
 2780TIP3    H229756   3.878   6.328  15.159 -0.7851 -0.3582 -0.8796
 2781TIP3   OH229757   1.511   2.543  16.298 -0.2754 -0.1431  0.0833
 2781TIP3    H129758   1.590   2.491  16.286 -0.2199 -0.3311  1.1054
 2781TIP3    H229759   1.447   2.504  16.240  0.6877  0.7463 -1.6652
 2782TIP3   OH229760   3.480   4.209   4.814  0.5959  0.1143 -0.1350
 2782TIP3    H129761   3.430   4.202   4.895  0.0931 -1.7003 -0.5641
 2782TIP3    H229762   3.564   4.247   4.841  0.0619  0.5101  1.0485
 2783TIP3   OH229763   5.623   0.979  17.382 -0.2441 -0.4248  0.7281
 2783TIP3    H129764   5.546   0.929  17.357 -0.6895  0.2694  0.7037
 2783TIP3    H229765   5.697   0.922  17.358 -0.6757 -0.2537 -1.1631
 2784TIP3   OH229766   6.510   5.758   4.889 -0.4846  0.7446 -0.0368
 2784TIP3    H129767   6.460   5.811   4.827  1.1073 -0.1314 -2.2035
 2784TIP3    H229768   6.541   5.820   4.954 -1.4326  1.8940 -0.6417
 2785TIP3   OH229769   5.458   4.217   5.646  0.4494  0.6741 -0.6498
 2785TIP3    H129770   5.462   4.164   5.567  2.2242  0.1410 -0.2468
 2785TIP3    H229771   5.364   4.228   5.663  0.0153 -1.7286 -1.1709
 2786TIP3   OH229772   2.088   2.766  14.812  0.7910  0.0733 -0.1070
 2786TIP3    H129773   2.095   2.692  14.872 -2.4803  0.5758  1.0813
 2786TIP3    H229774   2.116   2.842  14.865 -0.5498  0.3013  0.2963
 2787TIP3   OH229775   3.674   4.963  15.776 -0.2663  0.6463  0.3695
 2787TIP3    H129776   3.715   4.898  15.720  1.7060  1.3472  0.9257
 2787TIP3    H229777   3.701   4.940  15.865 -1.0198  1.1764  0.7507
 2788TIP3   OH229778   6.291   2.652  12.118 -0.6087  0.1425  0.1039
 2788TIP3    H129779   6.377   2.683  12.090 -1.3207  1.3301 -0.8859
 2788TIP3    H229780   6.306   2.562  12.146  0.4446 -0.8413 -3.1428
 2789TIP3   OH229781   3.049   2.248  13.245 -0.0768 -0.7552 -0.3017
 2789TIP3    H129782   2.955   2.232  13.252 -0.4006  0.4299 -1.4530
 2789TIP3    H229783   3.075   2.278  13.332 -0.5722 -1.9291  0.2642
 2790TIP3   OH229784   6.070   5.075  15.303 -0.5145  0.1401 -0.4115
 2790TIP3    H129785   6.109   5.017  15.369 -1.8397  3.0893  3.3191
 2790TIP3    H229786   6.005   5.021  15.259  2.0296 -2.6025 -1.1365
 2791TIP3   OH229787   6.067   1.962   4.120 -0.0057 -0.5419 -0.3424
 2791TIP3    H129788   5.976   1.965   4.091 -0.5289 -0.7329  1.1630
 2791TIP3    H229789   6.100   2.051   4.106 -0.4841 -0.4221 -0.7253
 2792TIP3   OH229790   4.963   3.303  14.796  0.0782  0.8100 -0.4596
 2792TIP3    H129791   4.901   3.311  14.869  0.7301 -0.2476  0.2317
 2792TIP3    H229792   4.912   3.328  14.719 -0.8030  1.3466  0.2774
 2793TIP3   OH229793   0.001   4.908  14.336  0.5815  0.7085 -0.0670
 2793TIP3    H129794   0.074   4.847  14.346  1.0973  1.2482 -0.4797
 2793TIP3    H229795  -0.042   4.907  14.421 -0.1591 -1.1511 -0.4117
 2794TIP3   OH229796   1.306   2.756  14.422 -0.4041  0.0660 -0.4116
 2794TIP3    H129797   1.302   2.837  14.474 -0.4210  0.3890 -0.9085
 2794TIP3    H229798   1.217   2.745  14.388 -0.3700 -0.0995 -0.4479
 2795TIP3   OH229799   5.958   0.419   5.145 -0.0353  0.3320 -0.1889
 2795TIP3    H129800   5.938   0.441   5.236  0.6134  0.5955 -0.1063
 2795TIP3    H229801   5.873   0.419   5.101 -0.4532 -0.5779  0.5766
 2796TIP3   OH229802   2.630   6.521   5.775  0.2265  0.3085 -0.0137
 2796TIP3    H129803   2.547   6.518   5.727 -0.3352 -1.7562  0.9424
 2796TIP3    H229804   2.683   6.586   5.728 -0.5725 -0.9623 -2.9434
 2797TIP3   OH229805   2.239   6.344  15.663 -0.1461 -0.0050 -0.0887
 2797TIP3    H129806   2.322   6.387  15.643 -0.6262  1.0017  0.0338
 2797TIP3    H229807   2.180   6.373  15.593 -0.7618  0.3963  0.5864
 2798TIP3   OH229808   4.641   4.653  12.616  0.3617 -0.4681  0.4777
 2798TIP3    H129809   4.561   4.705  12.617  0.8175  0.3077  3.0478
 2798TIP3    H229810   4.629   4.593  12.542 -2.1899  0.1958  0.2496
 2799TIP3   OH229811   6.564   2.463  15.140 -0.2076  0.3686 -0.6795
 2799TIP3    H129812   6.644   2.447  15.090  0.9543  3.1231  0.1267
 2799TIP3    H229813   6.594   2.489  15.227 -2.0638 -0.4179  0.2655
 2800TIP3   OH229814   0.720   4.125  13.412  0.1200 -0.3847 -0.2059
 2800TIP3    H129815   0.785   4.062  13.440 -0.4472 -1.3935 -1.1109
 2800TIP3    H229816   0.685   4.091  13.330 -1.2144  0.3610  0.0023
 2801TIP3   OH229817   2.742   2.302   1.681 -0.1353 -0.1668  0.2753
 2801TIP3    H129818   2.720   2.338   1.595 -1.7090 -0.5948  0.4763
 2801TIP3    H229819   2.830   2.266   1.670  0.4958  1.5291 -0.5954
 2802TIP3   OH229820   5.146   3.867  17.313  0.0682  0.3374  0.0272
 2802TIP3    H129821   5.140   3.962  17.299  2.3823  0.3010 -1.7919
 2802TIP3    H229822   5.237   3.845  17.292 -0.2930 -2.2357  0.8304
 2803TIP3   OH229823   4.341   6.021  16.302  0.4127 -0.4088 -0.0909
 2803TIP3    H129824   4.353   6.116  16.304 -0.8850 -0.2002 -1.1025
 2803TIP3    H229825   4.364   5.996  16.213 -1.6160 -0.6640 -0.5901
 2804TIP3   OH229826   4.931   4.000   3.160  0.4392 -0.5765 -0.1465
 2804TIP3    H129827   4.992   4.072   3.146  0.4680 -0.6696 -0.5225
 2804TIP3    H229828   4.863   4.012   3.093 -0.1109 -0.3118  0.4491
 2805TIP3   OH229829   5.683   3.527   5.776 -0.6729  0.1198 -0.4842
 2805TIP3    H129830   5.753   3.524   5.842 -0.3180 -1.8578 -0.8692
 2805TIP3    H229831   5.661   3.620   5.768  1.1615  0.6877  0.4320
 2806TIP3   OH229832   4.602   2.647   5.842  0.7566 -0.1402 -0.3491
 2806TIP3    H129833   4.624   2.708   5.913  2.0444 -1.1574  0.1736
 2806TIP3    H229834   4.618   2.697   5.762 -0.3450  0.9028  0.0449
 2807TIP3   OH229835   0.899   5.671  13.438  0.1358 -0.0504  0.1463
 2807TIP3    H129836   0.860   5.680  13.351  0.7252 -1.2679 -0.2710
 2807TIP3    H229837   0.936   5.582  13.438  0.4544  0.0682  1.5146
 2808TIP3   OH229838   2.340   4.577  17.268 -0.6701  0.2347  0.0284
 2808TIP3    H129839   2.425   4.617  17.282 -0.4195  0.1472 -1.2150
 2808TIP3    H229840   2.356   4.507  17.204 -0.8982 -2.4929  2.6861
 2809TIP3   OH229841   6.524   0.566   1.627 -0.3040 -0.1383  0.1222
 2809TIP3    H129842   6.466   0.555   1.702 -0.7094  2.3231  0.2539
 2809TIP3    H229843   6.469   0.547   1.551 -1.2319  1.7764  0.2685
 2810TIP3   OH229844   1.725   2.631  12.619 -0.7763  0.4318 -0.3524
 2810TIP3    H129845   1.798   2.690  12.638 -0.1159 -0.2239 -0.7960
 2810TIP3    H229846   1.763   2.563  12.563 -1.7079  0.0283 -0.5145
 2811TIP3   OH229847   6.576   0.962  13.112 -0.1429 -0.0329  0.3904
 2811TIP3    H129848   6.612   0.923  13.033  0.7355  0.0077  0.7487
 2811TIP3    H229849   6.481   0.959  13.101 -0.0388 -0.6120 -0.3731
 2812TIP3   OH229850   0.179   3.069  11.696 -0.7093 -0.2531 -0.0746
 2812TIP3    H129851   0.151   3.031  11.613 -0.6229 -0.3621 -0.0536
 2812TIP3    H229852   0.229   3.147  11.671  1.5486 -1.6478 -0.2597
 2813TIP3   OH229853   4.142   3.178  15.538  0.0758  0.9767 -0.0890
 2813TIP3    H129854   4.181   3.250  15.490 -0.6956  1.2242 -0.3651
 2813TIP3    H229855   4.108   3.217  15.618  0.7120  0.6958  0.3272
 2814TIP3   OH229856   0.856   2.772   0.203  0.2212  0.0055  0.6218
 2814TIP3    H129857   0.797   2.737   0.136  2.7826 -1.2876 -1.1149
 2814TIP3    H229858   0.801   2.832   0.254 -1.7640  1.5741 -2.9716
 2815TIP3   OH229859   1.571   4.492  14.661  0.2843  0.6447  0.4752
 2815TIP3    H129860   1.475   4.486  14.667  0.3641  0.2695  1.8949
 2815TIP3    H229861   1.587   4.537  14.578 -1.1193  0.6885  0.1914
 2816TIP3   OH229862   4.143   5.317   1.664  0.4701  0.3981 -0.1013
 2816TIP3    H129863   4.193   5.356   1.736  0.4540 -0.7382  0.5570
 2816TIP3    H229864   4.054   5.307   1.698  0.3654  0.2184 -0.4148
 2817TIP3   OH229865   4.607   1.973   5.892  0.0104 -0.1871  0.6814
 2817TIP3    H129866   4.650   1.907   5.837 -1.5975 -0.3371 -0.4604
 2817TIP3    H229867   4.673   1.996   5.958  1.3746 -1.3039 -0.2380
 2818TIP3   OH229868   3.200   1.518  14.464 -0.3342 -0.6939 -0.2317
 2818TIP3    H129869   3.283   1.470  14.458 -0.1854 -0.4591 -0.0139
 2818TIP3    H229870   3.217   1.589  14.526 -1.7548 -2.8407  2.8761
 2819TIP3   OH229871   5.351   3.540  12.295  0.1051  0.1544 -0.2030
 2819TIP3    H129872   5.415   3.492  12.242  1.3102 -0.2129  1.5183
 2819TIP3    H229873   5.355   3.498  12.381 -2.9363 -0.3186 -0.1644
 2820TIP3   OH229874   6.408   4.091  12.138  0.0498  0.6991  0.3213
 2820TIP3    H129875   6.362   4.019  12.182 -1.2869  1.9892  1.1455
 2820TIP3    H229876   6.373   4.170  12.179  0.5427  1.8798 -1.4174
 2821TIP3   OH229877   6.181   2.672  14.301  0.4760 -0.4611  0.6258
 2821TIP3    H129878   6.180   2.593  14.356 -1.2432  0.1410  1.5042
 2821TIP3    H229879   6.189   2.744  14.363  0.7812  0.1351 -0.0913
 2822TIP3   OH229880   3.101   2.546   2.690 -0.5490  0.7207  0.5356
 2822TIP3    H129881   3.059   2.624   2.653 -3.4092 -1.2437 -0.6827
 2822TIP3    H229882   3.083   2.477   2.626  0.2430 -1.3554  2.4525
 2823TIP3   OH229883   6.680   5.235  13.694 -0.5302  0.1745  0.1279
 2823TIP3    H129884   6.675   5.147  13.731  1.2121  0.8639  2.2301
 2823TIP3    H229885   6.711   5.222  13.604 -0.5394 -1.3477  0.3211
 2824TIP3   OH229886   0.725   6.312   0.131 -0.0197  0.2803  0.3292
 2824TIP3    H129887   0.673   6.374   0.079 -0.8306  0.3387  1.1895
 2824TIP3    H229888   0.724   6.348   0.219  0.5053 -0.3467  0.5953
 2825TIP3   OH229889   1.262   2.242   5.802 -0.3774 -0.4634 -0.0891
 2825TIP3    H129890   1.170   2.220   5.787 -0.0603 -2.3390  0.5035
 2825TIP3    H229891   1.261   2.336   5.818 -2.4662 -0.7215  1.8312
 2826TIP3   OH229892   3.825   2.752   3.351  0.0144  0.7144  0.1796
 2826TIP3    H129893   3.840   2.687   3.420 -0.6992  0.7422  0.3746
 2826TIP3    H229894   3.890   2.733   3.284 -1.0706 -1.1010 -0.4155
 2827TIP3   OH229895   5.732   3.991  11.694  0.1184  0.0163 -0.1304
 2827TIP3    H129896   5.815   3.945  11.689  0.1403  0.1107 -0.6663
 2827TIP3    H229897   5.668   3.923  11.712  0.3529 -0.0086  0.6431
 2828TIP3   OH229898   1.434   2.133   3.860 -0.1269 -0.1044 -0.5142
 2828TIP3    H129899   1.480   2.193   3.919  0.8669 -0.9375 -0.4274
 2828TIP3    H229900   1.492   2.123   3.785 -1.6145  1.3682 -1.9561
 2829TIP3   OH229901   1.292   3.580   4.766 -0.1032 -0.6933  0.0059
 2829TIP3    H129902   1.239   3.520   4.713 -0.2841 -1.5146  1.0883
 2829TIP3    H229903   1.381   3.567   4.735 -0.4827  0.7072 -1.8442
 2830TIP3   OH229904   3.216   5.937   4.702 -0.1506 -0.5652  0.1945
 2830TIP3    H129905   3.228   5.912   4.793  0.7267 -2.7966 -0.4735
 2830TIP3    H229906   3.121   5.932   4.687 -0.3423  0.2642  1.0757
 2831TIP3   OH229907   3.873   6.289  16.686  0.2634  0.0199  0.1326
 2831TIP3    H129908   3.965   6.271  16.666  1.1720  1.6875  2.3033
 2831TIP3    H229909   3.850   6.226  16.754  0.9020  1.6053  1.9154
 2832TIP3   OH229910   3.337   1.981  14.949  0.0294 -0.4962 -0.4797
 2832TIP3    H129911   3.317   1.900  14.903  1.6071 -0.0601 -2.0443
 2832TIP3    H229912   3.424   1.967  14.986  0.0885  0.2826 -0.3005
 2833TIP3   OH229913   4.134   0.077  12.687 -0.0273  0.0725 -0.2606
 2833TIP3    H129914   4.109   0.016  12.757  1.2630 -0.9580 -0.6597
 2833TIP3    H229915   4.051   0.103  12.648 -0.6228 -1.6831 -0.2673
 2834TIP3   OH229916   5.775   5.943   5.842 -0.6467  0.3491 -0.4807
 2834TIP3    H129917   5.778   6.016   5.781  0.8189 -0.1131 -1.0167
 2834TIP3    H229918   5.797   5.981   5.927 -1.9449  0.8693 -0.3730
 2835TIP3   OH229919   5.854   3.127   5.254  0.1686  0.2639  0.1948
 2835TIP3    H129920   5.845   3.105   5.161 -0.7801  0.0229  0.3303
 2835TIP3    H229921   5.910   3.058   5.289 -1.8455 -1.3814  0.3773
 2836TIP3   OH229922   4.689   2.874  15.880 -0.1912  0.4471 -0.5802
 2836TIP3    H129923   4.692   2.819  15.802 -2.8457  0.3055 -0.6675
 2836TIP3    H229924   4.681   2.812  15.952  2.2404  0.5763 -0.1123
 2837TIP3   OH229925   6.273   6.692  12.863  0.2968  0.3016  0.3994
 2837TIP3    H129926   6.362   6.727  12.858  0.2904  0.1797 -0.9516
 2837TIP3    H229927   6.284   6.599  12.843  0.0553 -0.0949  1.9351
 2838TIP3   OH229928   3.778   0.697   2.257 -0.2008 -0.3370 -0.4500
 2838TIP3    H129929   3.744   0.733   2.175 -2.0270  1.1297  0.8671
 2838TIP3    H229930   3.726   0.617   2.270  0.3222 -0.7527 -0.8579
 2839TIP3   OH229931   5.316   3.063  16.044 -0.5527 -0.3682 -0.0243
 2839TIP3    H129932   5.328   3.055  15.950  1.7693 -2.3232  0.3560
 2839TIP3    H229933   5.350   3.151  16.065  2.3379 -1.2231 -0.6465
 2840TIP3   OH229934   0.901   1.834  11.443 -0.7622 -0.0587 -0.3998
 2840TIP3    H129935   0.956   1.778  11.388 -0.4191 -0.5719  0.4619
 2840TIP3    H229936   0.864   1.898  11.381  0.7123  0.2458 -1.0096
 2841TIP3   OH229937   1.040   3.993  11.761  0.0979 -0.0278  0.2473
 2841TIP3    H129938   1.098   4.054  11.806 -0.9046 -0.4060  2.1485
 2841TIP3    H229939   1.091   3.913  11.752  0.0394 -0.2336  1.5626
 2842TIP3   OH229940   5.521   4.418  14.939  0.0096 -0.5789  0.0988
 2842TIP3    H129941   5.528   4.458  15.026 -0.8214 -1.7857  0.7632
 2842TIP3    H229942   5.600   4.446  14.893  2.4515 -2.8168  2.4986
 2843TIP3   OH229943   0.584   2.770  16.966  0.1523  0.6598 -0.2537
 2843TIP3    H129944   0.616   2.770  16.876 -0.0837  1.5916 -0.3448
 2843TIP3    H229945   0.569   2.862  16.986 -0.5502  0.3972  0.4749
 2844TIP3   OH229946   5.059   0.240  17.027 -0.3001  0.4978  0.5294
 2844TIP3    H129947   5.135   0.195  17.064 -1.2351 -1.8363 -0.2010
 2844TIP3    H229948   5.050   0.320  17.079  2.2798  0.5819  0.9983
 2845TIP3   OH229949   1.486   6.674   1.694 -0.2324 -0.7801 -0.0203
 2845TIP3    H129950   1.568   6.723   1.697 -0.4929 -0.3502  0.1631
 2845TIP3    H229951   1.458   6.678   1.603 -0.8319  0.3951  0.1939
 2846TIP3   OH229952   0.178   0.363   0.332  0.0236  0.0399  0.2028
 2846TIP3    H129953   0.247   0.336   0.391  0.6813 -0.1361 -0.6244
 2846TIP3    H229954   0.099   0.366   0.386  0.4077 -1.1134  0.8520
 2847TIP3   OH229955   0.062   3.969   2.084 -0.1753 -0.1760  0.1928
 2847TIP3    H129956  -0.004   3.900   2.081  0.7961 -1.1601  0.7154
 2847TIP3    H229957   0.105   3.965   1.999  0.7502 -1.1163  0.6886
 2848TIP3   OH229958   1.629   1.423  14.941  0.1731  0.4582  0.3261
 2848TIP3    H129959   1.668   1.499  14.898 -2.4606  1.5693 -0.2797
 2848TIP3    H229960   1.566   1.461  15.002 -1.4035 -1.2358 -0.1936
 2849TIP3   OH229961   0.620   0.173   5.604 -0.0586  0.5471  0.0113
 2849TIP3    H129962   0.712   0.157   5.620  0.5358  2.0515 -1.5513
 2849TIP3    H229963   0.598   0.119   5.529 -1.0756 -1.4448  1.6452
 2850TIP3   OH229964   4.801   2.834  15.090  0.4465 -0.1768 -0.6145
 2850TIP3    H129965   4.755   2.825  15.173  0.7502  2.8777 -0.0183
 2850TIP3    H229966   4.731   2.839  15.024  0.1218 -0.2773 -0.2787
 2851TIP3   OH229967   3.045   3.480  12.435  0.0666 -0.2087 -0.1690
 2851TIP3    H129968   3.008   3.501  12.349  1.0003  2.0661 -0.1006
 2851TIP3    H229969   3.052   3.564  12.479 -0.7388 -1.3572  2.3449
 2852TIP3   OH229970   4.011   3.988   1.155 -0.2326 -0.3339  0.4559
 2852TIP3    H129971   3.923   4.011   1.184 -0.8248 -0.0193 -1.4548
 2852TIP3    H229972   4.067   4.059   1.187 -0.8291 -0.0351  0.8498
 2853TIP3   OH229973   1.254   5.624  16.786 -0.6327  0.4695 -0.0605
 2853TIP3    H129974   1.166   5.628  16.747 -0.9200  0.3029  0.5609
 2853TIP3    H229975   1.256   5.699  16.846 -1.5983 -1.3718  2.4711
 2854TIP3   OH229976   3.401   4.459  10.838 -0.4178 -0.6110  0.0414
 2854TIP3    H129977   3.446   4.376  10.852 -1.1130 -0.8200  1.1499
 2854TIP3    H229978   3.471   4.523  10.824  0.2376 -0.9728  1.5187
 2855TIP3   OH229979   2.318   2.582  12.986  0.1168  0.1689  0.1412
 2855TIP3    H129980   2.398   2.605  12.938 -0.9030 -0.1167 -1.7498
 2855TIP3    H229981   2.291   2.664  13.027  0.2210  0.7678 -0.9613
 2856TIP3   OH229982   0.020   4.238   0.446 -0.1968 -0.0420  0.1017
 2856TIP3    H129983   0.023   4.331   0.468  0.7392 -0.1345  0.4590
 2856TIP3    H229984  -0.010   4.195   0.526 -0.2182 -0.0749  0.0760
 2857TIP3   OH229985   4.726   0.869  17.169  1.3059 -0.0231  0.3843
 2857TIP3    H129986   4.817   0.889  17.192  1.7437 -2.1447  0.6536
 2857TIP3    H229987   4.729   0.782  17.131 -0.5026  0.2818 -0.5684
 2858TIP3   OH229988   0.071   2.112  16.552 -0.1642 -0.7959  0.0488
 2858TIP3    H129989  -0.024   2.101  16.563 -0.0099 -1.1556  1.1280
 2858TIP3    H229990   0.100   2.154  16.633  0.5157 -0.1189 -0.5339
 2859TIP3   OH229991   1.971   3.266   4.905  0.0067 -0.0618  0.3584
 2859TIP3    H129992   1.924   3.305   4.832 -1.4545 -1.6792  0.3866
 2859TIP3    H229993   2.033   3.206   4.864 -1.2801 -1.4763  0.4240
 2860TIP3   OH229994   1.958   3.952  14.588 -0.6684  0.5038 -0.1888
 2860TIP3    H129995   2.010   3.978  14.664  1.6315 -0.2704 -1.3832
 2860TIP3    H229996   1.920   4.033  14.555  0.0285  1.1490  0.5561
 2861TIP3   OH229997   6.256   0.601   4.350  0.0631 -0.2413 -0.2643
 2861TIP3    H129998   6.195   0.561   4.288  0.5589 -0.1720 -0.7981
 2861TIP3    H229999   6.338   0.607   4.303 -0.1853  2.2332 -0.5244
 2862TIP3   OH230000   2.405   2.338   5.277  0.1460  0.0176 -0.2805
 2862TIP3    H130001   2.362   2.266   5.231 -2.7810  0.9885  0.7169
 2862TIP3    H230002   2.407   2.310   5.368 -0.4963  0.9273  0.0254
 2863TIP3   OH230003   6.116   4.690   1.075  0.4357  0.1379 -0.2574
 2863TIP3    H130004   6.145   4.779   1.057 -2.5578  1.3743  0.5500
 2863TIP3    H230005   6.086   4.692   1.166  2.1024 -2.2642  0.4645
 2864TIP3   OH230006   5.219   0.837  15.923  0.3798  0.4669  0.6908
 2864TIP3    H130007   5.212   0.932  15.935 -1.0261  0.2324  2.1224
 2864TIP3    H230008   5.182   0.800  16.004 -0.8311 -1.3049 -0.6050
 2865TIP3   OH230009   2.747   4.917  12.599  0.2045 -0.3058 -0.4834
 2865TIP3    H130010   2.796   4.855  12.546 -0.8842 -0.4885 -1.2960
 2865TIP3    H230011   2.691   4.863  12.655  0.6221 -0.0910  0.1545
 2866TIP3   OH230012   5.232   3.138  12.196  0.1858  0.4181  0.0179
 2866TIP3    H130013   5.145   3.103  12.177 -0.0648  1.4121 -0.7059
 2866TIP3    H230014   5.253   3.194  12.122  0.2205  2.4671  1.4761
 2867TIP3   OH230015   3.379   2.426  14.398 -0.4397  0.2991 -0.2648
 2867TIP3    H130016   3.351   2.366  14.329 -2.6958 -1.2938  1.8421
 2867TIP3    H230017   3.441   2.485  14.355  0.8627 -2.6233 -2.8380
 2868TIP3   OH230018   2.932   5.849   1.970 -0.5142  0.4250 -0.6426
 2868TIP3    H130019   3.009   5.897   2.000  0.3229 -1.2439 -0.0012
 2868TIP3    H230020   2.942   5.843   1.875  1.9037 -2.4731 -0.3474
 2869TIP3   OH230021   4.135   6.308   0.042 -0.4111  0.3795  0.3377
 2869TIP3    H130022   4.225   6.339   0.053 -1.3885  3.0434  1.8317
 2869TIP3    H230023   4.144   6.216   0.019  2.7106  0.8437 -0.8873
 2870TIP3   OH230024   4.433   2.634  11.309  0.3257 -0.3968 -0.2795
 2870TIP3    H130025   4.446   2.666  11.399 -0.5213  0.4070 -0.4297
 2870TIP3    H230026   4.504   2.674  11.259 -0.1621  0.5102 -0.2756
 2871TIP3   OH230027   0.932   4.940  12.596 -0.2724 -0.4122  0.1923
 2871TIP3    H130028   0.996   4.872  12.616  3.1353  2.4763  0.0695
 2871TIP3    H230029   0.927   4.992  12.676  0.2395  1.3635 -0.8880
 2872TIP3   OH230030   2.743   5.168  12.053  0.0022 -0.3421  0.6604
 2872TIP3    H130031   2.745   5.213  12.137 -1.8945 -1.4053  1.3337
 2872TIP3    H230032   2.770   5.078  12.073 -0.3787 -0.5820  0.1203
 2873TIP3   OH230033   0.580   2.374  11.959 -0.2131 -0.0328  0.3856
 2873TIP3    H130034   0.666   2.354  11.997 -0.8585 -1.9227  0.9769
 2873TIP3    H230035   0.591   2.354  11.866 -0.3506 -1.6532  0.6837
 2874TIP3   OH230036   6.428   6.151  14.085 -0.0960  0.2648 -0.2190
 2874TIP3    H130037   6.400   6.237  14.052  0.4863  0.7450  0.5192
 2874TIP3    H230038   6.509   6.132  14.038  0.0322  0.3454 -0.0318
 2875TIP3   OH230039   1.367   0.245  10.106  0.2367 -0.4199  0.0246
 2875TIP3    H130040   1.330   0.331  10.129  2.1438  0.4225  0.1421
 2875TIP3    H230041   1.324   0.184  10.166  0.3576  0.7862  1.4070
 2876TIP3   OH230042   4.070   1.175  13.921  0.0381  0.2612 -0.7583
 2876TIP3    H130043   3.990   1.124  13.906  0.6404 -0.8861 -0.2287
 2876TIP3    H230044   4.039   1.258  13.957 -0.8636 -0.6129  0.5678
 2877TIP3   OH230045   6.264   4.074  15.183 -0.3639 -0.6149 -0.2232
 2877TIP3    H130046   6.255   3.999  15.242 -1.2485 -1.3213 -1.2218
 2877TIP3    H230047   6.348   4.059  15.140  0.4243  0.0528  1.0121
 2878TIP3   OH230048   0.443   4.609  14.835 -0.2219  0.3464 -0.2086
 2878TIP3    H130049   0.424   4.515  14.842 -2.0737  0.3828 -3.0698
 2878TIP3    H230050   0.538   4.613  14.821 -0.0991 -1.0821  0.0027
 2879TIP3   OH230051   3.467   5.187   0.713 -0.1107  0.2570 -0.4054
 2879TIP3    H130052   3.372   5.190   0.724 -0.0495  1.5006  0.0087
 2879TIP3    H230053   3.497   5.271   0.748  1.2372 -0.5055  0.3585
 2880TIP3   OH230054   4.706   1.903   0.168  0.1016 -0.1807 -0.1531
 2880TIP3    H130055   4.726   1.944   0.084 -0.1306  0.2429 -0.0058
 2880TIP3    H230056   4.791   1.875   0.202 -0.0320 -3.2316 -1.9476
 2881TIP3   OH230057   1.996   1.066   0.803  0.4092 -0.1994  0.3025
 2881TIP3    H130058   1.982   1.029   0.716  2.1356  0.0023 -0.1013
 2881TIP3    H230059   2.080   1.112   0.796  0.4544  0.0301  2.0005
 2882TIP3   OH230060   0.659   6.520  16.864 -0.3530  0.3936  0.3257
 2882TIP3    H130061   0.731   6.565  16.820 -0.6098  0.7477  0.2637
 2882TIP3    H230062   0.604   6.590  16.900  0.4418  0.1106  2.2047
 2883TIP3   OH230063   0.469   1.887  15.529  0.0936  0.0207 -0.2707
 2883TIP3    H130064   0.542   1.906  15.588 -0.0654  0.4673 -0.2148
 2883TIP3    H230065   0.505   1.827  15.465  0.8082  1.0449 -0.8557
 2884TIP3   OH230066   1.656   0.554  12.464 -0.3010 -0.1884 -0.3354
 2884TIP3    H130067   1.682   0.473  12.421 -1.8451 -1.5922  1.2310
 2884TIP3    H230068   1.606   0.526  12.541 -0.2042  2.2393  0.7156
 2885TIP3   OH230069   3.364   0.509  17.308  0.1717 -0.2715 -0.5509
 2885TIP3    H130070   3.409   0.438  17.353  0.7899  0.6382  0.2932
 2885TIP3    H230071   3.300   0.465  17.252  0.4325 -1.4834  0.0742
 2886TIP3   OH230072   0.137   0.919   2.173  0.1237  0.0926  0.4725
 2886TIP3    H130073   0.137   1.003   2.129  0.3507 -0.2565 -0.2028
 2886TIP3    H230074   0.229   0.891   2.173 -0.1124 -0.7367 -0.4533
 2887TIP3   OH230075   6.654   1.800   4.036 -0.1872 -0.4158 -0.6515
 2887TIP3    H130076   6.642   1.821   3.943 -0.1645 -0.2207 -0.6116
 2887TIP3    H230077   6.585   1.848   4.080  0.8030  0.8312 -0.4073
 2888TIP3   OH230078   4.439   5.864   4.951 -0.3241 -0.2794 -0.4616
 2888TIP3    H130079   4.366   5.831   5.003 -0.9916 -0.8481 -1.7379
 2888TIP3    H230080   4.501   5.792   4.949  0.0353  0.0011  0.1331
 2889TIP3   OH230081   6.428   1.919   2.479  0.3557 -0.0207 -0.0541
 2889TIP3    H130082   6.346   1.922   2.526 -0.0806  1.9517 -0.8364
 2889TIP3    H230083   6.477   1.995   2.510  1.2462 -0.3021 -0.7084
 2890TIP3   OH230084   5.673   5.298  15.649 -0.2384  0.1163 -0.0847
 2890TIP3    H130085   5.593   5.331  15.689 -0.2189 -0.8040  0.7619
 2890TIP3    H230086   5.671   5.332  15.560 -1.3057  0.5499  0.0879
 2891TIP3   OH230087   4.170   0.432  15.522 -0.1707 -0.2355  0.3215
 2891TIP3    H130088   4.080   0.402  15.514  0.9988 -3.8355 -2.4232
 2891TIP3    H230089   4.203   0.391  15.602 -0.4017 -0.7094  0.1731
 2892TIP3   OH230090   6.256   5.027   2.931 -0.5069  0.0141  0.1384
 2892TIP3    H130091   6.326   5.078   2.972 -0.3911  0.0275 -0.0731
 2892TIP3    H230092   6.188   5.092   2.911 -0.8603 -0.0998  0.9360
 2893TIP3   OH230093   6.087   4.778  13.183 -0.7388  0.9002  0.2097
 2893TIP3    H130094   6.087   4.864  13.141  0.9492  1.3689  1.0910
 2893TIP3    H230095   6.006   4.737  13.152 -0.6820  2.0697 -1.6809
 2894TIP3   OH230096   3.601   2.476  16.375  0.0921  0.1814  0.1991
 2894TIP3    H130097   3.649   2.515  16.302 -0.7739  0.5266 -0.2054
 2894TIP3    H230098   3.639   2.516  16.453  0.2903  0.6299 -0.1232
 2895TIP3   OH230099   5.914   0.077  11.941 -0.4009  0.1790 -0.1607
 2895TIP3    H130100   5.994   0.074  11.995  0.6510  0.3172 -1.6468
 2895TIP3    H230101   5.869   0.156  11.972  0.5485  0.6736  0.0401
 2896TIP3   OH230102   3.806   2.332   0.731  0.1656 -0.2278  0.4547
 2896TIP3    H130103   3.802   2.395   0.659  0.3894 -0.9358 -0.1955
 2896TIP3    H230104   3.888   2.352   0.776  1.4178 -1.5118 -1.1559
 2897TIP3   OH230105   0.810   1.889   1.648  0.1563  0.4326  0.4712
 2897TIP3    H130106   0.829   1.863   1.558  0.0849  0.2302  0.5154
 2897TIP3    H230107   0.834   1.814   1.701 -0.6395  0.2132  0.5399
 2898TIP3   OH230108   0.180   5.936   2.288  0.6239 -0.1754 -0.1398
 2898TIP3    H130109   0.118   5.926   2.361  2.1858 -0.2390  1.2376
 2898TIP3    H230110   0.213   5.847   2.273 -0.0143 -0.2378 -1.2554
 2899TIP3   OH230111   2.237   3.216   5.663 -0.3858 -0.1747  0.5436
 2899TIP3    H130112   2.174   3.195   5.733  0.5614 -0.3810  1.3506
 2899TIP3    H230113   2.189   3.198   5.582 -1.8668  1.0874  1.0943
 2900TIP3   OH230114   1.694   0.979  11.800 -0.1952  0.0716 -0.3897
 2900TIP3    H130115   1.714   0.892  11.835  0.0176 -0.1569 -1.0585
 2900TIP3    H230116   1.778   1.023  11.796 -0.4789  0.8571  1.3204
 2901TIP3   OH230117   1.975   0.861   0.039 -0.5235 -0.2233 -0.3402
 2901TIP3    H130118   2.003   0.921  -0.030  2.7265 -0.6556  0.4498
 2901TIP3    H230119   1.984   0.774   0.001  2.1312 -0.5178  0.7475
 2902TIP3   OH230120   2.600   6.129  16.082  0.2544 -0.5050 -0.1500
 2902TIP3    H130121   2.642   6.215  16.089 -1.5358  0.3720  0.3433
 2902TIP3    H230122   2.560   6.114  16.167 -1.6895 -0.5982 -1.0287
 2903TIP3   OH230123   0.292   3.794  17.115 -0.5424  0.1409 -0.7236
 2903TIP3    H130124   0.278   3.846  17.035 -0.7046  1.3565  0.0761
 2903TIP3    H230125   0.302   3.859  17.184 -0.4855 -0.9063  0.2700
 2904TIP3   OH230126   4.765   1.356   3.065  0.5873  0.5503  0.6955
 2904TIP3    H130127   4.791   1.316   2.981  0.7607 -1.1041  1.4968
 2904TIP3    H230128   4.676   1.323   3.080 -0.6458  3.1888 -0.2057
 2905TIP3   OH230129   3.193   4.530  16.647 -0.7193 -0.3389  0.0240
 2905TIP3    H130130   3.180   4.436  16.630 -1.0314 -0.1379 -0.8870
 2905TIP3    H230131   3.134   4.549  16.720 -0.7011 -0.8380  0.1774
 2906TIP3   OH230132   5.374   2.765   0.688  0.2335 -0.0339  0.5587
 2906TIP3    H130133   5.294   2.818   0.683 -0.2322 -0.8725 -2.1673
 2906TIP3    H230134   5.422   2.785   0.609  1.7224 -1.1366  1.1310
 2907TIP3   OH230135   2.275   3.186   1.405 -0.1134 -0.2218 -0.1600
 2907TIP3    H130136   2.280   3.116   1.340  1.6325 -0.2748 -0.0219
 2907TIP3    H230137   2.270   3.141   1.489 -1.5422 -0.1518 -0.1865
 2908TIP3   OH230138   5.136   4.949   4.103  0.0169 -0.1518  0.0754
 2908TIP3    H130139   5.100   4.936   4.191  0.9335  1.9896  0.8335
 2908TIP3    H230140   5.123   4.865   4.059 -2.3547 -0.6382  1.5499
 2909TIP3   OH230141   1.372   3.558  13.136  0.1744 -0.3029  0.4804
 2909TIP3    H130142   1.355   3.603  13.053  0.8643 -0.6824  0.1284
 2909TIP3    H230143   1.433   3.616  13.182  0.7829 -0.6877  0.1778
 2910TIP3   OH230144   0.720   3.404   1.666 -0.1555 -0.4244  0.0949
 2910TIP3    H130145   0.739   3.313   1.642 -2.4661 -1.4158  1.7575
 2910TIP3    H230146   0.667   3.398   1.745 -1.3346  2.3389 -0.3731
 2911TIP3   OH230147   5.031   6.101  12.561  0.5100  0.1670 -0.0190
 2911TIP3    H130148   5.052   6.149  12.642  0.4785  1.0808 -0.5352
 2911TIP3    H230149   4.935   6.105  12.555  0.5623  0.8265 -0.5206
 2912TIP3   OH230150   3.083   2.162   3.302 -0.8459 -0.2235  0.3749
 2912TIP3    H130151   3.104   2.069   3.302  0.4985  0.0338 -1.1364
 2912TIP3    H230152   3.052   2.179   3.213 -2.9344  0.4222  1.1748
 2913TIP3   OH230153   4.167   4.651  11.703 -0.3678 -0.6578  0.0902
 2913TIP3    H130154   4.246   4.620  11.748  0.3881 -0.8443 -1.3085
 2913TIP3    H230155   4.200   4.706  11.632 -1.5445  0.0381  0.0554
 2914TIP3   OH230156   6.609   6.563  12.683 -0.3583 -0.2083  0.6508
 2914TIP3    H130157   6.701   6.578  12.659  0.2891 -0.1742  2.9648
 2914TIP3    H230158   6.559   6.608  12.615  1.3431  0.3253 -0.3033
 2915TIP3   OH230159   2.220   1.237   3.860  0.2152  0.4525 -0.1964
 2915TIP3    H130160   2.232   1.331   3.843  0.4996  0.9224  2.1824
 2915TIP3    H230161   2.296   1.195   3.821  1.6558  1.6047  1.2024
 2916TIP3   OH230162   0.062   2.893   5.151  0.2580 -0.0108 -0.0843
 2916TIP3    H130163   0.099   2.838   5.220 -2.0088 -1.0043  0.4144
 2916TIP3    H230164   0.096   2.981   5.170 -0.0870 -0.3104  2.1599
 2917TIP3   OH230165   4.712   3.997   2.024  0.2507 -0.2396  0.2580
 2917TIP3    H130166   4.778   3.928   2.026 -0.2925 -0.7961 -0.4603
 2917TIP3    H230167   4.760   4.076   2.000  0.8681 -0.3701  1.0381
 2918TIP3   OH230168   0.980   5.189   3.845 -0.0956 -0.0410 -0.1318
 2918TIP3    H130169   0.979   5.098   3.871  0.8507 -0.2168 -0.6546
 2918TIP3    H230170   1.068   5.203   3.808 -0.5821  0.7847 -1.0458
 2919TIP3   OH230171   3.888   2.375  16.331  0.2337  0.1846 -0.0343
 2919TIP3    H130172   3.943   2.351  16.406  0.9778  0.9093 -0.3329
 2919TIP3    H230173   3.915   2.464  16.309  0.2902 -0.1423 -1.3941
 2920TIP3   OH230174   2.479   4.380   3.456  0.2354  0.0161 -0.0825
 2920TIP3    H130175   2.441   4.468   3.451  0.7430  0.4126  1.9849
 2920TIP3    H230176   2.447   4.345   3.539  2.4858 -0.5495  0.6199
 2921TIP3   OH230177   2.034   4.049   0.932  0.5337  0.2817 -0.3275
 2921TIP3    H130178   2.125   4.046   0.901  0.4178 -0.7566 -0.6108
 2921TIP3    H230179   2.041   4.080   1.022  0.9182  2.8714 -1.1646
 2922TIP3   OH230180   5.098   5.350  12.616  0.1235  0.3600 -0.3663
 2922TIP3    H130181   5.016   5.342  12.664  1.2017 -0.1777  1.5014
 2922TIP3    H230182   5.164   5.315  12.676  1.7968  1.3339 -1.5527
 2923TIP3   OH230183   2.674   5.282  13.240 -0.8765  0.5392 -0.2939
 2923TIP3    H130184   2.758   5.325  13.253 -0.4104 -0.2499 -0.5499
 2923TIP3    H230185   2.622   5.345  13.190 -0.7390  1.3638  0.5851
 2924TIP3   OH230186   2.732   5.534  15.692  0.5119 -0.0521 -0.4839
 2924TIP3    H130187   2.672   5.478  15.643 -2.4710  1.7009  0.8325
 2924TIP3    H230188   2.678   5.610  15.717  3.0394  1.1967  1.6954
 2925TIP3   OH230189   5.517   5.025   1.455  0.1549 -0.0583  0.3353
 2925TIP3    H130190   5.572   4.947   1.458 -0.4648 -0.4724  1.6797
 2925TIP3    H230191   5.546   5.078   1.529 -0.7945  0.0079  0.6864
 2926TIP3   OH230192   1.805   2.286   1.038 -0.0914  0.3853  0.0655
 2926TIP3    H130193   1.827   2.259   1.127 -1.1221 -0.0679  0.1986
 2926TIP3    H230194   1.886   2.272   0.988  0.3534  0.1866  0.8218
 2927TIP3   OH230195   0.644   6.351   0.418  0.0606  0.1644  0.6807
 2927TIP3    H130196   0.695   6.420   0.461  1.4805 -0.4860  0.1326
 2927TIP3    H230197   0.553   6.369   0.441  0.4682  1.7977  1.1215
 2928TIP3   OH230198   1.150   2.169  12.443  0.3323  0.5531  0.0583
 2928TIP3    H130199   1.119   2.174  12.353 -0.6019  0.4610  0.3708
 2928TIP3    H230200   1.246   2.166  12.435  0.2287 -1.4638 -1.0211
 2929TIP3   OH230201   6.689   1.922   0.259 -0.0672 -0.1300 -0.6612
 2929TIP3    H130202   6.742   1.845   0.237  0.0217  0.2379 -1.7640
 2929TIP3    H230203   6.752   1.993   0.264 -0.2597  0.0252 -0.4478
 2930TIP3   OH230204   1.928   1.599   6.047 -0.6866 -0.0032 -0.2335
 2930TIP3    H130205   1.898   1.682   6.084  1.4552  0.7755 -0.0858
 2930TIP3    H230206   1.878   1.589   5.966 -0.1613  2.0840 -0.8960
 2931TIP3   OH230207   6.393   2.666  15.071 -0.8219  0.1240  0.1044
 2931TIP3    H130208   6.443   2.594  15.111  0.4930  1.3649  0.7821
 2931TIP3    H230209   6.448   2.697  15.000 -0.8178  1.2379  0.5778
 2932TIP3   OH230210   5.373   2.159  17.129  0.4831 -0.2288 -0.7240
 2932TIP3    H130211   5.379   2.143  17.035  0.2292 -0.9075 -0.6280
 2932TIP3    H230212   5.351   2.252  17.135  0.8176 -0.0993 -1.3232
 2933TIP3   OH230213   2.230   0.904  14.243 -0.2623  0.0662  0.5824
 2933TIP3    H130214   2.247   0.809  14.244  0.9651  0.2627  1.2413
 2933TIP3    H230215   2.165   0.917  14.312 -0.5903 -0.3200  0.3509
 2934TIP3   OH230216   0.278   6.483  16.044  0.4837  0.0184 -0.0796
 2934TIP3    H130217   0.279   6.419  16.116 -0.2265 -0.1837 -0.2425
 2934TIP3    H230218   0.284   6.568  16.088  1.2927 -0.1442  0.1494
 2935TIP3   OH230219   2.558   4.089  15.546  0.1995  0.2560  0.9399
 2935TIP3    H130220   2.636   4.118  15.499  0.4345  2.1226  2.3629
 2935TIP3    H230221   2.560   3.994  15.540  2.0461  0.3071  0.1277
 2936TIP3   OH230222   4.632   4.105   1.611 -0.0244 -0.3544 -0.1035
 2936TIP3    H130223   4.690   4.117   1.536 -0.6812  0.2566 -0.5295
 2936TIP3    H230224   4.682   4.138   1.685  1.4637 -2.9030  0.1277
 2937TIP3   OH230225   4.694   1.131   5.495 -0.7981  0.2968  0.0675
 2937TIP3    H130226   4.696   1.054   5.438 -0.0773 -0.2600  0.8408
 2937TIP3    H230227   4.638   1.106   5.568  1.0834 -0.2674  1.3789
 2938TIP3   OH230228   4.673   1.253  14.760 -0.1927 -0.0898  0.0468
 2938TIP3    H130229   4.752   1.254  14.706 -1.3017 -1.0470 -1.7352
 2938TIP3    H230230   4.704   1.267  14.849  1.9165  0.0365 -0.6465
 2939TIP3   OH230231   4.058   1.217   4.779 -0.4503  0.0107  0.2619
 2939TIP3    H130232   4.017   1.268   4.709 -1.4322  1.0205  1.5350
 2939TIP3    H230233   4.007   1.136   4.782 -0.0826 -0.2654 -0.4934
 2940TIP3   OH230234   6.651   0.837  12.854 -0.0632 -0.2767 -0.6397
 2940TIP3    H130235   6.675   0.782  12.780  1.6067 -1.5196  0.7545
 2940TIP3    H230236   6.717   0.818  12.921 -0.6946  1.8328  0.6823
 2941TIP3   OH230237   0.295   0.157  17.218  0.2149 -0.3120 -0.1910
 2941TIP3    H130238   0.389   0.145  17.228  0.0854  0.2218  2.1903
 2941TIP3    H230239   0.260   0.151  17.306 -1.9119  0.2453 -0.9257
 2942TIP3   OH230240   2.596   5.502   2.920 -0.5539 -0.4542  0.0802
 2942TIP3    H130241   2.518   5.453   2.894 -0.6502 -1.1466  1.5739
 2942TIP3    H230242   2.658   5.435   2.950 -0.4162  0.2500  1.4553
 2943TIP3   OH230243   4.896   5.424  14.115  0.1651 -0.0193  0.0456
 2943TIP3    H130244   4.976   5.463  14.149 -0.7255  1.2359  0.8021
 2943TIP3    H230245   4.926   5.364  14.047  1.6399  2.7290 -1.9474
 2944TIP3   OH230246   5.361   1.846  12.426  0.2162  0.2714  0.1541
 2944TIP3    H130247   5.437   1.789  12.413  0.4619  0.5961  0.1522
 2944TIP3    H230248   5.298   1.791  12.474  0.1118 -0.2669 -0.5904
 2945TIP3   OH230249   5.962   5.724  14.840  0.7432  0.3356 -0.0867
 2945TIP3    H130250   5.905   5.653  14.811 -0.9619  2.0230 -1.0841
 2945TIP3    H230251   6.007   5.754  14.761  2.1128 -0.1542  0.4722
 2946TIP3   OH230252   5.471   4.831   1.805  0.2476  0.6915 -0.4525
 2946TIP3    H130253   5.558   4.870   1.808 -0.1796  1.8919 -2.5139
 2946TIP3    H230254   5.412   4.904   1.791 -0.8890 -0.3423 -1.2163
 2947TIP3   OH230255   0.186   2.348  16.052 -0.1507  0.4847  0.3156
 2947TIP3    H130256   0.148   2.345  16.140  0.9158  0.0979  0.7759
 2947TIP3    H230257   0.165   2.263  16.014 -0.0852  0.4211  0.4209
 2948TIP3   OH230258   1.517   4.387   4.228 -0.1093  0.1333  0.6949
 2948TIP3    H130259   1.563   4.327   4.170  0.7750  0.8478  0.6350
 2948TIP3    H230260   1.525   4.348   4.315  1.2795  0.5988  0.8094
 2949TIP3   OH230261   3.075   4.952   3.869  0.1735  0.2218 -0.1936
 2949TIP3    H130262   2.998   4.896   3.853  0.1316  0.2766 -0.1815
 2949TIP3    H230263   3.038   5.037   3.893  0.1772 -0.5980  3.1235
 2950TIP3   OH230264   2.813   3.212   5.435  0.2307  0.1985  0.0613
 2950TIP3    H130265   2.825   3.292   5.383  1.1211 -0.0687 -0.1572
 2950TIP3    H230266   2.808   3.243   5.525 -0.0978  0.5566 -0.0741
 2951TIP3   OH230267   2.175   6.023  15.368 -0.1128 -0.0798  0.4131
 2951TIP3    H130268   2.096   5.970  15.359 -1.1333  1.4965 -0.5338
 2951TIP3    H230269   2.185   6.036  15.463 -0.9732 -0.3222  0.5432
 2952TIP3   OH230270   2.632   2.318   5.767 -0.5387  0.6399 -0.2921
 2952TIP3    H130271   2.655   2.397   5.816 -0.1055  0.8305 -0.7914
 2952TIP3    H230272   2.544   2.295   5.799  0.4099 -0.2736  1.8307
 2953TIP3   OH230273   2.954   6.051  16.983 -0.0510 -0.0689 -0.0512
 2953TIP3    H130274   2.897   6.021  17.054  0.0381 -0.0108  0.0448
 2953TIP3    H230275   2.934   6.144  16.974  1.8221  0.6021  1.7146
 2954TIP3   OH230276   4.436   0.679   6.778  0.3432 -0.3292  0.2354
 2954TIP3    H130277   4.481   0.728   6.847  0.3507 -0.2266  0.1590
 2954TIP3    H230278   4.396   0.747   6.724 -0.3350 -0.4335  0.5927
 2955TIP3   OH230279   5.288   0.749  14.289  1.3296 -0.0794 -0.6236
 2955TIP3    H130280   5.358   0.794  14.336  1.7593 -0.3442 -0.9982
 2955TIP3    H230281   5.215   0.810  14.290  1.4156  0.0261  0.1560
 2956TIP3   OH230282   3.243   3.772   5.130  0.5886  0.8898 -0.0746
 2956TIP3    H130283   3.307   3.829   5.172  0.7666  0.3524  0.4043
 2956TIP3    H230284   3.290   3.733   5.057  0.2375  1.9328 -0.8844
 2957TIP3   OH230285   0.233   1.240   4.574  0.7390  0.2557 -0.0818
 2957TIP3    H130286   0.182   1.320   4.558  0.7287  0.2614 -0.0197
 2957TIP3    H230287   0.192   1.200   4.651  0.5134 -0.0004 -0.3311
 2958TIP3   OH230288   0.123   1.906  15.561  0.3540 -0.1812 -0.6237
 2958TIP3    H130289   0.052   1.968  15.544 -0.2752 -0.6198  0.3235
 2958TIP3    H230290   0.174   1.906  15.480 -0.8439 -0.0102 -1.4146
 2959TIP3   OH230291   3.890   2.864   1.218 -0.0841  0.1041  0.1709
 2959TIP3    H130292   3.939   2.943   1.193 -1.0186  0.0375 -2.1013
 2959TIP3    H230293   3.828   2.895   1.284  1.1691  0.7376  1.0952
 2960TIP3   OH230294   5.055   6.286  17.089  0.7225  0.1261 -1.0503
 2960TIP3    H130295   4.974   6.288  17.139  1.0988 -0.2523 -0.4226
 2960TIP3    H230296   5.068   6.377  17.060 -0.0261  0.1472 -1.3370
 2961TIP3   OH230297   4.804   2.919  11.348  0.3394  0.5194  0.2582
 2961TIP3    H130298   4.795   2.887  11.259 -0.1378  1.0344  0.1108
 2961TIP3    H230299   4.880   2.977  11.346  0.7808 -0.0508  0.3635
 2962TIP3   OH230300   5.281   1.422  15.854 -0.2462 -0.3374 -0.0573
 2962TIP3    H130301   5.374   1.399  15.848  0.3106  1.9597 -1.7304
 2962TIP3    H230302   5.236   1.348  15.813  0.7230 -1.9037  1.5724
 2963TIP3   OH230303   2.793   2.489   2.341 -0.4613 -0.5513  0.3486
 2963TIP3    H130304   2.880   2.458   2.316 -1.5453 -0.8757 -3.7202
 2963TIP3    H230305   2.733   2.433   2.291 -2.8293  1.9124  0.2212
 2964TIP3   OH230306   1.675   1.425  16.726  0.0395 -0.4083 -0.2095
 2964TIP3    H130307   1.747   1.373  16.692  0.6904 -0.1136  0.6736
 2964TIP3    H230308   1.605   1.414  16.662  0.1820 -2.3030 -0.0887
 2965TIP3   OH230309   4.617   6.649  15.293 -0.0990 -0.2109  0.2096
 2965TIP3    H130310   4.711   6.645  15.315 -0.0231 -1.7500 -0.2758
 2965TIP3    H230311   4.615   6.691  15.207  0.4050 -2.1785 -0.8522
 2966TIP3   OH230312   3.022   2.512   5.258 -0.6984  0.6120 -0.3304
 2966TIP3    H130313   3.024   2.480   5.168  0.4977 -1.4862  0.3813
 2966TIP3    H230314   3.114   2.532   5.277 -0.5442 -1.2683  1.1446
 2967TIP3   OH230315   2.635   6.040  12.639  0.0814  0.2940 -0.1950
 2967TIP3    H130316   2.682   6.010  12.716  0.5095 -0.9280 -0.9093
 2967TIP3    H230317   2.596   5.961  12.602  0.0598  0.8166 -1.3413
 2968TIP3   OH230318   6.181   2.945  11.678  0.7636  0.4887 -0.5188
 2968TIP3    H130319   6.181   2.985  11.765  1.0123 -0.6605  0.0216
 2968TIP3    H230320   6.179   2.851  11.695 -1.4128  0.2480 -1.7613
 2969TIP3   OH230321   2.705   2.506  14.403  0.4181  0.6643  0.3609
 2969TIP3    H130322   2.783   2.470  14.446  0.5628  3.8923  3.1660
 2969TIP3    H230323   2.695   2.594  14.439 -2.5777  1.7300 -2.5134
 2970TIP3   OH230324   4.087   2.505   0.334 -0.2633 -0.8688 -0.8638
 2970TIP3    H130325   4.136   2.441   0.283  0.0344  0.2769 -2.0738
 2970TIP3    H230326   3.999   2.504   0.296 -0.5199 -1.1898 -0.2847
 2971TIP3   OH230327   6.318   2.886  11.050 -0.0051  0.6261  0.1717
 2971TIP3    H130328   6.382   2.921  10.989  0.2440  0.8784  0.5730
 2971TIP3    H230329   6.247   2.950  11.050 -1.1105 -0.5152 -1.6260
 2972TIP3   OH230330   6.029   0.358  14.508 -0.2664  0.1928  0.0643
 2972TIP3    H130331   6.033   0.334  14.601  0.5364 -2.2216 -0.5137
 2972TIP3    H230332   6.021   0.274  14.463 -1.9323  1.3846 -2.0227
 2973TIP3   OH230333   1.007   1.768  13.281  0.0114 -0.2937 -0.0334
 2973TIP3    H130334   1.022   1.769  13.375  2.1993  1.0710 -0.3271
 2973TIP3    H230335   0.929   1.714  13.269 -0.3827 -0.3824  2.5491
 2974TIP3   OH230336   4.046   0.444  11.152 -0.0095  0.2232 -0.4185
 2974TIP3    H130337   4.025   0.352  11.136 -0.8221 -0.0722  1.9839
 2974TIP3    H230338   4.107   0.442  11.226 -0.6048  1.6252  0.1419
 2975TIP3   OH230339   1.298   3.938  15.722 -0.1658  0.4838  0.0237
 2975TIP3    H130340   1.356   3.985  15.780 -0.0722 -1.3566  1.4980
 2975TIP3    H230341   1.234   3.896  15.780 -1.5258  0.5217 -1.3775
 2976TIP3   OH230342   6.265   3.309  17.353 -0.6700  0.2297  0.5632
 2976TIP3    H130343   6.293   3.351  17.272 -0.1266 -1.7890 -0.3361
 2976TIP3    H230344   6.217   3.378  17.400  1.7388  2.4134  0.0322
 2977TIP3   OH230345   5.452   2.288  16.301 -0.7241  0.3516 -0.7808
 2977TIP3    H130346   5.502   2.368  16.286 -0.2342 -0.0397 -1.2503
 2977TIP3    H230347   5.469   2.267  16.393  0.5768 -0.1775 -1.1211
 2978TIP3   OH230348   3.560   0.863  11.516  0.2566  0.4687 -0.2908
 2978TIP3    H130349   3.576   0.881  11.423  0.5608  2.0474  0.0351
 2978TIP3    H230350   3.617   0.789  11.537 -1.5678 -1.5200 -1.9069
 2979TIP3   OH230351   0.857   3.861   3.829  0.3951 -0.0983  0.2698
 2979TIP3    H130352   0.899   3.776   3.843  1.2577  0.0124 -1.4175
 2979TIP3    H230353   0.794   3.845   3.759  1.2046  0.8396 -0.6935
 2980TIP3   OH230354   4.971   1.212  16.577  0.0081  0.0694 -0.2220
 2980TIP3    H130355   5.062   1.191  16.599 -0.5299 -2.2626 -0.0070
 2980TIP3    H230356   4.921   1.185  16.653 -0.8041  2.6013  0.2234
 2981TIP3   OH230357   0.105   0.656   4.762 -0.9576 -0.1941  0.1693
 2981TIP3    H130358   0.078   0.737   4.805 -0.1516 -0.4293  1.1638
 2981TIP3    H230359   0.039   0.641   4.695 -0.9014  1.4921 -0.3065
 2982TIP3   OH230360   3.650   1.581   0.870  0.1435 -0.2030  0.4401
 2982TIP3    H130361   3.675   1.554   0.781 -0.3282 -1.4023  0.6531
 2982TIP3    H230362   3.619   1.671   0.859  1.5033  0.2130 -0.3456
 2983TIP3   OH230363   5.919   5.150   0.856 -0.5916  0.5937  0.1297
 2983TIP3    H130364   5.960   5.161   0.942 -1.0699  1.0387  0.3052
 2983TIP3    H230365   5.891   5.059   0.854  1.0033  0.0720 -0.2659
 2984TIP3   OH230366   1.866   2.153  11.245  0.4272  0.1121  0.1787
 2984TIP3    H130367   1.843   2.196  11.163 -0.2598 -0.5913 -0.0037
 2984TIP3    H230368   1.791   2.170  11.302  0.3266 -0.5142  0.2316
 2985TIP3   OH230369   0.616   2.964   5.724 -0.3544  0.1002  0.0262
 2985TIP3    H130370   0.524   2.984   5.743  0.0172  0.7514  1.3143
 2985TIP3    H230371   0.645   3.036   5.668 -0.1558  0.9658  1.1852
 2986TIP3   OH230372   1.920   0.120  10.503  0.0173  0.0306  0.0640
 2986TIP3    H130373   1.871   0.150  10.427 -0.6088  0.2818  0.5603
 2986TIP3    H230374   1.985   0.059  10.467 -1.9816 -1.9693 -0.4000
 2987TIP3   OH230375   3.874   1.825   1.237 -0.6205  0.1275  0.7636
 2987TIP3    H130376   3.847   1.756   1.175 -1.3353 -0.5784  1.8178
 2987TIP3    H230377   3.892   1.901   1.182 -0.8001 -0.6115 -0.3506
 2988TIP3   OH230378   0.904   0.012   3.798 -0.6579 -0.5435 -0.1088
 2988TIP3    H130379   0.833  -0.040   3.760  1.8471 -2.7508 -2.1774
 2988TIP3    H230380   0.897   0.098   3.756 -0.0393 -1.8536 -3.1394
 2989TIP3   OH230381   6.168   2.200   5.039  0.3412 -0.0439  0.2711
 2989TIP3    H130382   6.224   2.210   4.962  0.3349 -1.3091  0.0799
 2989TIP3    H230383   6.079   2.210   5.006  0.2209 -2.3865 -0.2740
 2990TIP3   OH230384   0.212   1.552   0.237 -0.4523 -0.3228 -0.0211
 2990TIP3    H130385   0.189   1.606   0.313  1.3072  0.3028  0.1005
 2990TIP3    H230386   0.238   1.468   0.274 -2.9776 -1.2910 -0.1987
 2991TIP3   OH230387   5.516   5.090  17.075 -0.3750  0.2953  0.7915
 2991TIP3    H130388   5.509   5.140  16.994  0.1354  1.4001  1.4102
 2991TIP3    H230389   5.443   5.028  17.071  0.7586 -1.0214 -1.4062
 2992TIP3   OH230390   3.255   2.730   0.643  0.3368  0.0330 -0.0463
 2992TIP3    H130391   3.338   2.699   0.607  0.6437  0.0422  0.6364
 2992TIP3    H230392   3.201   2.651   0.652 -0.6372  0.2985 -2.7106
 2993TIP3   OH230393   6.666   2.726   0.437 -0.4460 -0.1697 -0.1874
 2993TIP3    H130394   6.730   2.752   0.504 -1.4301  0.5157  0.5036
 2993TIP3    H230395   6.602   2.797   0.436  0.8851  1.2065 -3.6999
 2994TIP3   OH230396   0.240   2.555   0.684 -0.1034 -0.4290  0.5259
 2994TIP3    H130397   0.275   2.534   0.597 -0.1105  1.0652  0.1410
 2994TIP3    H230398   0.315   2.549   0.742  0.6768  1.8534 -0.1508
 2995TIP3   OH230399   2.793   4.488   3.093  0.0376 -0.2605 -0.3125
 2995TIP3    H130400   2.709   4.530   3.076 -0.0294 -0.1881  0.1761
 2995TIP3    H230401   2.827   4.533   3.170  1.6791  1.4012 -1.8964
 2996TIP3   OH230402   0.387   2.167  15.519 -0.0388  0.2098  0.2165
 2996TIP3    H130403   0.470   2.215  15.510 -0.4532  0.7920 -0.6245
 2996TIP3    H230404   0.413   2.080  15.550  0.9884  0.0492 -1.0153
 2997TIP3   OH230405   1.424   0.335   5.244  0.1829  0.3193 -0.0030
 2997TIP3    H130406   1.425   0.240   5.227  0.2780  0.1856  0.7095
 2997TIP3    H230407   1.494   0.348   5.309  0.3304  0.9137 -0.2777
 2998TIP3   OH230408   3.368   5.710   3.896  0.1694 -0.1116  0.3575
 2998TIP3    H130409   3.352   5.643   3.829  1.8118 -0.1994  0.0056
 2998TIP3    H230410   3.463   5.710   3.908  0.0580  1.0477  1.5242
 2999TIP3   OH230411   2.417   1.671  16.064  0.1931  0.0304  0.0443
 2999TIP3    H130412   2.371   1.696  15.984  1.8783  3.2746 -0.0611
 2999TIP3    H230413   2.348   1.644  16.124 -1.2112 -1.4649 -2.0864
 3000TIP3   OH230414   3.231   1.057   1.824  0.1980 -0.7425  0.3861
 3000TIP3    H130415   3.143   1.032   1.797  0.7645 -1.3879 -0.9726
 3000TIP3    H230416   3.233   1.041   1.919 -1.0053 -1.1300  0.3591
 3001TIP3   OH230417   1.467   5.081  13.220  0.2340 -0.4339  0.3162
 3001TIP3    H130418   1.426   5.125  13.294  2.3144  2.5489 -0.1193
 3001TIP3    H230419   1.419   4.999  13.211 -2.0428  0.4418  3.0449
 3002TIP3   OH230420   0.078   4.163  15.388  0.2372  0.0340  0.1157
 3002TIP3    H130421   0.161   4.141  15.345 -0.8600  0.8377 -2.6286
 3002TIP3    H230422   0.024   4.085  15.377 -0.8796  1.0272 -2.3791
 3003TIP3   OH230423   2.101   6.391  16.620 -0.0970 -0.2329 -0.2191
 3003TIP3    H130424   2.015   6.400  16.580 -0.1920 -3.7715 -1.1864
 3003TIP3    H230425   2.161   6.381  16.546  1.0566  1.3119  0.4540
 3004TIP3   OH230426   2.673   1.322  14.651  0.6651  0.5679  0.0868
 3004TIP3    H130427   2.578   1.316  14.662  0.8210  0.1237  1.2350
 3004TIP3    H230428   2.698   1.400  14.700  1.2480 -0.9597  2.3704
 3005TIP3   OH230429   5.165   6.320   1.113  0.2991 -0.5305 -0.1593
 3005TIP3    H130430   5.206   6.328   1.027  0.0293 -0.4860 -0.2822
 3005TIP3    H230431   5.074   6.343   1.099 -0.0967 -1.9998 -0.1578
 3006TIP3   OH230432   0.492   6.242  14.313 -0.4724 -0.2209  0.0907
 3006TIP3    H130433   0.508   6.328  14.273 -3.4535  0.4649  0.1302
 3006TIP3    H230434   0.488   6.182  14.238  3.0866 -0.7192  0.1538
 3007TIP3   OH230435   6.096   3.888   0.721  0.5502 -0.0215  0.2061
 3007TIP3    H130436   6.002   3.898   0.708  0.8922  1.0881 -1.7463
 3007TIP3    H230437   6.103   3.829   0.797 -1.6865  1.2496  1.5360
 3008TIP3   OH230438   3.337   3.978   0.327 -0.0614  0.8769  0.2189
 3008TIP3    H130439   3.330   3.925   0.247 -1.1311 -0.0414  0.8918
 3008TIP3    H230440   3.412   4.035   0.311 -0.6778  1.2354 -1.7467
 3009TIP3   OH230441   6.508   6.456  15.365  0.2303 -0.1049 -0.1321
 3009TIP3    H130442   6.567   6.524  15.332  0.2390  0.4058  0.9027
 3009TIP3    H230443   6.548   6.427  15.447 -0.8321  0.0943  0.4762
 3010TIP3   OH230444   6.100   1.838  12.676 -0.2054 -0.7907 -0.0226
 3010TIP3    H130445   6.055   1.909  12.723  1.1206  1.5512 -2.0148
 3010TIP3    H230446   6.043   1.819  12.602 -0.4558 -1.7038  0.3966
 3011TIP3   OH230447   5.717   3.611  16.767  0.0837 -0.2990 -0.4125
 3011TIP3    H130448   5.718   3.549  16.840  0.6127 -1.6989 -1.5436
 3011TIP3    H230449   5.712   3.555  16.689  1.4861  1.0416 -1.5351
 3012TIP3   OH230450   2.998   6.004  12.958  0.9137  0.4573 -0.2554
 3012TIP3    H130451   3.059   5.940  12.921 -0.0814  0.2011 -1.5240
 3012TIP3    H230452   3.034   6.089  12.934  0.6621  0.3020 -1.2011
 3013TIP3   OH230453   0.753   3.637  16.323  0.3968  0.1547  0.4403
 3013TIP3    H130454   0.687   3.701  16.298 -0.3149 -0.2703  1.1958
 3013TIP3    H230455   0.712   3.584  16.391  1.7700  0.3832  1.5096
 3014TIP3   OH230456   3.269   0.596   0.852 -0.0977  0.3385  0.2174
 3014TIP3    H130457   3.195   0.543   0.883 -0.2118  0.9146  0.9740
 3014TIP3    H230458   3.260   0.598   0.757 -0.1819 -0.8628  0.1942
 3015TIP3   OH230459   3.918   0.772  11.358 -0.6306  0.4407 -0.3690
 3015TIP3    H130460   3.926   0.864  11.385  0.1563  0.1148  0.5722
 3015TIP3    H230461   3.827   0.763  11.331 -1.4038  0.9116  1.8723
 3016TIP3   OH230462   6.191   3.959   3.583  0.1440 -0.0705 -0.1408
 3016TIP3    H130463   6.183   3.864   3.585  1.7988 -0.2337  1.3266
 3016TIP3    H230464   6.104   3.991   3.606  0.1878 -1.3245  2.0736
 3017TIP3   OH230465   5.886   3.504  16.336 -0.4928 -0.4377  0.2050
 3017TIP3    H130466   5.909   3.512  16.243 -1.3871 -0.5163 -0.0394
 3017TIP3    H230467   5.912   3.415  16.359 -1.5531 -0.9257 -0.3771
 3018TIP3   OH230468   5.853   3.745   4.287  0.0582 -0.3515  0.3442
 3018TIP3    H130469   5.799   3.813   4.326 -0.8492 -0.8403 -0.0322
 3018TIP3    H230470   5.867   3.774   4.197 -2.4579 -1.8041 -0.6208
 3019TIP3   OH230471   0.848   2.841   1.522  0.3594  0.2727 -0.3848
 3019TIP3    H130472   0.761   2.879   1.510 -0.4061 -1.3241 -0.1494
 3019TIP3    H230473   0.888   2.843   1.435  0.0464  0.8944 -0.5167
 3020TIP3   OH230474   3.114   1.818   3.392 -0.8680  0.0585 -0.5874
 3020TIP3    H130475   3.153   1.772   3.317 -0.0517 -0.8078  0.3371
 3020TIP3    H230476   3.189   1.850   3.442 -1.4115  0.8542 -0.2587
 3021TIP3   OH230477   2.548   1.236   1.416  0.0902 -0.2701 -0.0500
 3021TIP3    H130478   2.626   1.211   1.465 -0.4425 -2.1914 -0.1105
 3021TIP3    H230479   2.564   1.206   1.327 -1.0305 -1.4719  0.1242
 3022TIP3   OH230480   1.588   1.897   1.748  0.2639 -0.7789  0.2353
 3022TIP3    H130481   1.615   1.965   1.809 -2.0042 -1.9588  2.7959
 3022TIP3    H230482   1.669   1.870   1.705  1.9360  0.5868  2.2905
 3023TIP3   OH230483   1.933   1.161  12.544 -0.4943 -0.3137 -0.1119
 3023TIP3    H130484   1.946   1.223  12.616 -3.2254  0.4447 -0.1344
 3023TIP3    H230485   1.941   1.215  12.465 -2.3616 -0.0297 -0.1487
 3024TIP3   OH230486   5.423   3.274   2.982 -0.0912  0.0239  0.4776
 3024TIP3    H130487   5.424   3.196   2.926 -0.1950 -0.1043  0.6514
 3024TIP3    H230488   5.353   3.256   3.046 -0.2381  0.3373  0.4077
 3025TIP3   OH230489   1.351   4.621  12.150 -0.8024 -0.0014  0.1322
 3025TIP3    H130490   1.370   4.528  12.164  0.2593  0.0486 -0.8526
 3025TIP3    H230491   1.268   4.635  12.195 -0.6465 -1.2673  0.8782
 3026TIP3   OH230492   0.737   0.435  11.271  0.2763 -0.4131  0.4038
 3026TIP3    H130493   0.708   0.506  11.213 -0.9682 -0.8896  0.4255
 3026TIP3    H230494   0.827   0.417  11.242 -0.5681 -1.1957 -1.9717
 3027TIP3   OH230495   2.235   0.042   0.153  0.1013 -0.4547 -0.2202
 3027TIP3    H130496   2.160   0.096   0.178  0.6158  0.2889 -0.2761
 3027TIP3    H230497   2.286   0.032   0.234  1.3918  1.3607 -0.7656
 3028TIP3   OH230498   0.098   2.257   5.859  0.2486 -0.0752 -0.2610
 3028TIP3    H130499   0.119   2.332   5.914  0.1809 -0.7985  0.7763
 3028TIP3    H230500   0.082   2.185   5.920 -3.8753  0.0223 -0.9033
 3029TIP3   OH230501   1.670   6.746  15.635  0.4552  0.7525 -0.4837
 3029TIP3    H130502   1.616   6.820  15.662 -0.4106  0.0830 -0.3543
 3029TIP3    H230503   1.752   6.786  15.605 -0.0521  1.7664 -0.5517
 3030TIP3   OH230504   2.498   3.367   1.760 -0.0175  0.4476  0.3340
 3030TIP3    H130505   2.459   3.434   1.704  0.2475  0.2481 -0.0895
 3030TIP3    H230506   2.472   3.284   1.720  0.0584  0.3025  0.5833
 3031TIP3   OH230507   2.221   4.760  16.144  0.5076 -0.1339 -0.5029
 3031TIP3    H130508   2.217   4.674  16.187 -2.8841  0.6620  1.1495
 3031TIP3    H230509   2.299   4.801  16.180 -0.0298 -1.0435  1.9325
 3032TIP3   OH230510   5.253   6.322  15.551 -0.1403  0.6118  0.0732
 3032TIP3    H130511   5.239   6.317  15.646  0.1874  0.3055  0.1078
 3032TIP3    H230512   5.322   6.388  15.541  0.7569 -0.2853  0.1512
 3033TIP3   OH230513   0.575   1.447  14.470  0.1834 -0.4171 -0.3248
 3033TIP3    H130514   0.487   1.468  14.439 -0.6764 -2.6785  0.4012
 3033TIP3    H230515   0.567   1.360  14.509  2.4471 -0.0959  1.0350
 3034TIP3   OH230516   4.474   1.208  16.640 -0.0368  0.8749  0.1753
 3034TIP3    H130517   4.443   1.176  16.725 -0.4972 -0.6116 -0.5183
 3034TIP3    H230518   4.467   1.303  16.647 -2.3996  0.7294  0.9696
 3035TIP3   OH230519   0.343   5.801  12.558 -0.1996  0.2004 -0.0280
 3035TIP3    H130520   0.360   5.887  12.518 -1.7115 -0.0040 -1.1946
 3035TIP3    H230521   0.301   5.750  12.488 -0.6935 -0.9985  1.1038
 3036TIP3   OH230522   6.234   6.454  16.895 -0.6743  0.9551 -0.2680
 3036TIP3    H130523   6.329   6.446  16.885 -0.6037 -0.3815  1.1173
 3036TIP3    H230524   6.215   6.545  16.872  0.7271  0.8580 -2.0044
 3037TIP3   OH230525   1.295   2.698   2.152  1.2990  0.0246 -0.1148
 3037TIP3    H130526   1.322   2.773   2.100  1.0337  0.3310  0.1824
 3037TIP3    H230527   1.213   2.670   2.112  1.2335  0.0929 -0.0291
 3038TIP3   OH230528   3.917   0.525   1.193  0.2294  0.2387  0.0075
 3038TIP3    H130529   3.899   0.431   1.200 -0.7944  0.4178 -0.0393
 3038TIP3    H230530   3.922   0.555   1.284  0.1099  0.2157  0.0222
 3039TIP3   OH230531   2.661   3.314   3.296  0.3390 -0.2745  0.3562
 3039TIP3    H130532   2.637   3.253   3.226  1.2435  0.6624 -0.8205
 3039TIP3    H230533   2.617   3.280   3.374 -3.4007  0.3414 -1.2504
 3040TIP3   OH230534   2.362   3.589   4.522  0.0200 -0.2921 -0.7594
 3040TIP3    H130535   2.349   3.666   4.468 -0.2949 -1.6305 -2.6929
 3040TIP3    H230536   2.414   3.620   4.596 -1.5958  2.1170 -0.5164
 3041TIP3   OH230537   0.582   2.297  12.574 -0.3386  0.6929 -0.0645
 3041TIP3    H130538   0.588   2.392  12.568 -1.6056  0.8773  1.1301
 3041TIP3    H230539   0.578   2.279  12.667  3.0506 -0.8216 -0.0789
 3042TIP3   OH230540   1.141   5.812  14.009 -0.1392  0.3034  0.0715
 3042TIP3    H130541   1.048   5.801  13.991 -0.7655  1.7432  2.0785
 3042TIP3    H230542   1.169   5.883  13.951 -0.2995 -0.0768 -0.4751
 3043TIP3   OH230543   6.061   2.754  12.029  0.1358 -0.7822  0.5016
 3043TIP3    H130544   6.142   2.711  12.057 -0.6397 -2.0270  0.8639
 3043TIP3    H230545   6.091   2.826  11.973  1.4552 -1.9322 -0.3257
 3044TIP3   OH230546   3.030   0.302  13.021  0.4697  0.0396 -0.1386
 3044TIP3    H130547   3.010   0.237  12.953  1.2517 -0.2991 -0.0537
 3044TIP3    H230548   3.040   0.251  13.101  3.1891 -0.0471 -0.4445
 3045TIP3   OH230549   5.582   4.497  11.182  0.1689 -0.2491  0.1479
 3045TIP3    H130550   5.553   4.544  11.260  0.2925  1.1580 -0.6333
 3045TIP3    H230551   5.507   4.499  11.123 -0.3639 -2.3735  0.6383
 3046TIP3   OH230552   4.159   2.744  14.049  0.3941 -0.4815  0.1347
 3046TIP3    H130553   4.126   2.662  14.085 -0.3321 -1.0989 -1.7982
 3046TIP3    H230554   4.174   2.800  14.125  0.4221 -2.2259  1.4536
 3047TIP3   OH230555   0.377   5.379  14.599  0.8487 -0.0190  0.2991
 3047TIP3    H130556   0.341   5.304  14.645  0.4627  0.8287  1.4355
 3047TIP3    H230557   0.308   5.406  14.539 -0.0680  0.9521  1.7147
 3048TIP3   OH230558   5.029   6.567  15.676  0.1169 -0.0943 -0.1648
 3048TIP3    H130559   5.114   6.569  15.631  0.2179 -0.3293  0.0123
 3048TIP3    H230560   4.989   6.485  15.645 -1.6062  1.6903 -3.0935
 3049TIP3   OH230561   2.136   0.491  16.697  0.0550 -1.1919  0.5297
 3049TIP3    H130562   2.229   0.481  16.676 -0.0099  0.9764 -1.0223
 3049TIP3    H230563   2.100   0.402  16.687  1.4429 -1.5921 -1.6237
 3050TIP3   OH230564   1.478   4.092   3.323 -0.4080 -0.0449  1.1358
 3050TIP3    H130565   1.500   4.049   3.405  0.1546 -1.9414  0.0647
 3050TIP3    H230566   1.426   4.026   3.275 -1.7132  1.4304  0.4207
 3051TIP3   OH230567   5.916   1.998   6.014 -0.6754 -0.2117 -0.1025
 3051TIP3    H130568   5.913   1.962   6.103  0.8053 -1.8243 -0.6364
 3051TIP3    H230569   5.842   1.958   5.970 -1.9355  1.2685  0.5964
 3052TIP3   OH230570   4.028   4.547   3.905 -0.1363 -0.6936 -0.0227
 3052TIP3    H130571   4.120   4.539   3.932  0.1998  1.9585 -0.1940
 3052TIP3    H230572   4.028   4.521   3.813  0.5026 -0.4372 -0.1007
 3053TIP3   OH230573   2.041   2.905   5.733  0.4023  0.0120 -0.3061
 3053TIP3    H130574   2.093   2.932   5.808  1.2225  1.5411 -1.3804
 3053TIP3    H230575   2.105   2.883   5.666 -0.2832 -2.6907 -0.1927
 3054TIP3   OH230576   4.792   6.447  16.381 -0.3447 -0.0207  0.7974
 3054TIP3    H130577   4.703   6.467  16.351 -0.0636  1.1166  0.7101
 3054TIP3    H230578   4.802   6.498  16.462 -0.4463 -1.6545  1.8929
 3055TIP3   OH230579   2.007   2.571  14.299  0.5112  0.1056 -0.0636
 3055TIP3    H130580   2.013   2.548  14.392  0.6325 -0.3563 -0.1789
 3055TIP3    H230581   1.927   2.623  14.292  0.2354 -0.2700  0.2225
 3056TIP3   OH230582   3.120   4.855   3.081 -0.3209  0.3161 -0.0632
 3056TIP3    H130583   3.071   4.852   3.163  0.2042 -0.8155  0.2280
 3056TIP3    H230584   3.164   4.940   3.083  0.0008  0.1398  1.0261
 3057TIP3   OH230585   5.105   1.234  13.296 -0.0412 -0.9979  0.1435
 3057TIP3    H130586   5.106   1.329  13.282  0.6178 -0.7638  1.5144
 3057TIP3    H230587   5.037   1.201  13.237 -1.2369  0.4987  0.6077
 3058TIP3   OH230588   2.128   1.080  13.346 -0.1949  0.4168 -0.2093
 3058TIP3    H130589   2.049   1.026  13.344  1.4414 -2.1418 -0.2637
 3058TIP3    H230590   2.173   1.054  13.426  2.5994 -1.4410 -2.2014
 3059TIP3   OH230591   3.506   5.339  16.707 -0.2834 -0.2242 -0.4192
 3059TIP3    H130592   3.469   5.289  16.780 -0.5326  0.7460  0.1385
 3059TIP3    H230593   3.601   5.330  16.717 -0.3283 -1.8095 -1.2052
 3060TIP3   OH230594   5.190   1.834  17.037 -0.3372 -0.3460 -0.5598
 3060TIP3    H130595   5.103   1.871  17.052 -0.8106 -1.0892 -1.3540
 3060TIP3    H230596   5.176   1.767  16.970  0.3812 -2.3015  1.1347
 3061TIP3   OH230597   0.755   5.038   0.100 -0.8024  0.2495 -0.1952
 3061TIP3    H130598   0.673   5.058   0.055 -1.5347  0.1081  1.0390
 3061TIP3    H230599   0.753   5.092   0.179  1.3924  2.0343 -1.2301
 3062TIP3   OH230600   0.813   6.035  13.804 -0.6836  0.1292 -0.2811
 3062TIP3    H130601   0.890   6.081  13.836 -1.6304  1.3039  0.4260
 3062TIP3    H230602   0.791   6.079  13.722 -1.7292  1.1545  0.5143
 3063TIP3   OH230603   1.480   5.751  14.441  0.0943  0.1487 -0.1556
 3063TIP3    H130604   1.418   5.735  14.370 -0.0481 -0.6904  0.1404
 3063TIP3    H230605   1.539   5.819  14.407 -1.8796  2.1103  0.1082
 3064TIP3   OH230606   0.433   1.553   5.510 -0.0634 -0.1814  0.1348
 3064TIP3    H130607   0.344   1.577   5.537 -0.4327 -0.6283 -0.6366
 3064TIP3    H230608   0.485   1.558   5.590 -0.3928  1.8744  0.2747
 3065TIP3   OH230609   6.535   3.650  15.838  0.1603 -0.4361  0.0567
 3065TIP3    H130610   6.476   3.589  15.793 -1.0020 -1.6735  2.9970
 3065TIP3    H230611   6.593   3.593  15.889  0.8552  0.8637  0.7585
 3066TIP3   OH230612   3.098   4.795  15.725  0.2680  0.1734 -0.1836
 3066TIP3    H130613   3.135   4.815  15.811  1.2449  1.1926 -0.8195
 3066TIP3    H230614   3.132   4.708  15.704 -0.0661 -0.1315  0.4936
 3067TIP3   OH230615   3.840   4.613   3.120  0.0076 -0.0216 -0.1651
 3067TIP3    H130616   3.833   4.537   3.178 -0.9783 -0.0804 -0.3449
 3067TIP3    H230617   3.934   4.625   3.108  0.1756 -1.8864 -1.0373
 3068TIP3   OH230618   0.067   2.788   0.635  0.5910  0.1747  0.5075
 3068TIP3    H130619   0.146   2.745   0.667  0.5151  0.7539  1.5373
 3068TIP3    H230620   0.031   2.833   0.712 -0.6363  0.0804  0.0216
 3069TIP3   OH230621   6.234   4.899  14.051  0.5157 -0.2647 -0.0331
 3069TIP3    H130622   6.219   4.855  14.134 -0.1823  0.5016  0.2606
 3069TIP3    H230623   6.329   4.903  14.043  0.5862 -0.7189  0.5209
 3070TIP3   OH230624   2.999   3.086   0.057 -0.4830 -0.6309 -0.0122
 3070TIP3    H130625   2.929   3.132   0.103  0.5360  1.7841 -0.7077
 3070TIP3    H230626   2.960   3.059  -0.026 -0.5187  1.1770 -0.6318
 3071TIP3   OH230627   5.939   3.050  10.479 -0.1254  0.0431  0.2029
 3071TIP3    H130628   5.889   3.035  10.399 -0.8017 -0.3185  0.6794
 3071TIP3    H230629   5.872   3.063  10.547  0.4263  1.3963  0.5265
 3072TIP3   OH230630   2.218   6.768  14.528  0.2671  0.1726 -0.6971
 3072TIP3    H130631   2.311   6.785  14.536  0.6128 -1.6413 -0.4323
 3072TIP3    H230632   2.196   6.718  14.606 -0.6944 -0.3476 -1.2773
 3073TIP3   OH230633   4.712   1.264   4.962 -0.3007 -0.1973  0.1522
 3073TIP3    H130634   4.801   1.235   4.944 -0.5173  0.1349 -1.6359
 3073TIP3    H230635   4.660   1.184   4.964 -0.0851 -0.3350  0.5688
 3074TIP3   OH230636   0.748   3.665   5.733  0.0513 -0.5933  0.0860
 3074TIP3    H130637   0.692   3.737   5.765  0.0933  0.7540 -2.6186
 3074TIP3    H230638   0.835   3.704   5.728  0.4520 -1.4364  0.3284
 3075TIP3   OH230639   4.304   3.164  17.167  0.1741 -0.2252  0.3567
 3075TIP3    H130640   4.362   3.165  17.090 -0.2778  1.0788  0.0121
 3075TIP3    H230641   4.364   3.164  17.242  0.6115 -0.6962  0.0163
 3076TIP3   OH230642   5.041   5.475  13.267 -0.3273 -0.3813 -0.6866
 3076TIP3    H130643   4.984   5.549  13.286  1.3527  1.1113 -1.2469
 3076TIP3    H230644   4.981   5.405  13.239 -2.0995  0.1433  1.4978
 3077TIP3   OH230645   5.883   3.286  12.077  0.0327 -0.2060 -0.0311
 3077TIP3    H130646   5.868   3.237  12.158 -0.7721  1.8600  1.1673
 3077TIP3    H230647   5.930   3.365  12.106  1.0752 -0.1188 -1.8259
 3078TIP3   OH230648   4.132   0.367  14.816  0.3929  0.3635  0.0618
 3078TIP3    H130649   4.215   0.320  14.815  0.5232  0.5726  0.6366
 3078TIP3    H230650   4.124   0.400  14.906 -0.5760 -0.1287  0.1738
 3079TIP3   OH230651   6.268   4.890   5.781  0.2297  0.0693  0.0068
 3079TIP3    H130652   6.231   4.970   5.820  1.9144  0.5854  0.5987
 3079TIP3    H230653   6.277   4.830   5.854 -2.8475 -1.4936 -0.7108
 3080TIP3   OH230654   2.165   5.117   2.145 -0.1686  0.3766 -0.0323
 3080TIP3    H130655   2.070   5.118   2.157 -0.0161  0.6919  1.4473
 3080TIP3    H230656   2.179   5.155   2.059 -1.3035  2.6476  0.7048
 3081TIP3   OH230657   5.520   3.690  14.634  0.0403  0.1760 -0.0929
 3081TIP3    H130658   5.449   3.753  14.647  0.6308  0.3404  3.2761
 3081TIP3    H230659   5.496   3.615  14.689  0.7260 -1.3836 -1.8075
 3082TIP3   OH230660   6.540   0.917  15.340 -0.1523 -0.1723 -0.0133
 3082TIP3    H130661   6.547   0.985  15.273 -1.4410  0.1853  0.1794
 3082TIP3    H230662   6.498   0.960  15.415 -0.1946 -0.9563  0.4345
 3083TIP3   OH230663   0.168   6.291  11.042 -0.2469 -0.0179  0.4126
 3083TIP3    H130664   0.212   6.367  11.005 -2.6499  1.1229 -0.3321
 3083TIP3    H230665   0.122   6.251  10.968  0.9222 -2.2330  0.7858
 3084TIP3   OH230666   4.683   0.884  10.763  0.1742 -0.2356 -0.0798
 3084TIP3    H130667   4.671   0.934  10.683 -0.7270  2.0037  1.3786
 3084TIP3    H230668   4.595   0.858  10.789  0.5779 -2.2650 -0.5323
 3085TIP3   OH230669   4.055   3.727   3.945 -0.1528 -0.3288 -0.9143
 3085TIP3    H130670   4.077   3.638   3.971  0.0355  0.1320  0.5958
 3085TIP3    H230671   3.971   3.719   3.900 -0.7673 -1.1367  0.3279
 3086TIP3   OH230672   2.982   6.730  11.083 -0.2022 -0.4215  0.0978
 3086TIP3    H130673   3.009   6.727  10.992 -1.8672  2.1072 -0.5793
 3086TIP3    H230674   2.890   6.701  11.082  0.2048 -1.8996  1.2518
 3087TIP3   OH230675   1.979   0.056  11.016  0.3313  0.0958  0.0868
 3087TIP3    H130676   1.925   0.026  10.943 -0.8710  1.7871  0.2237
 3087TIP3    H230677   2.034  -0.020  11.037 -1.2474 -1.3660 -0.7315
 3088TIP3   OH230678   2.277   5.099   5.872 -0.1962  0.2655  0.2363
 3088TIP3    H130679   2.279   5.053   5.956 -0.8318  0.5258  0.4040
 3088TIP3    H230680   2.198   5.066   5.829  0.5789 -0.5042 -0.6396
 3089TIP3   OH230681   2.648   6.227   3.225  0.2125  0.0940  0.2182
 3089TIP3    H130682   2.648   6.213   3.320 -0.0067  0.4073  0.2653
 3089TIP3    H230683   2.662   6.139   3.188 -0.6653 -0.1824  0.5200
 3090TIP3   OH230684   3.697   1.208  16.049  0.1900 -0.2128 -0.1337
 3090TIP3    H130685   3.684   1.185  15.957 -2.3817  0.0199  0.1091
 3090TIP3    H230686   3.733   1.296  16.047  2.5211 -1.1040 -0.9037
 3091TIP3   OH230687   0.187   2.151   3.306  0.4873 -0.3874  0.0333
 3091TIP3    H130688   0.257   2.165   3.370  0.8435  0.3514 -0.5074
 3091TIP3    H230689   0.122   2.098   3.353  0.3690  0.7977  1.2765
 3092TIP3   OH230690   2.768   6.594   2.358 -0.3935 -0.1004  0.2272
 3092TIP3    H130691   2.719   6.526   2.405  0.2291 -1.9313 -1.6221
 3092TIP3    H230692   2.732   6.593   2.269  2.4331 -1.0758 -1.0434
 3093TIP3   OH230693   3.161   2.152  11.406  0.3759  0.6658  0.3154
 3093TIP3    H130694   3.133   2.243  11.393  0.6808  0.4703 -2.3472
 3093TIP3    H230695   3.106   2.101  11.346  2.3835 -0.4500 -0.6945
 3094TIP3   OH230696   0.577   6.762  11.970  0.3875  0.4109  0.2313
 3094TIP3    H130697   0.624   6.828  12.021 -1.2431  0.7635  1.3978
 3094TIP3    H230698   0.527   6.812  11.906 -0.0984  0.2525  0.4774
 3095TIP3   OH230699   6.424   5.087  15.831  0.5319  0.0702  0.0648
 3095TIP3    H130700   6.383   5.017  15.883  0.8264  0.3199  0.6417
 3095TIP3    H230701   6.375   5.166  15.856 -0.0898  0.0048 -0.9144
 3096TIP3   OH230702   0.661   0.438   2.699 -0.8648  0.1075  0.9749
 3096TIP3    H130703   0.606   0.395   2.765 -0.6344  0.5377  1.4526
 3096TIP3    H230704   0.613   0.517   2.675 -1.0828 -0.1909  0.4139
 3097TIP3   OH230705   4.316   2.900   2.481  0.6197  0.2558 -0.5971
 3097TIP3    H130706   4.231   2.870   2.511  0.3186 -0.5628 -2.1608
 3097TIP3    H230707   4.375   2.885   2.555  0.1568 -2.7526 -0.7133
 3098TIP3   OH230708   3.438   0.399   4.007  0.8700 -0.1921  0.3407
 3098TIP3    H130709   3.467   0.307   4.008 -0.8974 -0.7943  0.0061
 3098TIP3    H230710   3.368   0.401   3.942  1.3000  1.5519 -0.1066
 3099TIP3   OH230711   2.620   3.501  13.561  0.2098 -0.1084  0.0238
 3099TIP3    H130712   2.708   3.494  13.597  1.0071  0.3781 -1.7346
 3099TIP3    H230713   2.591   3.410  13.550  1.5779 -0.3855 -1.8149
 3100TIP3   OH230714   5.800   3.697   6.500  0.0189 -0.3525  0.1240
 3100TIP3    H130715   5.841   3.781   6.477 -1.0982  0.7273  1.8233
 3100TIP3    H230716   5.827   3.637   6.431  0.9443  1.3793 -1.0879
 3101TIP3   OH230717   0.901   1.681   3.811  0.4188 -0.2316 -0.4930
 3101TIP3    H130718   0.895   1.587   3.826  0.1010 -0.0463  0.7022
 3101TIP3    H230719   0.993   1.697   3.792  0.7780 -0.6016  0.8124
 3102TIP3   OH230720   1.918   6.660   1.558 -0.0135  0.2714 -0.4656
 3102TIP3    H130721   1.977   6.727   1.525  1.2307 -0.4603  0.1847
 3102TIP3    H230722   1.849   6.653   1.492  0.9484  0.7242 -1.5406
 3103TIP3   OH230723   4.902   4.135  16.096  0.1032  0.2275 -0.4645
 3103TIP3    H130724   4.961   4.145  16.021 -0.1636  2.2316 -0.4424
 3103TIP3    H230725   4.878   4.224  16.120 -1.4600 -0.4742  0.7197
 3104TIP3   OH230726   4.779   3.266  14.471  0.4894 -0.6239 -0.6593
 3104TIP3    H130727   4.756   3.178  14.501  1.9923 -1.2287 -1.1643
 3104TIP3    H230728   4.777   3.260  14.375 -0.2174  0.1331 -0.7006
 3105TIP3   OH230729   6.052   5.765  14.587  0.2059 -0.1612 -0.0352
 3105TIP3    H130730   6.029   5.818  14.510 -0.2886 -1.1345 -0.5692
 3105TIP3    H230731   6.099   5.690  14.551  0.5070 -0.3149  0.6739
 3106TIP3   OH230732   1.984   0.364   0.043  0.2932 -0.2946  0.1960
 3106TIP3    H130733   1.906   0.316   0.014  0.7968 -1.1187  0.1551
 3106TIP3    H230734   2.053   0.339  -0.019  0.8197 -0.3214  0.7747
 3107TIP3   OH230735   1.775   5.334   1.974 -0.6639  0.7170 -0.7105
 3107TIP3    H130736   1.840   5.264   1.981 -1.1456  0.3112 -0.1933
 3107TIP3    H230737   1.821   5.406   1.931 -0.5021 -0.3451 -2.3767
 3108TIP3   OH230738   0.843   6.712   0.200  0.1316  0.1955 -0.2003
 3108TIP3    H130739   0.846   6.719   0.295 -0.9572 -1.6206  0.0191
 3108TIP3    H230740   0.910   6.646   0.179 -2.0654 -2.2163 -0.2354
 3109TIP3   OH230741   0.679   1.964  16.416 -0.0542  0.0929 -0.3417
 3109TIP3    H130742   0.735   1.915  16.476 -0.9413 -1.6756 -0.8913
 3109TIP3    H230743   0.735   2.033  16.381  0.7662  0.5359  1.7264
 3110TIP3   OH230744   0.306   4.516   4.880 -0.0873 -0.3662  0.5292
 3110TIP3    H130745   0.400   4.495   4.880 -0.0353 -0.1317  0.7326
 3110TIP3    H230746   0.268   4.454   4.817  0.2575 -0.2223  0.1734
 3111TIP3   OH230747   0.067   3.057  11.956 -0.3997  0.3055  0.0184
 3111TIP3    H130748   0.084   3.073  11.863 -2.1274  0.3813 -0.3077
 3111TIP3    H230749   0.142   3.097  12.000 -0.7478  2.5021 -1.2037
 3112TIP3   OH230750   2.496   2.610   5.398  0.0123  0.3361  0.0686
 3112TIP3    H130751   2.507   2.516   5.384 -1.5353 -0.0912  1.3507
 3112TIP3    H230752   2.530   2.626   5.485 -2.7042  0.2524  1.2593
 3113TIP3   OH230753   1.600   0.085   0.517  0.2876  0.2773  0.1130
 3113TIP3    H130754   1.681   0.035   0.526  0.8024  0.2436 -3.3483
 3113TIP3    H230755   1.543   0.028   0.465 -1.0329  1.3328  0.3451
 3114TIP3   OH230756   6.706   2.404   5.664  0.2720 -0.2865 -0.2059
 3114TIP3    H130757   6.736   2.346   5.734  4.3795  0.2974 -1.2025
 3114TIP3    H230758   6.639   2.354   5.618  2.7937 -3.9173 -0.3400
 3115TIP3   OH230759   2.050   2.465  16.412  0.0346  0.4176 -0.4719
 3115TIP3    H130760   1.972   2.434  16.459  0.1139 -0.8971 -1.1436
 3115TIP3    H230761   2.099   2.516  16.476  0.3778 -1.7156  1.0674
 3116TIP3   OH230762   6.728   6.604   1.121  0.3228  0.1201  0.4326
 3116TIP3    H130763   6.641   6.567   1.133 -0.1204  1.4845  1.6750
 3116TIP3    H230764   6.724   6.647   1.036  0.1245 -0.7016  0.0169
 3117TIP3   OH230765   0.284   0.347  16.704 -0.2743  0.5633  0.6144
 3117TIP3    H130766   0.274   0.440  16.681  1.1715  1.2780  2.6232
 3117TIP3    H230767   0.299   0.303  16.620 -3.2177  1.7430 -0.6588
 3118TIP3   OH230768   4.279   0.294  15.722  0.3067  0.1276 -0.3105
 3118TIP3    H130769   4.228   0.271  15.799 -1.6813  0.1997 -1.5252
 3118TIP3    H230770   4.338   0.220  15.708 -0.3330 -0.5314  0.4338
 3119TIP3   OH230771   0.438   2.947   3.927 -0.5635 -0.9427 -0.4375
 3119TIP3    H130772   0.417   2.994   3.847 -0.0533  0.7071  0.3399
 3119TIP3    H230773   0.529   2.972   3.946 -0.0017 -2.8875 -0.4003
 3120TIP3   OH230774   3.942   5.568  11.775 -0.0408 -0.6623  0.2322
 3120TIP3    H130775   3.926   5.475  11.790 -1.0803 -0.7420 -1.1798
 3120TIP3    H230776   3.939   5.607  11.863 -1.6581 -1.6513  0.6511
 3121TIP3   OH230777   0.919   2.533   4.809  0.4372 -0.1567  0.2488
 3121TIP3    H130778   0.981   2.525   4.881 -0.8051  0.4980  1.4430
 3121TIP3    H230779   0.833   2.539   4.852 -0.3407  0.2392 -1.2920
 3122TIP3   OH230780   1.582   3.303   0.839 -0.6535  0.1782  0.2976
 3122TIP3    H130781   1.608   3.354   0.762  2.2850 -1.5086  0.0155
 3122TIP3    H230782   1.522   3.360   0.887 -1.2821  1.9296 -2.3786
 3123TIP3   OH230783   6.637   4.171  12.521 -0.2426 -0.1105 -0.2382
 3123TIP3    H130784   6.550   4.201  12.545 -0.2091  0.0548 -0.3185
 3123TIP3    H230785   6.681   4.155  12.604  0.6464  2.6655 -0.0847
 3124TIP3   OH230786   2.936   3.710   2.184 -0.4216  0.0476  0.2206
 3124TIP3    H130787   2.934   3.733   2.091  1.4603 -0.8435 -0.0786
 3124TIP3    H230788   2.951   3.616   2.185 -0.8013 -0.0181  1.4438
 3125TIP3   OH230789   5.269   1.241  16.902 -0.2110 -0.0254 -0.5108
 3125TIP3    H130790   5.271   1.158  16.951 -1.8285  1.0160  1.5090
 3125TIP3    H230791   5.252   1.215  16.812 -1.1186 -1.9181  0.1450
 3126TIP3   OH230792   0.597   4.228   0.842  0.0705  0.2324  0.4906
 3126TIP3    H130793   0.568   4.161   0.780  0.1292 -0.2462  0.9782
 3126TIP3    H230794   0.660   4.280   0.792  0.3323 -0.3264  0.2281
 3127TIP3   OH230795   5.341   3.074   1.179  0.5588 -0.1712  0.3289
 3127TIP3    H130796   5.382   3.081   1.092 -1.8028 -0.6755 -0.9142
 3127TIP3    H230797   5.288   3.153   1.187  0.5719 -0.2445  1.2410
 3128TIP3   OH230798   1.049   3.878  16.191 -0.4358  0.0539  0.2820
 3128TIP3    H130799   1.097   3.806  16.232 -0.6763 -0.6497 -0.6274
 3128TIP3    H230800   1.029   3.938  16.263  2.7275  0.9661  0.5610
 3129TIP3   OH230801   0.138   5.119   5.178  0.8962 -0.2004 -0.2201
 3129TIP3    H130802   0.101   5.145   5.094 -1.4024  0.2654  0.8555
 3129TIP3    H230803   0.164   5.028   5.166 -1.4457 -0.8400 -0.8584
 3130TIP3   OH230804   3.100   2.092  17.283 -0.2993  0.0204  0.4010
 3130TIP3    H130805   3.107   2.045  17.200 -0.4551 -0.6634  0.7651
 3130TIP3    H230806   3.098   2.184  17.258  0.6892 -0.1215 -0.2927
 3131TIP3   OH230807   6.024   0.420  15.962  0.5284 -0.2514 -0.0253
 3131TIP3    H130808   6.046   0.388  15.875  0.9974  0.2559 -0.1014
 3131TIP3    H230809   6.009   0.514  15.949  0.0640 -0.2776  0.3420
 3132TIP3   OH230810   2.281   3.625  16.348 -0.2363  1.1668  0.4339
 3132TIP3    H130811   2.186   3.623  16.344 -0.2108 -0.9293 -1.4501
 3132TIP3    H230812   2.308   3.654  16.261  0.9072  3.4945  1.4735
 3133TIP3   OH230813   5.054   4.621   6.456  0.2687 -0.0165 -0.1139
 3133TIP3    H130814   5.098   4.695   6.497 -0.2771  0.8349 -1.0167
 3133TIP3    H230815   5.091   4.616   6.368  2.0011 -2.3192  0.6624
 3134TIP3   OH230816   0.947   2.974  11.799  0.5418 -0.4765 -0.1169
 3134TIP3    H130817   0.893   3.012  11.869 -1.4691 -1.5025 -1.0041
 3134TIP3    H230818   1.030   3.021  11.803 -0.0582  0.5093  1.9848
 3135TIP3   OH230819   3.338   0.046   2.784  0.2191  0.2279  0.0939
 3135TIP3    H130820   3.368   0.006   2.703  0.2334  0.9318 -0.2579
 3135TIP3    H230821   3.270  -0.013   2.816 -0.3054  0.3147 -0.8201
 3136TIP3   OH230822   5.484   6.431   2.860  0.3191  0.1270  0.2552
 3136TIP3    H130823   5.441   6.355   2.821  0.1725  1.2761 -1.9204
 3136TIP3    H230824   5.439   6.443   2.944 -2.9272  0.6169 -1.4020
 3137TIP3   OH230825   5.257   0.907  13.757 -0.2262 -0.0896  0.5938
 3137TIP3    H130826   5.180   0.867  13.797 -0.2450  1.1746  1.9048
 3137TIP3    H230827   5.291   0.966  13.825 -0.0255  1.8628 -1.1123
 3138TIP3   OH230828   4.433   6.337  11.930 -0.6415  0.0140 -0.5351
 3138TIP3    H130829   4.391   6.420  11.908  0.9374  1.0210  0.0936
 3138TIP3    H230830   4.500   6.325  11.862 -0.5097 -0.4727 -0.3229
 3139TIP3   OH230831   0.469   5.604  16.563  0.0510 -0.1584 -0.4372
 3139TIP3    H130832   0.417   5.534  16.524 -1.1387  0.1438  0.5650
 3139TIP3    H230833   0.434   5.614  16.651  1.6748  0.2119  0.2117
 3140TIP3   OH230834   3.023   6.223   3.821  0.1120  0.2512 -0.2030
 3140TIP3    H130835   3.096   6.191   3.769 -1.5686 -1.1181 -1.8524
 3140TIP3    H230836   3.064   6.277   3.889  2.6466 -0.8057 -0.7801
 3141TIP3   OH230837   6.195   5.223  14.283 -0.2954 -0.0547 -0.5327
 3141TIP3    H130838   6.264   5.279  14.246 -0.2171 -0.9670 -1.8159
 3141TIP3    H230839   6.117   5.243  14.231 -0.7984  0.3442  0.3571
 3142TIP3   OH230840   5.442   0.326  13.353  0.8248 -0.3388 -0.9137
 3142TIP3    H130841   5.372   0.270  13.320 -1.8693  3.1149 -1.6577
 3142TIP3    H230842   5.447   0.307  13.446 -0.0562 -1.6997 -1.1222
 3143TIP3   OH230843   0.097   0.533  11.270 -0.3096 -0.3087 -0.3254
 3143TIP3    H130844   0.182   0.511  11.306 -0.5194  0.5772  0.7524
 3143TIP3    H230845   0.076   0.460  11.212  1.5211 -0.1716 -1.2330
 3144TIP3   OH230846   0.265   4.634   0.171 -0.0082 -0.3451  0.3013
 3144TIP3    H130847   0.306   4.605   0.253 -0.0581 -0.8940  0.1378
 3144TIP3    H230848   0.257   4.554   0.119 -1.0016 -0.1977  0.2001
 3145TIP3   OH230849   1.385   3.046   2.624  0.2636  0.0125  0.5063
 3145TIP3    H130850   1.330   2.967   2.627 -0.9112  0.8336  1.1246
 3145TIP3    H230851   1.404   3.058   2.531 -0.2779 -0.5112  0.3223
 3146TIP3   OH230852   1.988   4.039  15.684  0.1720 -0.1168  0.2752
 3146TIP3    H130853   2.045   4.113  15.706 -0.4729  0.1286  1.1837
 3146TIP3    H230854   1.958   4.006  15.769  0.6864 -1.6297 -0.0893
 3147TIP3   OH230855   1.590   1.263  11.771  0.5671  0.1900 -0.0568
 3147TIP3    H130856   1.643   1.334  11.734  0.2987  0.4291  0.0142
 3147TIP3    H230857   1.654   1.197  11.796  0.9282  0.8930  0.9553
 3148TIP3   OH230858   3.258   4.919  15.925 -0.1455 -0.3719  0.6142
 3148TIP3    H130859   3.303   4.989  15.973 -1.0413  2.1799 -1.9758
 3148TIP3    H230860   3.329   4.862  15.894  0.8419  0.5943  1.0345
 3149TIP3   OH230861   5.537   3.504   2.370 -0.4539  0.2492 -0.7654
 3149TIP3    H130862   5.556   3.501   2.463  1.9488  2.3034 -1.0706
 3149TIP3    H230863   5.498   3.419   2.350 -0.4521 -0.4700  1.9555
 3150TIP3   OH230864   5.509   0.136  16.803 -0.1537  0.1297  0.2870
 3150TIP3    H130865   5.468   0.121  16.718 -0.2767  0.7964  0.2255
 3150TIP3    H230866   5.555   0.054  16.822 -0.9623 -0.3924  0.0557
 3151TIP3   OH230867   0.210   2.063   1.915  0.0103  0.1983  0.2537
 3151TIP3    H130868   0.185   2.101   2.000  0.7390 -0.5491  0.8215
 3151TIP3    H230869   0.304   2.080   1.908  0.2967 -1.2377  0.3971
 3152TIP3   OH230870   4.057   0.166   5.172 -0.1567 -0.1021  0.1793
 3152TIP3    H130871   4.039   0.097   5.108  0.1110  0.3538 -0.3993
 3152TIP3    H230872   4.128   0.131   5.226  0.5754  0.0315 -0.6531
 3153TIP3   OH230873   1.714   4.877   3.930  0.8094  0.0186 -0.3448
 3153TIP3    H130874   1.685   4.905   4.017 -0.6196 -2.1327 -0.0346
 3153TIP3    H230875   1.659   4.926   3.869  0.5194  0.1770  0.0391
 3154TIP3   OH230876   1.795   2.739  14.823  0.2742 -0.2164  0.5044
 3154TIP3    H130877   1.889   2.754  14.817  0.0805  1.3310  0.8206
 3154TIP3    H230878   1.764   2.806  14.884 -1.1720  0.0080 -0.4347
 3155TIP3   OH230879   2.088   3.610   5.348  0.1803  0.3401 -0.0853
 3155TIP3    H130880   2.131   3.600   5.433 -1.9816  2.8947  1.4846
 3155TIP3    H230881   2.048   3.524   5.331  3.2222 -1.1995 -0.2107
 3156TIP3   OH230882   1.663   3.231  12.567  0.1989 -0.0117  0.3567
 3156TIP3    H130883   1.743   3.283  12.576  0.2120 -0.0314  0.3522
 3156TIP3    H230884   1.592   3.295  12.576  0.1951  0.4381 -2.1186
 3157TIP3   OH230885   0.921   2.301   3.116  0.2114  0.2788  0.3456
 3157TIP3    H130886   0.855   2.309   3.047  0.2350 -0.6048  0.2002
 3157TIP3    H230887   0.931   2.206   3.128  0.8170  0.4147  0.9785
 3158TIP3   OH230888   0.962   1.197  16.398  0.1154  0.3077 -0.2858
 3158TIP3    H130889   0.975   1.216  16.491 -0.6464  0.4485 -0.2068
 3158TIP3    H230890   0.988   1.105  16.389  1.2839  0.6070 -0.1673
 3159TIP3   OH230891   1.844   3.490  13.985 -0.8008 -0.6187 -0.1111
 3159TIP3    H130892   1.812   3.549  14.053 -2.0429 -1.5495  0.1466
 3159TIP3    H230893   1.847   3.404  14.027  1.1262 -0.7580 -0.4379
 3160TIP3   OH230894   1.820   0.024  13.948  0.0818  0.4488  0.6376
 3160TIP3    H130895   1.792   0.021  13.857 -1.3098 -0.9391  1.0652
 3160TIP3    H230896   1.907   0.064  13.945  0.5031 -0.4867 -1.4022
 3161TIP3   OH230897   4.702   1.714  13.279  0.0992 -0.2900 -0.3034
 3161TIP3    H130898   4.684   1.805  13.255  3.1559  0.4831 -0.0664
 3161TIP3    H230899   4.715   1.717  13.374  0.0671 -1.0248 -0.2744
 3162TIP3   OH230900   5.923   2.462  13.711 -0.0450 -0.7278 -0.0749
 3162TIP3    H130901   5.971   2.439  13.632 -0.4730 -1.5342 -0.1126
 3162TIP3    H230902   5.858   2.526  13.682  0.3908 -0.3406 -0.2015
 3163TIP3   OH230903   5.662   2.918  14.203 -0.1931  0.0012 -0.5746
 3163TIP3    H130904   5.692   2.863  14.275  0.3143  0.2151 -0.6150
 3163TIP3    H230905   5.656   2.859  14.128  1.2382  0.1652 -0.8443
 3164TIP3   OH230906   0.107   6.583  14.673  0.6423  0.5630 -0.3366
 3164TIP3    H130907   0.170   6.529  14.721  0.6316  0.2675 -0.6549
 3164TIP3    H230908   0.053   6.624  14.742  1.1725  0.8102 -0.0666
 3165TIP3   OH230909   5.986   5.105  13.406 -0.4604 -0.1117 -0.0328
 3165TIP3    H130910   6.047   5.037  13.433 -2.2839 -2.4412 -1.3243
 3165TIP3    H230911   6.015   5.131  13.319 -0.4055 -0.0667 -0.0012
 3166TIP3   OH230912   2.169   3.503  15.424 -0.1228  0.3162  0.5672
 3166TIP3    H130913   2.073   3.505  15.428 -0.1527 -0.1845  0.1802
 3166TIP3    H230914   2.191   3.410  15.421  0.3551  0.4400  0.0687
 3167TIP3   OH230915   1.380   4.181  14.515 -0.3800  0.5601 -0.1560
 3167TIP3    H130916   1.391   4.111  14.451 -0.3975 -1.5495  2.0304
 3167TIP3    H230917   1.420   4.258  14.473  0.7319 -1.0098 -2.1559
 3168TIP3   OH230918   2.935   6.447  11.234  0.1295  0.1917  0.0969
 3168TIP3    H130919   3.016   6.482  11.271  0.5904 -1.3896  0.6529
 3168TIP3    H230920   2.883   6.420  11.311  0.3500 -1.5113 -0.3082
 3169TIP3   OH230921   0.004   5.418  11.863  0.1287  0.0052  0.0705
 3169TIP3    H130922   0.080   5.363  11.843  0.0687 -0.5405  1.2554
 3169TIP3    H230923  -0.071   5.358  11.856  0.0207  0.0243  0.9068
 3170TIP3   OH230924   3.122   4.965   5.283  0.1419 -0.3714 -0.2646
 3170TIP3    H130925   3.087   5.044   5.243  1.8604  1.0505  0.9145
 3170TIP3    H230926   3.049   4.928   5.332 -0.1223  1.8502  1.1469
 3171TIP3   OH230927   3.963   6.218   0.323  1.0786  0.5605 -0.3959
 3171TIP3    H130928   4.025   6.258   0.262  0.2291  0.7348 -1.1692
 3171TIP3    H230929   3.877   6.236   0.285  0.5871 -0.3341  0.2488
 3172TIP3   OH230930   4.357   0.986   2.473 -0.0896 -0.3313 -0.2245
 3172TIP3    H130931   4.402   0.902   2.459  1.3272  0.6458 -1.9075
 3172TIP3    H230932   4.423   1.052   2.454 -0.9444  1.2196  1.8675
 3173TIP3   OH230933   3.572   5.177  13.091 -0.2444  0.0611 -0.3664
 3173TIP3    H130934   3.512   5.247  13.118 -0.0558  0.8509 -1.8564
 3173TIP3    H230935   3.578   5.187  12.996  0.6687 -1.2937 -0.4725
 3174TIP3   OH230936   0.919   4.906  13.713 -0.0197  0.4086 -0.2941
 3174TIP3    H130937   0.995   4.962  13.726 -1.2137  1.4504  3.1646
 3174TIP3    H230938   0.845   4.966  13.706 -1.2254 -0.5871  2.5588
 3175TIP3   OH230939   1.521   5.626  13.518 -0.0769  0.2583  0.1310
 3175TIP3    H130940   1.543   5.593  13.605  0.0492 -0.3429 -0.1215
 3175TIP3    H230941   1.518   5.548  13.463 -0.0804  0.6415 -0.4232
 3176TIP3   OH230942   1.174   5.313  13.908  0.3162  0.1893  0.1458
 3176TIP3    H130943   1.208   5.294  13.995  1.0004  2.9892  0.5657
 3176TIP3    H230944   1.080   5.302  13.915  0.4097 -0.0271  1.1081
 3177TIP3   OH230945   5.424   5.727   0.870  0.5585 -0.1380  0.1898
 3177TIP3    H130946   5.499   5.786   0.876 -0.6788  1.4204  1.3325
 3177TIP3    H230947   5.348   5.785   0.869 -0.6521 -1.6472 -1.3860
 3178TIP3   OH230948   3.261   5.332   4.667  0.2105 -0.0677 -0.5932
 3178TIP3    H130949   3.329   5.397   4.650  0.9395 -1.2758 -2.4587
 3178TIP3    H230950   3.296   5.279   4.739  1.5220 -0.9988 -1.8698
 3179TIP3   OH230951   3.747   6.020  11.937 -0.3464 -0.0609 -0.7713
 3179TIP3    H130952   3.784   6.067  12.012 -1.1752 -0.7778  0.1041
 3179TIP3    H230953   3.678   5.965  11.974  0.6551 -2.0932 -1.7027
 3180TIP3   OH230954   2.201   5.213  16.982 -0.4080  0.3728 -0.4946
 3180TIP3    H130955   2.184   5.137  17.038  1.8945 -0.3526 -0.6653
 3180TIP3    H230956   2.126   5.271  16.996 -0.9900 -0.7953  1.5873
 3181TIP3   OH230957   0.827   5.736   3.219  0.1928  0.6662  0.2124
 3181TIP3    H130958   0.751   5.710   3.271  1.5578  0.4055  2.1793
 3181TIP3    H230959   0.791   5.754   3.132 -2.1527  0.8634  1.1430
 3182TIP3   OH230960   3.656   5.064   0.853 -0.1780  0.1824 -0.4350
 3182TIP3    H130961   3.587   5.119   0.817 -1.2665 -0.4827  0.5944
 3182TIP3    H230962   3.728   5.124   0.871 -0.5181  0.9019 -1.4087
 3183TIP3   OH230963   0.816   2.741   4.170 -0.2987  0.2597 -0.1429
 3183TIP3    H130964   0.732   2.771   4.205  0.4300  0.5642  1.4689
 3183TIP3    H230965   0.845   2.812   4.112 -0.0822  1.2560  1.1419
 3184TIP3   OH230966   1.812   4.500   3.395  0.0270 -0.5915  0.6179
 3184TIP3    H130967   1.723   4.521   3.364  0.2881  0.3720  0.4993
 3184TIP3    H230968   1.870   4.544   3.333  0.5770 -0.4442  1.2292
 3185TIP3   OH230969   4.944   4.379   5.023 -0.1297  0.0472  0.2292
 3185TIP3    H130970   4.961   4.418   5.108 -0.2868  2.0485 -0.6004
 3185TIP3    H230971   4.854   4.402   5.003 -1.0219 -2.7512  0.6561
 3186TIP3   OH230972   2.687   5.109  10.866  0.0161 -0.1963 -0.3062
 3186TIP3    H130973   2.695   5.149  10.780  0.5339  1.8011  0.6216
 3186TIP3    H230974   2.601   5.067  10.866 -0.5575  0.9608 -1.3206
 3187TIP3   OH230975   5.273   5.878   2.461  0.8863 -0.1428  0.4947
 3187TIP3    H130976   5.270   5.888   2.365  1.4341 -0.0268  0.4846
 3187TIP3    H230977   5.318   5.957   2.491 -0.9256  0.7327  1.0178
 3188TIP3   OH230978   0.911   6.156   1.656 -0.0659  0.0506  0.7014
 3188TIP3    H130979   0.948   6.069   1.638  0.8388  0.6432 -0.4783
 3188TIP3    H230980   0.980   6.203   1.702 -0.5410  0.1745  1.3064
 3189TIP3   OH230981   6.467   1.866   1.215  0.2538  0.1699 -0.1237
 3189TIP3    H130982   6.453   1.951   1.173  0.5417 -0.6819 -2.0462
 3189TIP3    H230983   6.424   1.874   1.301 -2.1645  1.3433 -1.3404
 3190TIP3   OH230984   5.204   4.440  14.705 -0.0999  0.1496  0.0117
 3190TIP3    H130985   5.248   4.392  14.635  0.7820 -0.6732  1.0894
 3190TIP3    H230986   5.144   4.376  14.744  1.0168 -0.1061  1.3997
 3191TIP3   OH230987   4.083   2.353  16.527 -0.3047  0.3451  0.1727
 3191TIP3    H130988   4.050   2.277  16.576  0.2328  1.5210  2.4916
 3191TIP3    H230989   4.174   2.362  16.557 -0.6746  2.5178  0.7566
 3192TIP3   OH230990   0.635   3.444  15.040  0.5476 -0.0619 -0.0921
 3192TIP3    H130991   0.723   3.410  15.025 -0.1847 -1.3055 -1.8244
 3192TIP3    H230992   0.583   3.367  15.063 -0.2295  0.5643  0.2912
 3193TIP3   OH230993   5.936   5.363  11.802 -0.5697 -0.2835  0.1789
 3193TIP3    H130994   6.010   5.320  11.760 -0.4896  0.9360 -1.0173
 3193TIP3    H230995   5.972   5.400  11.883  0.4792  1.3230 -0.9569
 3194TIP3   OH230996   1.906   6.080   0.961  0.3214 -0.7387  0.0460
 3194TIP3    H130997   1.848   6.012   0.926 -0.4860 -0.0954  0.0997
 3194TIP3    H230998   1.971   6.094   0.893 -1.6469  1.0285 -1.6393
 3195TIP3   OH230999   5.026   4.457   0.022  1.0603 -0.5564  0.2553
 3195TIP3    H131000   4.970   4.530  -0.005  0.3167 -1.4813 -0.7851
 3195TIP3    H231001   4.966   4.387   0.046  1.7512 -1.4025 -0.3892
 3196TIP3   OH231002   4.521   2.383  16.137  0.0861  0.2800  0.2188
 3196TIP3    H131003   4.518   2.298  16.093  0.1699  0.3645  0.0492
 3196TIP3    H231004   4.609   2.417  16.119 -0.6211  1.3496 -1.5235
 3197TIP3   OH231005   1.300   2.678   1.602 -0.7386 -0.2912 -1.0266
 3197TIP3    H131006   1.371   2.739   1.579 -0.4998 -0.5988 -1.1032
 3197TIP3    H231007   1.229   2.735   1.632 -0.8451  0.0820 -1.9484
 3198TIP3   OH231008   4.977   3.125  11.389 -0.3480 -0.8259  0.0110
 3198TIP3    H131009   5.068   3.095  11.395  0.5057  1.6832  0.6727
 3198TIP3    H231010   4.976   3.208  11.437 -2.8602 -0.4857 -0.5160
 3199TIP3   OH231011   4.547   5.201  14.828 -0.2064 -0.5896  0.3687
 3199TIP3    H131012   4.507   5.222  14.913  0.1051 -0.2004  0.4244
 3199TIP3    H231013   4.505   5.120  14.801  0.7442 -1.5377  1.6063
 3200TIP3   OH231014   0.542   0.055   3.420  0.1635 -0.3636 -0.2972
 3200TIP3    H131015   0.546  -0.024   3.367  0.6603  0.4848 -1.5781
 3200TIP3    H231016   0.621   0.104   3.397  0.8640 -0.3258  1.8732
 3201TIP3   OH231017   5.177   3.599   5.239  0.2183 -0.5582 -0.0401
 3201TIP3    H131018   5.197   3.626   5.149 -0.3841  0.3343  0.0817
 3201TIP3    H231019   5.192   3.679   5.291 -2.0316 -0.2945  0.2771
 3202TIP3   OH231020   0.613   2.243   4.660  0.4069 -0.3657 -0.4257
 3202TIP3    H131021   0.642   2.291   4.583  1.2488  1.5631  0.9982
 3202TIP3    H231022   0.692   2.201   4.694  0.7715  1.3933  1.0805
 3203TIP3   OH231023   4.319   4.923  11.897  0.0407  0.4156  0.6781
 3203TIP3    H131024   4.352   4.958  11.980 -0.0768  1.2977  0.3684
 3203TIP3    H231025   4.383   4.950  11.832 -0.3878  0.6191  0.3336
 3204TIP3   OH231026   0.187   2.132   4.577 -0.2744  0.7428  0.1407
 3204TIP3    H131027   0.140   2.059   4.536 -0.8580  1.0654  0.2215
 3204TIP3    H231028   0.235   2.173   4.506  2.4252 -1.4466  0.5483
 3205TIP3   OH231029   4.372   2.139  12.260 -0.1689  0.0834 -0.0300
 3205TIP3    H131030   4.284   2.156  12.227  0.3007  0.2977 -1.2153
 3205TIP3    H231031   4.430   2.164  12.188  0.8739  0.0909  0.7849
 3206TIP3   OH231032   4.668   3.990   2.504 -0.2284  0.6398  0.3502
 3206TIP3    H131033   4.615   3.966   2.428 -0.4384 -0.2020  0.7423
 3206TIP3    H231034   4.693   4.081   2.489  0.5061  0.2217 -1.1813
 3207TIP3   OH231035   2.173   2.628   5.424  0.0844  0.5904  0.3991
 3207TIP3    H131036   2.192   2.705   5.478 -1.9296  0.7160  1.0100
 3207TIP3    H231037   2.260   2.596   5.398  1.0059  3.1299 -0.0218
 3208TIP3   OH231038   3.421   1.323  14.536  0.8779 -0.1612  0.6052
 3208TIP3    H131039   3.389   1.280  14.457 -3.1034  0.8094  1.4275
 3208TIP3    H231040   3.474   1.257  14.580  1.0164 -1.6219 -1.5916
 3209TIP3   OH231041   2.016   4.835   4.666  0.2594  0.1824  0.3888
 3209TIP3    H131042   2.082   4.828   4.597 -0.7104 -0.9819 -0.4753
 3209TIP3    H231043   2.025   4.755   4.716  0.7350  0.8784  1.4498
 3210TIP3   OH231044   3.945   5.933   0.738 -0.0176 -0.1925  0.4323
 3210TIP3    H131045   3.876   5.886   0.786 -0.2551  1.1413  1.4359
 3210TIP3    H231046   4.003   5.967   0.806 -0.1179  1.3832 -0.2316
 3211TIP3   OH231047   3.855   0.098  13.935 -0.2222 -0.2956  0.0439
 3211TIP3    H131048   3.793   0.026  13.927 -0.3861  0.0129 -2.3468
 3211TIP3    H231049   3.843   0.131  14.024 -0.6584 -2.6984  0.9615
 3212TIP3   OH231050   1.917   0.291   1.096  0.3922  0.0111  0.2972
 3212TIP3    H131051   1.857   0.244   1.154 -0.3200  1.5149  0.8380
 3212TIP3    H231052   2.002   0.284   1.139  0.2202 -0.4478  0.5687
 3213TIP3   OH231053   0.669   5.833   4.098  0.6003  0.3681 -0.4199
 3213TIP3    H131054   0.725   5.862   4.026  0.7979  0.0604 -0.3920
 3213TIP3    H231055   0.689   5.740   4.108  1.5358  0.6745  0.8709
 3214TIP3   OH231056   3.729   4.069  12.318 -0.4298 -0.9739 -0.1144
 3214TIP3    H131057   3.706   4.040  12.406  1.6565 -0.5913  0.6045
 3214TIP3    H231058   3.768   4.155  12.331  0.1218 -1.0123 -1.3976
 3215TIP3   OH231059   3.790   0.030  11.527  0.1876 -0.6570 -0.6564
 3215TIP3    H131060   3.847   0.004  11.455  2.2365  0.4655  0.4636
 3215TIP3    H231061   3.848   0.032  11.604 -0.5400  3.4484  0.0165
 3216TIP3   OH231062   5.715   3.978  14.742  0.2514  0.2500 -0.5098
 3216TIP3    H131063   5.631   3.936  14.723  0.7097 -0.5530 -0.8155
 3216TIP3    H231064   5.692   4.053  14.796 -0.7670  0.6592 -1.4740
 3217TIP3   OH231065   4.292   3.807  11.330  0.0069 -0.5312 -0.0583
 3217TIP3    H131066   4.275   3.860  11.252  0.8928 -3.1550 -2.1997
 3217TIP3    H231067   4.207   3.771  11.353 -0.5347  1.3986  1.1961
 3218TIP3   OH231068   0.035   2.002  11.905 -0.0418 -0.8294 -0.8914
 3218TIP3    H131069   0.065   2.086  11.872 -0.7853 -0.7155 -1.2973
 3218TIP3    H231070  -0.029   2.024  11.973  0.5863 -1.0680 -0.2113
 3219TIP3   OH231071   3.814   5.553   2.161  0.2159 -0.0463  0.2155
 3219TIP3    H131072   3.738   5.542   2.218 -0.2529 -0.6569 -0.5194
 3219TIP3    H231073   3.880   5.594   2.218 -0.6211  0.4190  0.8818
 3220TIP3   OH231074   3.908   3.820  17.323  0.4832  0.7034 -0.2517
 3220TIP3    H131075   3.892   3.882  17.394 -0.3642 -0.2333  0.3977
 3220TIP3    H231076   4.000   3.835  17.299  1.0114  0.5776  1.4993
 3221TIP3   OH231077   0.465   2.605   3.988 -0.2213 -0.1989  0.2772
 3221TIP3    H131078   0.388   2.550   4.007 -1.1119  1.3747  1.4797
 3221TIP3    H231079   0.460   2.676   4.052  1.5975  0.5965 -0.4019
 3222TIP3   OH231080   4.119   3.913   0.480  0.4614  0.3571 -0.1400
 3222TIP3    H131081   4.038   3.871   0.449  0.6163 -0.8344  1.0142
 3222TIP3    H231082   4.093   3.959   0.559  0.5609  1.4898 -0.7358
 3223TIP3   OH231083   3.584   6.605  16.041 -0.0602 -0.4087 -0.2576
 3223TIP3    H131084   3.622   6.517  16.041 -0.7614 -0.7144 -0.1251
 3223TIP3    H231085   3.651   6.660  16.000  1.4998 -0.5262  1.9596
 3224TIP3   OH231086   1.201   4.328  12.212 -0.5407 -0.2298 -0.0890
 3224TIP3    H131087   1.200   4.265  12.284 -0.2764  0.4688  0.5265
 3224TIP3    H231088   1.291   4.325  12.179 -0.5765 -0.3022 -0.1834
 3225TIP3   OH231089   0.584   1.704  15.794 -0.1449  0.2514  0.0356
 3225TIP3    H131090   0.537   1.730  15.872  1.6748  0.4694  1.1224
 3225TIP3    H231091   0.675   1.694  15.823  0.3594 -0.8884 -1.7824
 3226TIP3   OH231092   1.744   4.308   1.186  0.3006  0.2534  0.4316
 3226TIP3    H131093   1.740   4.216   1.160  0.2792 -0.1437  1.7630
 3226TIP3    H231094   1.822   4.342   1.142  1.0009 -0.7330  0.8765
 3227TIP3   OH231095   5.418   5.622  12.414 -0.0849 -0.1931  0.2383
 3227TIP3    H131096   5.338   5.607  12.364  0.3657 -0.0876 -0.5397
 3227TIP3    H231097   5.415   5.715  12.438 -0.1707 -0.1765  0.1633
 3228TIP3   OH231098   1.070   5.019  16.837  0.2697  0.3067  0.2536
 3228TIP3    H131099   1.050   4.932  16.802  2.0296  0.4523 -1.2465
 3228TIP3    H231100   1.084   5.004  16.931  3.2747 -1.6213 -0.3510
 3229TIP3   OH231101   1.368   0.634  16.127 -0.0674  0.1823 -0.1469
 3229TIP3    H131102   1.353   0.668  16.039 -0.4501 -0.8593 -0.5040
 3229TIP3    H231103   1.463   0.638  16.140 -0.0058  0.2700 -0.6337
 3230TIP3   OH231104   3.388   0.149  11.172  0.1712 -0.1437  0.0269
 3230TIP3    H131105   3.457   0.099  11.127 -0.1618 -0.2540 -0.3706
 3230TIP3    H231106   3.308   0.130  11.122 -0.3697 -0.9036  1.1481
 3231TIP3   OH231107   0.160   6.295  15.737  0.3524  0.0035  0.3433
 3231TIP3    H131108   0.232   6.251  15.782 -1.8782 -1.9335  2.2822
 3231TIP3    H231109   0.175   6.277  15.645  2.6343  0.1597  0.6349
 3232TIP3   OH231110   5.687   2.628  15.311 -0.4634 -0.3036 -0.6146
 3232TIP3    H131111   5.662   2.616  15.403  1.0570 -1.4823 -0.3188
 3232TIP3    H231112   5.783   2.627  15.312 -0.3914  1.4555 -2.0115
 3233TIP3   OH231113   3.492   4.059  14.501 -0.0085  0.4113  0.5350
 3233TIP3    H131114   3.499   4.148  14.536 -4.4330  1.4836 -0.6423
 3233TIP3    H231115   3.476   4.004  14.577  0.7745  0.9256  1.0833
 3234TIP3   OH231116   5.087   6.150   2.056 -0.2030 -0.5674 -0.2089
 3234TIP3    H131117   5.167   6.201   2.051 -0.4053  0.1055  2.2054
 3234TIP3    H231118   5.019   6.209   2.023 -0.0169 -0.3720 -0.2456
 3235TIP3   OH231119   2.120   1.916   6.040  0.2526  0.0673 -0.4523
 3235TIP3    H131120   2.138   2.010   6.048 -1.1992  0.3329  0.2311
 3235TIP3    H231121   2.195   1.874   6.081  1.5992  0.8488 -1.9933
 3236TIP3   OH231122   1.043   3.028   6.239 -0.8074  0.1452 -0.0906
 3236TIP3    H131123   1.122   2.975   6.251 -0.6380  0.1195 -1.1820
 3236TIP3    H231124   1.065   3.113   6.276 -0.7407 -0.2596  0.8106
 3237TIP3   OH231125   3.009   4.719  14.014 -0.5149 -0.1365  0.5206
 3237TIP3    H131126   3.065   4.793  14.038 -0.5454 -0.0455  0.3071
 3237TIP3    H231127   3.060   4.642  14.040 -0.9740 -0.0281  1.8633
 3238TIP3   OH231128   5.339   0.186   2.893 -0.2696 -0.0470  0.5332
 3238TIP3    H131129   5.364   0.243   2.821  0.8192  0.8867  1.5965
 3238TIP3    H231130   5.423   0.163   2.935 -0.8054 -1.2601  0.9885
 3239TIP3   OH231131   6.120   0.466  13.872  0.1908 -0.5931 -0.7232
 3239TIP3    H131132   6.157   0.539  13.921 -2.0733 -0.1626  0.5033
 3239TIP3    H231133   6.137   0.487  13.780  1.3120  0.4435 -0.3026
 3240TIP3   OH231134   4.940   6.192   2.738 -0.0130 -0.4263  0.3347
 3240TIP3    H131135   4.887   6.135   2.794 -1.7198  1.5533  0.8587
 3240TIP3    H231136   5.026   6.193   2.781 -0.1151 -2.0339  0.6652
 3241TIP3   OH231137   3.247   6.447   6.084  0.5088  0.0167 -0.3714
 3241TIP3    H131138   3.252   6.542   6.092 -1.4981  0.0776  0.6414
 3241TIP3    H231139   3.247   6.415   6.174  0.7414 -0.9396 -0.6935
 3242TIP3   OH231140   5.810   3.944   0.942 -0.3314  0.2280  0.2933
 3242TIP3    H131141   5.867   3.943   1.019 -1.6227  1.1516  1.3274
 3242TIP3    H231142   5.818   4.033   0.908  0.0965 -0.1257 -0.5550
 3243TIP3   OH231143   1.109   4.149  14.553  0.3288  0.2071  0.9443
 3243TIP3    H131144   1.117   4.071  14.608 -1.2117 -1.8122 -1.4138
 3243TIP3    H231145   1.198   4.182  14.544  0.8301 -0.3601  3.2118
 3244TIP3   OH231146   4.143   5.269  12.960 -0.1947  0.6727  0.4054
 3244TIP3    H131147   4.098   5.234  12.882  0.9463 -0.7572  0.3416
 3244TIP3    H231148   4.077   5.264  13.029 -1.0946  1.5694 -0.3508
 3245TIP3   OH231149   6.576   3.279   6.434  0.0028 -0.2445  0.0934
 3245TIP3    H131150   6.669   3.268   6.415 -0.0447 -1.5422  0.5212
 3245TIP3    H231151   6.572   3.356   6.490  0.6760  0.5600 -0.9278
 3246TIP3   OH231152   2.666   0.190   0.572 -0.1791 -1.1445 -0.6815
 3246TIP3    H131153   2.581   0.181   0.616 -0.4686  1.5551 -0.5206
 3246TIP3    H231154   2.650   0.251   0.501  1.7360 -0.1027 -0.2873
 3247TIP3   OH231155   6.542   6.745  12.476  0.0584  0.1611  0.3613
 3247TIP3    H131156   6.450   6.756  12.454 -0.1814  0.4373  1.4032
 3247TIP3    H231157   6.584   6.715  12.396 -0.7892  0.8417 -0.3497
 3248TIP3   OH231158   1.599   6.392   0.156  0.2491  0.3768  0.3759
 3248TIP3    H131159   1.549   6.364   0.232 -0.2688  1.9157  0.6369
 3248TIP3    H231160   1.612   6.486   0.169  0.7435  0.5360 -1.0919
 3249TIP3   OH231161   1.291   1.263  17.142  0.1833  0.3148 -0.2861
 3249TIP3    H131162   1.342   1.311  17.207  0.7066  0.4829 -0.8091
 3249TIP3    H231163   1.333   1.285  17.059 -0.3344 -0.0810 -0.6515
 3250TIP3   OH231164   6.417   3.136  16.302 -0.8003  0.1558 -0.3650
 3250TIP3    H131165   6.395   3.167  16.390 -1.8431  1.5764 -1.0829
 3250TIP3    H231166   6.511   3.151  16.294 -0.2710 -1.8834  1.1955
 3251TIP3   OH231167   5.503   6.657   0.679 -0.2950 -0.6195  0.1657
 3251TIP3    H131168   5.553   6.698   0.749 -1.1677 -0.2668  0.5921
 3251TIP3    H231169   5.434   6.720   0.658  1.1523  0.2405 -2.4715
 3252TIP3   OH231170   0.093   2.958   3.068 -0.4356  0.2248 -0.1721
 3252TIP3    H131171   0.114   2.918   3.152 -0.9986  0.0709 -0.1056
 3252TIP3    H231172   0.122   3.049   3.077 -0.1520  0.1124  0.0527
 3253TIP3   OH231173   5.480   3.863  14.922  0.2074  0.5510 -0.2006
 3253TIP3    H131174   5.486   3.768  14.932 -0.5485  0.4958 -0.1975
 3253TIP3    H231175   5.510   3.897  15.006 -0.2490  0.2876  0.0740
 3254TIP3   OH231176   4.023   3.175   2.532 -0.1601  0.6918  0.0016
 3254TIP3    H131177   4.063   3.165   2.619 -0.0456  1.6700  0.0704
 3254TIP3    H231178   3.972   3.095   2.520 -1.1151  1.0359  1.4631
 3255TIP3   OH231179   0.329   2.797  15.963  0.3668  0.5328 -0.3108
 3255TIP3    H131180   0.249   2.824  15.918 -0.9533 -1.9714  0.3508
 3255TIP3    H231181   0.389   2.771  15.893  1.0842  3.2822 -0.8709
 3256TIP3   OH231182   5.406   3.139  12.478 -0.2715 -0.1443  0.2488
 3256TIP3    H131183   5.430   3.063  12.424 -0.4568  0.2216 -0.3584
 3256TIP3    H231184   5.319   3.164  12.447  0.6362  1.6245 -1.0567
 3257TIP3   OH231185   3.909   0.522   3.031 -0.1272 -0.3563  0.0248
 3257TIP3    H131186   3.856   0.538   2.953 -2.9050 -0.3298  1.7914
 3257TIP3    H231187   3.972   0.455   3.003 -0.2879  0.4255 -2.4952
 3258TIP3   OH231188   5.510   5.988  15.661 -0.8378  0.1000 -0.1764
 3258TIP3    H131189   5.541   6.061  15.607 -0.1061  0.5174  0.7850
 3258TIP3    H231190   5.495   6.027  15.748  1.7150 -1.2993  0.9923
 3259TIP3   OH231191   0.987   0.392   3.700 -0.3584 -0.1722  0.4580
 3259TIP3    H131192   1.054   0.325   3.712 -0.0540  0.0111 -0.2052
 3259TIP3    H231193   0.929   0.357   3.633  0.6817  0.8635 -1.0696
 3260TIP3   OH231194   2.447   0.925   3.472 -0.7239 -0.2411 -0.6672
 3260TIP3    H131195   2.440   0.931   3.377  0.2882 -0.1162 -0.7446
 3260TIP3    H231196   2.454   0.832   3.490  1.5589 -0.1623 -0.9350
 3261TIP3   OH231197   3.200   2.009  11.924  0.4733  0.3838 -0.2176
 3261TIP3    H131198   3.166   1.928  11.962 -0.7323  1.1678  0.4508
 3261TIP3    H231199   3.167   2.009  11.834 -0.7042  0.7777  0.2003
 3262TIP3   OH231200   0.386   2.902  16.625 -0.3704  0.2550 -0.5122
 3262TIP3    H131201   0.324   2.842  16.667  1.4205 -0.9622  0.5269
 3262TIP3    H231202   0.470   2.856  16.629  0.4418  1.3935 -2.8149
 3263TIP3   OH231203   4.467   5.217   3.053  0.6630 -0.2292 -0.0276
 3263TIP3    H131204   4.381   5.178   3.065  0.8438 -0.3975  0.7456
 3263TIP3    H231205   4.475   5.229   2.958 -0.1577 -0.3192 -0.1112
 3264TIP3   OH231206   3.728   6.243  12.419  0.0518 -0.2489  0.3046
 3264TIP3    H131207   3.775   6.316  12.379  0.7970 -0.4494  0.8050
 3264TIP3    H231208   3.638   6.276  12.430  0.6255  1.0054  1.5422
 3265TIP3   OH231209   2.224   4.490   2.932  0.7865  0.0191  0.8590
 3265TIP3    H131210   2.268   4.469   2.850  0.2835 -2.0186  1.0664
 3265TIP3    H231211   2.269   4.437   2.998  0.4942  0.8313  1.7368
 3266TIP3   OH231212   2.442   6.673  13.362  0.3239 -0.0410  0.1110
 3266TIP3    H131213   2.442   6.769  13.368  0.8855  0.0810 -1.5373
 3266TIP3    H231214   2.461   6.654  13.271  0.2323 -1.7446  0.4121
 3267TIP3   OH231215   3.787   0.338   0.916 -0.3466  0.3752  0.2130
 3267TIP3    H131216   3.696   0.365   0.924 -0.7118 -1.1004  1.5385
 3267TIP3    H231217   3.784   0.242   0.915  1.2397  0.2782  1.1979
 3268TIP3   OH231218   4.726   0.514  14.246 -0.2758 -0.5843  1.2343
 3268TIP3    H131219   4.648   0.471  14.281 -0.2204  0.5870  2.9341
 3268TIP3    H231220   4.784   0.524  14.322 -0.9047  3.7617  1.4064
 3269TIP3   OH231221   0.896   6.217   2.031  0.4223 -0.3259  0.3482
 3269TIP3    H131222   0.946   6.136   2.021 -0.1979 -0.5615 -1.2751
 3269TIP3    H231223   0.959   6.287   2.012  0.5396 -0.5393 -0.0605
 3270TIP3   OH231224   4.895   1.647  13.685 -0.0669  0.0456 -0.1723
 3270TIP3    H131225   4.972   1.677  13.733  0.4181  0.0334 -0.9266
 3270TIP3    H231226   4.929   1.584  13.622 -0.0847  2.6454 -3.0113
 3271TIP3   OH231227   3.047   1.457  12.350 -0.3192 -0.0443  0.0747
 3271TIP3    H131228   3.101   1.480  12.426 -1.9610 -0.3055  1.3844
 3271TIP3    H231229   3.066   1.525  12.286 -0.0041  1.0650  1.2851
 3272TIP3   OH231230   2.860   4.684   2.759 -0.0206 -0.4648 -0.1128
 3272TIP3    H131231   2.820   4.601   2.783  0.4131 -1.7047 -3.2255
 3272TIP3    H231232   2.845   4.691   2.665  0.7968  2.5573 -0.1114
 3273TIP3   OH231233   3.537   0.893   0.804  0.5127 -0.1884  0.5124
 3273TIP3    H131234   3.552   0.817   0.748  0.1226  0.3374 -0.3235
 3273TIP3    H231235   3.443   0.892   0.821  0.7065 -0.6700  1.6567
 3274TIP3   OH231236   3.293   2.704  11.905  0.3409  0.3246  0.0895
 3274TIP3    H131237   3.268   2.632  11.963  0.1825  1.2392  1.1911
 3274TIP3    H231238   3.235   2.695  11.830  0.9653 -1.2537 -0.2663
 3275TIP3   OH231239   4.460   2.837  14.688  0.3327 -0.1630  0.3696
 3275TIP3    H131240   4.399   2.892  14.738 -0.9982 -1.7928  0.6045
 3275TIP3    H231241   4.404   2.786  14.629  1.5310 -1.2474  0.1331
 3276TIP3   OH231242   5.302   6.482   4.846  0.2729  0.2622 -0.4201
 3276TIP3    H131243   5.356   6.430   4.786  0.1054 -1.0027  0.4963
 3276TIP3    H231244   5.365   6.532   4.898  0.5127 -0.3537 -0.1160
 3277TIP3   OH231245   2.241   5.810  11.840 -0.0106  0.1603 -0.7378
 3277TIP3    H131246   2.269   5.860  11.763 -2.3839 -1.5163 -2.8464
 3277TIP3    H231247   2.285   5.726  11.832  0.8587  0.4430  0.6207
 3278TIP3   OH231248   0.112   3.684  13.201 -0.5798  0.5155  0.7901
 3278TIP3    H131249   0.180   3.748  13.221 -0.0756  0.3416 -0.2872
 3278TIP3    H231250   0.154   3.599  13.212 -0.4955  0.4083 -0.2161
 3279TIP3   OH231251   1.618   1.137  14.908  0.8017 -0.4004  0.1824
 3279TIP3    H131252   1.679   1.122  14.980  1.8122  3.3691  0.3626
 3279TIP3    H231253   1.612   1.233  14.902 -1.0365 -0.5719 -3.2800
 3280TIP3   OH231254   3.476   6.630  17.184  0.2162 -0.4879 -0.0893
 3280TIP3    H131255   3.553   6.642  17.239  0.9199 -0.6265 -1.0190
 3280TIP3    H231256   3.485   6.542  17.149  0.1985 -0.1167 -1.0533
 3281TIP3   OH231257   0.532   0.077  14.028  0.1275 -0.6239  0.1707
 3281TIP3    H131258   0.503  -0.009  14.059  1.4267 -0.4194  2.1402
 3281TIP3    H231259   0.604   0.101  14.087  0.4454  1.3992 -0.9357
 3282TIP3   OH231260   2.045   3.496   2.216 -0.0130  0.9145  0.4853
 3282TIP3    H131261   2.055   3.451   2.300  0.7259 -0.1320 -0.1364
 3282TIP3    H231262   2.131   3.487   2.174 -1.1428 -1.2344 -1.6278
 3283TIP3   OH231263   6.442   0.351  16.766 -0.3658 -0.6771 -0.2053
 3283TIP3    H131264   6.528   0.329  16.730  0.3555 -1.0676  1.6498
 3283TIP3    H231265   6.460   0.414  16.835 -1.7216  0.1486 -0.5501
 3284TIP3   OH231266   5.209   5.784  11.718  0.1072 -0.0383  0.4508
 3284TIP3    H131267   5.147   5.851  11.690  0.4632  0.9561  1.9250
 3284TIP3    H231268   5.229   5.734  11.639 -2.2139 -0.1104 -0.1490
 3285TIP3   OH231269   5.179   4.891  16.407  0.2179 -0.1264 -0.6778
 3285TIP3    H131270   5.215   4.809  16.439  0.5877  0.1482 -0.3839
 3285TIP3    H231271   5.238   4.959  16.440 -0.3967  0.3066 -0.4455
 3286TIP3   OH231272   5.744   3.644  14.006 -0.4304 -0.0505  0.1570
 3286TIP3    H131273   5.774   3.623  14.095  2.2584 -1.7530 -1.0187
 3286TIP3    H231274   5.753   3.739  14.000  2.1160 -0.1418  0.9047
 3287TIP3   OH231275   2.082   4.684  12.684  0.0927 -0.0389  0.5900
 3287TIP3    H131276   2.142   4.751  12.652  0.2231 -0.0312  0.8471
 3287TIP3    H231277   2.000   4.730  12.701  0.3403  0.1552  1.2684
 3288TIP3   OH231278   1.250   5.969   0.852 -0.1316  0.0459 -0.2187
 3288TIP3    H131279   1.295   5.956   0.935  0.8324  0.0860 -0.7163
 3288TIP3    H231280   1.292   5.906   0.792  1.4494  2.1986 -1.4954
 3289TIP3   OH231281   4.229   0.721  16.545  0.4028 -1.0629 -0.6275
 3289TIP3    H131282   4.155   0.708  16.605  0.1916  0.7427 -0.4672
 3289TIP3    H231283   4.201   0.677  16.464  0.3201 -2.7311  0.2648
 3290TIP3   OH231284   5.145   1.603   0.542 -0.0962 -0.1731 -0.1254
 3290TIP3    H131285   5.176   1.564   0.460  0.7306 -0.2889  0.2346
 3290TIP3    H231286   5.217   1.589   0.604  0.0125  1.4625  0.1592
 3291TIP3   OH231287   5.642   3.664   5.197 -0.1025 -0.1549 -0.4200
 3291TIP3    H131288   5.635   3.572   5.173 -1.2658 -0.8306  2.1667
 3291TIP3    H231289   5.698   3.665   5.274  0.1008  1.3334 -0.5514
 3292TIP3   OH231290   5.709   4.130   5.247 -0.1666 -0.2590  0.4136
 3292TIP3    H131291   5.641   4.063   5.256 -1.7130  1.0923 -0.5471
 3292TIP3    H231292   5.736   4.124   5.155 -1.3688  1.3125 -0.0891
 3293TIP3   OH231293   4.647   0.170   3.994 -0.0701 -0.5111  0.5991
 3293TIP3    H131294   4.671   0.108   4.063 -1.4629 -1.2639  0.4395
 3293TIP3    H231295   4.594   0.236   4.039 -0.7176 -0.8346  0.3215
 3294TIP3   OH231296   4.626   2.282   1.942 -0.6420 -0.0393  0.2522
 3294TIP3    H131297   4.607   2.267   1.849  0.7974 -0.0384 -0.0733
 3294TIP3    H231298   4.718   2.310   1.943 -0.7475  0.3400  1.6487
 3295TIP3   OH231299   6.056   1.642  16.721  0.2194 -0.3287  1.0185
 3295TIP3    H131300   5.992   1.710  16.742 -0.2983 -0.4987  0.0779
 3295TIP3    H231301   6.086   1.664  16.632  1.3798 -0.3272  1.3880
 3296TIP3   OH231302   6.436   4.395   0.326  0.3106 -0.7076  0.5795
 3296TIP3    H131303   6.432   4.366   0.417  1.2059  0.9575  1.2024
 3296TIP3    H231304   6.486   4.327   0.281  1.8904 -0.4631  1.8549
 3297TIP3   OH231305   2.649   1.646  16.194  0.1370 -0.3261  0.1878
 3297TIP3    H131306   2.567   1.653  16.145  0.9383  0.5130 -1.1007
 3297TIP3    H231307   2.626   1.597  16.272 -1.3536 -1.0841 -0.6776
 3298TIP3   OH231308   6.585   5.636  16.551  0.6076  0.3138  0.1364
 3298TIP3    H131309   6.508   5.688  16.573 -0.7684 -0.8793 -1.5287
 3298TIP3    H231310   6.646   5.698  16.511 -0.8730  0.7590 -1.5497
 3299TIP3   OH231311   3.670   2.363  15.327  0.4078 -0.0597  0.2389
 3299TIP3    H131312   3.634   2.304  15.394  0.4047 -1.1304 -0.6780
 3299TIP3    H231313   3.764   2.364  15.343  0.3808 -0.1383  0.4012
 3300TIP3   OH231314   2.247   6.210  12.393  0.1502 -0.3316 -0.6718
 3300TIP3    H131315   2.263   6.286  12.338 -0.6195 -0.4121 -1.0145
 3300TIP3    H231316   2.334   6.178  12.416  0.7356 -2.8148 -5.2494
 3301TIP3   OH231317   6.406   6.069   6.292 -0.3445  0.2539 -0.6814
 3301TIP3    H131318   6.327   6.081   6.344 -0.2109  0.7304 -0.5805
 3301TIP3    H231319   6.472   6.123   6.336 -0.2412  0.7131 -1.3843
 3302TIP3   OH231320   0.933   6.116   0.991 -0.6197  0.2545  0.0475
 3302TIP3    H131321   0.941   6.063   0.912 -0.6390  1.7878 -1.0415
 3302TIP3    H231322   0.857   6.172   0.974  0.8518  2.3539  0.0257
 3303TIP3   OH231323   3.395   6.644  15.727 -0.2380  0.1190 -0.4922
 3303TIP3    H131324   3.429   6.643  15.638  0.3911  1.4606 -0.2980
 3303TIP3    H231325   3.473   6.641  15.783 -0.5769  0.2323 -0.0055
 3304TIP3   OH231326   3.904   3.317   3.867 -0.2593  0.0916  0.8191
 3304TIP3    H131327   3.977   3.259   3.846  0.8558  2.0225 -1.0411
 3304TIP3    H231328   3.891   3.307   3.961  1.0552 -1.7805  0.8535
 3305TIP3   OH231329   0.449   2.802   0.548 -0.6254 -0.5237  0.3072
 3305TIP3    H131330   0.364   2.832   0.516 -0.3079 -0.5956 -0.6242
 3305TIP3    H231331   0.435   2.710   0.569 -0.6669 -0.6582 -0.2849
 3306TIP3   OH231332   6.032   1.017  12.947  0.6493 -1.1760  0.0596
 3306TIP3    H131333   5.969   1.069  12.998  0.1664 -1.6474 -0.0503
 3306TIP3    H231334   6.015   0.926  12.973 -1.7214 -1.8196 -3.0953
 3307TIP3   OH231335   6.000   6.085  16.194 -0.0069 -0.1694 -0.2747
 3307TIP3    H131336   6.049   6.166  16.196  0.1673 -0.2670 -0.6014
 3307TIP3    H231337   6.041   6.033  16.125  0.0387 -0.6323  0.0936
 3308TIP3   OH231338   3.819   0.466   6.205  0.8314  0.1996 -0.4384
 3308TIP3    H131339   3.837   0.537   6.143 -1.3170  1.4498  0.2579
 3308TIP3    H231340   3.845   0.501   6.290 -0.4482  0.3067 -0.0588
 3309TIP3   OH231341   2.938   0.593  11.987  0.3773 -0.3677 -0.0058
 3309TIP3    H131342   2.981   0.539  11.921  0.0531 -0.1612 -0.3869
 3309TIP3    H231343   2.845   0.572  11.980  0.1884  0.5503 -0.4620
 3310TIP3   OH231344   0.720   0.776  12.954  0.1176  0.2061 -0.0177
 3310TIP3    H131345   0.657   0.706  12.971  0.2001  0.1021 -0.1453
 3310TIP3    H231346   0.666   0.848  12.922  0.2276 -0.3824 -1.5792
 3311TIP3   OH231347   5.679   6.262  16.044  0.1643 -0.0234 -0.2603
 3311TIP3    H131348   5.712   6.202  16.111 -0.4703  0.9229  0.9525
 3311TIP3    H231349   5.751   6.324  16.030 -0.0578  0.3863  0.3346
 3312TIP3   OH231350   4.579   3.324   0.373  0.0140  0.0817  0.2836
 3312TIP3    H131351   4.633   3.402   0.378 -0.3099  0.2664  1.2088
 3312TIP3    H231352   4.504   3.349   0.319 -1.1883  1.1404  2.2974
 3313TIP3   OH231353   0.684   4.368   1.392 -0.0093 -0.1191 -0.3507
 3313TIP3    H131354   0.593   4.386   1.369  0.2746  0.6265 -0.9223
 3313TIP3    H231355   0.728   4.358   1.308  0.9431  2.1090 -0.1754
 3314TIP3   OH231356   1.102   2.099   2.851 -0.3291 -0.1400  0.3134
 3314TIP3    H131357   1.107   2.045   2.773  0.0843 -0.5690  0.6321
 3314TIP3    H231358   1.070   2.184   2.819  0.9471  0.0616 -0.5112
 3315TIP3   OH231359   6.334   0.374   6.713 -0.0705 -0.1378  0.2287
 3315TIP3    H131360   6.322   0.469   6.710 -1.6895 -0.3375 -1.3205
 3315TIP3    H231361   6.288   0.342   6.636 -1.1882 -2.3311  1.6978
 3316TIP3   OH231362   2.245   2.110   4.049 -0.1436 -0.2009 -0.5184
 3316TIP3    H131363   2.279   2.122   4.138  0.1436 -1.8219 -0.3786
 3316TIP3    H231364   2.279   2.185   4.000  0.0791  0.4700  0.6199
 3317TIP3   OH231365   5.607   1.257  13.960  0.4081  0.5471  0.0149
 3317TIP3    H131366   5.585   1.233  14.050  0.8661  0.1298  0.0211
 3317TIP3    H231367   5.606   1.174  13.913  0.3822  0.7380 -0.3204
 3318TIP3   OH231368   3.528   5.877   2.902  0.1005  0.3411 -0.0555
 3318TIP3    H131369   3.509   5.846   2.990 -2.1765 -1.3512 -1.0479
 3318TIP3    H231370   3.480   5.960   2.894  0.6694  0.7232  0.4112
 3319TIP3   OH231371   2.291   1.161  12.893  0.0183  0.0557 -0.5035
 3319TIP3    H131372   2.373   1.165  12.845 -0.6069  0.0069 -1.6233
 3319TIP3    H231373   2.269   1.252  12.912 -0.7783  0.2560 -2.2110
 3320TIP3   OH231374   4.751   1.797   3.412 -0.0655  0.5455  0.4856
 3320TIP3    H131375   4.765   1.731   3.343 -0.7982  0.1767  0.6864
 3320TIP3    H231376   4.770   1.880   3.369  1.8958  0.1582  0.4992
 3321TIP3   OH231377   4.346   3.503  15.476  0.3316  0.1052  0.8781
 3321TIP3    H131378   4.367   3.412  15.452 -0.0484  0.1723  0.2527
 3321TIP3    H231379   4.251   3.508  15.471  0.3685  0.6230  0.5796
 3322TIP3   OH231380   4.307   6.144   5.945 -0.9870 -0.5652  0.2566
 3322TIP3    H131381   4.272   6.193   5.871  0.7315  0.6781  0.1911
 3322TIP3    H231382   4.300   6.205   6.019 -1.3769 -1.2695  0.8111
 3323TIP3   OH231383   3.030   5.191  17.225  0.4403 -0.5557 -0.0556
 3323TIP3    H131384   3.085   5.268  17.215 -1.0035  0.4282 -0.7508
 3323TIP3    H231385   3.056   5.132  17.154 -0.1291  0.3644 -1.0502
 3324TIP3   OH231386   5.730   5.088   0.532 -0.0904  0.1511  0.0233
 3324TIP3    H131387   5.664   5.133   0.585 -1.0936 -1.4327  0.1880
 3324TIP3    H231388   5.729   5.135   0.448 -1.2116  0.3413  0.1263
 3325TIP3   OH231389   5.424   0.181   0.075  0.1066  0.1376  0.0675
 3325TIP3    H131390   5.337   0.142   0.078  0.6009 -0.9583  1.1610
 3325TIP3    H231391   5.423   0.236  -0.003 -1.4697 -0.0551 -0.0813
 3326TIP3   OH231392   2.356   6.380  12.168  0.1761  0.2762 -0.4223
 3326TIP3    H131393   2.431   6.422  12.127  0.1722  1.5534  0.8098
 3326TIP3    H231394   2.281   6.408  12.116  0.1468  2.0518  0.5164
 3327TIP3   OH231395   4.159   4.738  10.536  0.0226  0.1933  0.1892
 3327TIP3    H131396   4.253   4.753  10.533  0.5205 -2.5188 -0.5555
 3327TIP3    H231397   4.129   4.754  10.447  0.1566 -0.8408 -0.0537
 3328TIP3   OH231398   2.879   2.317  13.888 -0.4762 -0.2852  0.4598
 3328TIP3    H131399   2.822   2.323  13.812  1.9763  1.3320 -1.4118
 3328TIP3    H231400   2.877   2.224  13.912 -0.7801 -1.0114 -2.0854
 3329TIP3   OH231401   3.385   3.573   0.652  0.6129 -0.3585 -0.1934
 3329TIP3    H131402   3.291   3.568   0.635  0.5710 -0.1586 -0.0341
 3329TIP3    H231403   3.404   3.667   0.652  0.3294 -0.2168  2.2159
 3330TIP3   OH231404   2.434   0.859  11.841 -0.2732 -0.2260  0.5594
 3330TIP3    H131405   2.394   0.875  11.756  1.4360 -0.7309 -0.3975
 3330TIP3    H231406   2.376   0.796  11.883 -0.8599 -0.3860 -0.4566
 3331TIP3   OH231407   0.179   6.393  14.263 -0.1550 -0.7912  0.0972
 3331TIP3    H131408   0.135   6.425  14.184 -1.5173  0.1734  1.2128
 3331TIP3    H231409   0.258   6.349  14.229 -0.9755 -0.8993 -1.8264
 3332TIP3   OH231410   3.144   4.282  14.819 -0.4416 -0.0384  0.6775
 3332TIP3    H131411   3.113   4.211  14.874  0.8154 -0.8044  0.4502
 3332TIP3    H231412   3.170   4.351  14.880 -0.4524 -0.2934  0.9724
 3333TIP3   OH231413   5.515   1.008  11.671 -0.4484  0.2676  0.1336
 3333TIP3    H131414   5.442   1.056  11.710 -1.4506  0.1855 -1.5574
 3333TIP3    H231415   5.540   1.060  11.595 -0.0690 -0.7314 -0.4421
 3334TIP3   OH231416   0.422   3.831   0.046  0.4465 -0.2047 -0.1832
 3334TIP3    H131417   0.401   3.786   0.128  1.1544  1.3230  0.8860
 3334TIP3    H231418   0.339   3.866   0.016  0.2365 -0.4725  0.0721
 3335TIP3   OH231419   5.413   6.054  14.735  0.1124  0.0212  0.3070
 3335TIP3    H131420   5.481   6.029  14.798  1.2615  0.0832 -0.8610
 3335TIP3    H231421   5.350   5.982  14.737  2.2301 -2.0346 -1.4166
 3336TIP3   OH231422   0.362   5.049  16.146  0.2484 -0.3799 -0.4404
 3336TIP3    H131423   0.429   5.026  16.210 -1.3981 -0.0993  1.5012
 3336TIP3    H231424   0.297   4.979  16.153 -0.0761 -0.2366 -1.7004
 3337TIP3   OH231425   2.331   4.891   3.367  0.3782 -0.0450 -0.3195
 3337TIP3    H131426   2.401   4.825   3.376  0.7768  0.4245  0.1218
 3337TIP3    H231427   2.324   4.929   3.454 -1.7703 -1.3903  0.1748
 3338TIP3   OH231428   6.318   0.694  17.096  0.4753 -0.3085  0.3910
 3338TIP3    H131429   6.352   0.606  17.112  1.5962 -0.1385 -0.8554
 3338TIP3    H231430   6.388   0.753  17.124  1.0202  0.0664 -1.5623
 3339TIP3   OH231431   3.007   3.523  11.318  0.1056  0.0567 -0.5051
 3339TIP3    H131432   3.003   3.435  11.279 -0.5991  0.2538 -0.8928
 3339TIP3    H231433   2.959   3.514  11.401 -2.0051  0.5857 -1.5880
 3340TIP3   OH231434   5.274   2.195  15.425  0.2900 -0.7010 -0.2087
 3340TIP3    H131435   5.217   2.216  15.499  0.2677 -0.4504 -0.2963
 3340TIP3    H231436   5.275   2.100  15.422  0.6173 -0.7211  0.3738
 3341TIP3   OH231437   5.737   2.054   4.713 -0.7352  0.2025 -0.4780
 3341TIP3    H131438   5.779   2.055   4.627  1.1416  0.1469  0.3874
 3341TIP3    H231439   5.652   2.011   4.698 -1.8231  2.8279 -2.8253
 3342TIP3   OH231440   4.860   6.092   0.655  0.3344  0.0730 -0.6010
 3342TIP3    H131441   4.774   6.133   0.640 -0.0593 -0.7088 -0.5072
 3342TIP3    H231442   4.865   6.022   0.590  0.0776 -1.1219  0.6081
 3343TIP3   OH231443   2.720   2.207  16.555  0.2471 -0.9094 -0.1826
 3343TIP3    H131444   2.814   2.202  16.571  0.2591  0.0881  0.1221
 3343TIP3    H231445   2.713   2.235  16.464  0.3284  1.8645  0.5689
 3344TIP3   OH231446   5.552   2.828  15.179 -0.0360  0.3471 -0.4448
 3344TIP3    H131447   5.592   2.849  15.095  0.2097 -0.8605 -0.6445
 3344TIP3    H231448   5.607   2.759  15.216 -0.5112  0.4070  0.4099
 3345TIP3   OH231449   6.769   4.955  17.297  0.0048  0.5007 -0.0280
 3345TIP3    H131450   6.741   4.967  17.388 -0.2504 -1.2246  0.1478
 3345TIP3    H231451   6.854   4.911  17.304 -0.7933 -1.2224 -0.5963
 3346TIP3   OH231452   2.773   4.776  15.777 -0.3462  0.6120 -0.0710
 3346TIP3    H131453   2.807   4.688  15.764 -0.8308  0.6443 -1.7222
 3346TIP3    H231454   2.851   4.832  15.778 -0.0323  0.1877  1.0612
 3347TIP3   OH231455   0.311   4.941  11.080  0.5157 -0.0257  0.0697
 3347TIP3    H131456   0.353   4.991  11.010  0.0054  2.3543  1.3548
 3347TIP3    H231457   0.349   4.854  11.073  0.9878  0.3123 -2.7012
 3348TIP3   OH231458   0.206   1.445   5.191  0.4804  0.3326  0.3560
 3348TIP3    H131459   0.202   1.538   5.212  1.3319 -0.1370  2.9922
 3348TIP3    H231460   0.285   1.413   5.235 -0.4695 -1.8606  0.6528
 3349TIP3   OH231461   0.712   5.407   0.876  0.1029 -0.4202  0.3946
 3349TIP3    H131462   0.710   5.471   0.805  1.2720  0.2582  0.9445
 3349TIP3    H231463   0.683   5.325   0.835 -1.6095  0.4763 -0.2733
 3350TIP3   OH231464   3.583   2.431   3.128  0.0002 -0.4486  0.0716
 3350TIP3    H131465   3.537   2.511   3.105  2.2914  0.8563 -0.2493
 3350TIP3    H231466   3.559   2.413   3.219  0.7458  1.6005  0.7190
 3351TIP3   OH231467   0.121   5.239   2.903  0.1944 -0.2787  0.8322
 3351TIP3    H131468   0.190   5.211   2.843 -0.2754 -0.6944  0.4829
 3351TIP3    H231469   0.142   5.330   2.923  0.0870  0.0133 -0.3273
 3352TIP3   OH231470   5.699   6.751   5.013 -0.0423 -0.1450 -0.2657
 3352TIP3    H131471   5.744   6.679   4.970  1.1849  0.4380  0.0023
 3352TIP3    H231472   5.722   6.742   5.106  0.2162  0.6485 -0.2451
 3353TIP3   OH231473   4.522   4.547   1.509  0.3665 -0.2061  0.3026
 3353TIP3    H131474   4.476   4.565   1.590  1.1138  1.0039  0.4759
 3353TIP3    H231475   4.612   4.575   1.525  1.5289 -3.5487  0.3815
 3354TIP3   OH231476   5.219   1.504   6.176  0.4036 -0.2396  0.1333
 3354TIP3    H131477   5.239   1.523   6.268  1.8372  0.8187 -0.3749
 3354TIP3    H231478   5.206   1.409   6.174 -0.0989 -0.2252  1.4984
 3355TIP3   OH231479   4.926   4.633  14.757 -0.1420  0.2234  0.2621
 3355TIP3    H131480   4.870   4.588  14.693 -0.8139  0.6026  0.5791
 3355TIP3    H231481   5.008   4.648  14.709 -1.2014  2.0373 -1.1132
 3356TIP3   OH231482   2.421   5.992  13.544 -0.0716 -0.0466 -0.3270
 3356TIP3    H131483   2.408   6.082  13.513  0.8209 -0.3268 -1.6414
 3356TIP3    H231484   2.468   6.002  13.627 -2.0677  0.7257  0.7936
 3357TIP3   OH231485   5.936   4.930   1.245  0.1449  0.1544  0.3459
 3357TIP3    H131486   6.006   4.932   1.309 -0.2815  2.5488  0.8221
 3357TIP3    H231487   5.964   4.990   1.176 -0.2269 -0.9869 -0.8552
 3358TIP3   OH231488   1.564   4.729   1.175  0.3471 -0.1170  0.2206
 3358TIP3    H131489   1.482   4.735   1.127  0.2962 -3.4759 -0.3228
 3358TIP3    H231490   1.595   4.820   1.181 -2.0820  0.9559 -1.8157
 3359TIP3   OH231491   0.126   0.838   5.644 -0.0856 -0.2711  0.1137
 3359TIP3    H131492   0.159   0.921   5.676  2.5305  0.6452 -4.1903
 3359TIP3    H231493   0.191   0.773   5.673  0.2210 -0.1003 -0.1966
 3360TIP3   OH231494   6.370   2.556   0.430  0.5176  0.1281 -0.2416
 3360TIP3    H131495   6.377   2.460   0.436 -0.0598  0.1055  0.1983
 3360TIP3    H231496   6.461   2.586   0.432  0.7522 -0.4568 -1.3904
 3361TIP3   OH231497   2.641   6.108  12.087 -0.1054  0.0107 -0.0050
 3361TIP3    H131498   2.546   6.105  12.082 -0.1766 -1.1672  1.3048
 3361TIP3    H231499   2.663   6.043  12.154  1.5672  0.9073  0.3541
 3362TIP3   OH231500   2.776   5.010  17.076  0.6881 -0.1924 -0.3397
 3362TIP3    H131501   2.735   4.925  17.089 -2.5429  1.2249 -0.5399
 3362TIP3    H231502   2.752   5.034  16.986  5.7416 -1.0517 -2.2816
 3363TIP3   OH231503   5.481   5.846  11.461  0.0106  0.4048  0.1549
 3363TIP3    H131504   5.488   5.811  11.372 -0.0073  1.6449 -0.3529
 3363TIP3    H231505   5.567   5.883  11.479 -0.2963  1.1009  0.2330
 3364TIP3   OH231506   5.614   2.512  10.435 -0.1624 -0.0671  0.6093
 3364TIP3    H131507   5.578   2.528  10.522 -0.3618  1.1656  0.3155
 3364TIP3    H231508   5.592   2.590  10.385  1.5000  0.0224 -0.0449
 3365TIP3   OH231509   2.633   2.642   4.803  0.5323  0.3393 -0.4760
 3365TIP3    H131510   2.556   2.696   4.823  0.8072  0.8153 -0.6598
 3365TIP3    H231511   2.683   2.640   4.884  0.5329  0.3814 -0.4752
 3366TIP3   OH231512   6.675   1.860  17.304 -0.2104  0.4193  0.0640
 3366TIP3    H131513   6.656   1.771  17.274 -0.6087  0.2707  0.7345
 3366TIP3    H231514   6.741   1.848  17.372 -0.3625  0.6281  0.2468
 3367TIP3   OH231515   2.419   3.674  16.752  0.3953  0.1128 -0.2633
 3367TIP3    H131516   2.373   3.668  16.836 -1.2033  2.5735 -0.8572
 3367TIP3    H231517   2.383   3.603  16.699 -1.1501  0.6475  0.0299
 3368TIP3   OH231518   6.307   5.284   4.100 -0.1008 -0.3985  0.3143
 3368TIP3    H131519   6.341   5.355   4.156  0.9649 -1.3110  0.8549
 3368TIP3    H231520   6.272   5.220   4.162 -0.0718 -0.8440 -0.1310
 3369TIP3   OH231521   3.845   1.524  12.183  0.2848  0.0919  0.4224
 3369TIP3    H131522   3.765   1.533  12.131 -0.4048 -0.2679  1.3904
 3369TIP3    H231523   3.897   1.600  12.160 -1.0496  1.2197  0.9732
 3370TIP3   OH231524   1.377   3.776  11.982  0.0441  0.1943 -0.6566
 3370TIP3    H131525   1.386   3.849  11.920  1.4292  1.4555  0.9474
 3370TIP3    H231526   1.305   3.803  12.040  1.9351  1.4241  1.2834
 3371TIP3   OH231527   3.141   2.659  15.498 -0.6189 -0.0048 -0.3189
 3371TIP3    H131528   3.170   2.625  15.582 -2.2337 -1.8188 -0.4052
 3371TIP3    H231529   3.046   2.664  15.506 -0.7650  0.2071 -1.8887
 3372TIP3   OH231530   1.955   5.937   3.597  0.1267  0.1147 -0.0153
 3372TIP3    H131531   2.011   5.872   3.553  2.5163  1.3866  0.9637
 3372TIP3    H231532   1.879   5.945   3.540  0.9820 -1.6203 -1.5111
 3373TIP3   OH231533   6.504   6.022   0.458 -0.3282  0.3295 -0.2493
 3373TIP3    H131534   6.523   5.936   0.495 -1.3084 -0.0581 -0.5992
 3373TIP3    H231535   6.507   6.081   0.533 -0.6839 -0.1901  0.1888
 3374TIP3   OH231536   6.594   1.700  13.554 -0.2192  0.5931  0.2758
 3374TIP3    H131537   6.649   1.773  13.524 -1.3576  1.2725 -0.2166
 3374TIP3    H231538   6.504   1.729  13.536 -0.7554 -0.4038  1.2565
 3375TIP3   OH231539   0.789   3.441   2.624  0.4203  0.4881  0.3395
 3375TIP3    H131540   0.876   3.441   2.583 -0.9744 -1.1229 -3.0285
 3375TIP3    H231541   0.774   3.349   2.648 -1.2106  0.2275 -1.4194
 3376TIP3   OH231542   2.983   3.868  16.514  0.6627  0.0663 -0.0387
 3376TIP3    H131543   2.959   3.877  16.422  0.4196 -0.4257 -0.0267
 3376TIP3    H231544   3.052   3.933  16.527 -1.1927  2.1335  0.1343
 3377TIP3   OH231545   4.264   5.655  15.720 -0.0678 -0.2248 -0.2883
 3377TIP3    H131546   4.247   5.568  15.685  1.9878 -0.9176  0.3048
 3377TIP3    H231547   4.359   5.658  15.732 -0.2572  1.5461  1.1647
 3378TIP3   OH231548   6.610   3.331   1.566 -0.3682 -0.2043  0.0816
 3378TIP3    H131549   6.643   3.244   1.592 -0.3608 -0.2384 -0.0419
 3378TIP3    H231550   6.608   3.328   1.471 -0.0815  0.0387  0.0687
 3379TIP3   OH231551   6.037   0.288  14.780 -0.0040  0.4311  0.0750
 3379TIP3    H131552   5.975   0.284  14.853  0.8479 -1.2442  0.7747
 3379TIP3    H231553   6.121   0.307  14.822  0.1337  1.7629 -0.7545
 3380TIP3   OH231554   0.567   1.543   5.754  0.5189 -0.2196 -0.6593
 3380TIP3    H131555   0.548   1.535   5.848 -0.1158  0.5951 -0.7089
 3380TIP3    H231556   0.645   1.489   5.741  1.4296  0.7480  0.5945
 3381TIP3   OH231557   6.622   2.412  10.872 -0.3190 -0.1491  0.7707
 3381TIP3    H131558   6.561   2.347  10.908  0.0424 -0.3196  1.0780
 3381TIP3    H231559   6.569   2.491  10.862 -0.9559 -0.6884 -0.3127
 3382TIP3   OH231560   0.891   0.981  11.533 -0.3496 -0.3643 -0.3178
 3382TIP3    H131561   0.957   1.048  11.513 -2.9062  1.9592 -1.5697
 3382TIP3    H231562   0.871   0.941  11.449  0.6974 -2.3593  0.3339
 3383TIP3   OH231563   2.527   1.118  16.545 -0.3021 -0.0029  0.3490
 3383TIP3    H131564   2.526   1.203  16.589 -0.7690  0.6144 -0.8116
 3383TIP3    H231565   2.496   1.137  16.456  2.3070 -0.8787 -0.8414
 3384TIP3   OH231566   2.963   2.705   3.536 -0.0696  0.5585  0.2519
 3384TIP3    H131567   3.051   2.689   3.572 -0.4929  1.4531  1.7747
 3384TIP3    H231568   2.904   2.665   3.600 -0.7919 -0.7242 -1.1478
 3385TIP3   OH231569   4.350   6.084   0.472  0.7105 -0.5111 -0.1930
 3385TIP3    H131570   4.379   6.136   0.397 -0.1743 -0.1281 -0.2889
 3385TIP3    H231571   4.382   5.996   0.454  0.0846 -0.5314 -1.2822
 3386TIP3   OH231572   6.142   5.482   5.502 -0.1123 -0.1598  0.1544
 3386TIP3    H131573   6.206   5.436   5.557  0.8646  1.3507  0.3611
 3386TIP3    H231574   6.188   5.497   5.419  0.2681  1.9236  0.6874
 3387TIP3   OH231575   6.355   2.245   2.792 -0.2709  0.5490  0.5635
 3387TIP3    H131576   6.451   2.249   2.798  0.0406 -0.0000 -2.4966
 3387TIP3    H231577   6.328   2.205   2.875  2.2436 -0.4054  1.0303
 3388TIP3   OH231578   3.757   2.459   1.024  0.1536 -0.1852  0.1465
 3388TIP3    H131579   3.693   2.521   0.988  1.3874  1.0645  0.0036
 3388TIP3    H231580   3.842   2.492   0.993  0.8990 -1.6483  0.5406
 3389TIP3   OH231581   4.619   6.698  11.582 -0.0254  0.5844  0.1269
 3389TIP3    H131582   4.647   6.754  11.510 -0.2347  0.7493  0.1724
 3389TIP3    H231583   4.700   6.658  11.614  0.0309  0.2669 -0.3997
 3390TIP3   OH231584   3.963   1.832  16.547 -0.6608 -1.1727  0.2124
 3390TIP3    H131585   3.969   1.891  16.472  0.5007  0.4929  1.5655
 3390TIP3    H231586   4.036   1.771  16.536 -1.7022 -2.2626 -1.0381
 3391TIP3   OH231587   0.904   5.398  15.024 -0.0817  0.3258 -0.1323
 3391TIP3    H131588   0.908   5.398  15.120 -1.4939 -2.7579  0.0508
 3391TIP3    H231589   0.824   5.448  15.003  0.4286  1.3214  0.2434
 3392TIP3   OH231590   2.708   0.234   0.849 -0.6152 -0.0906  0.0973
 3392TIP3    H131591   2.685   0.215   0.758  0.5340 -0.3923 -0.1412
 3392TIP3    H231592   2.675   0.323   0.863 -0.3112  0.1828 -0.7956
 3393TIP3   OH231593   1.882   3.586  12.819  0.2033  0.0887 -0.3332
 3393TIP3    H131594   1.794   3.604  12.851 -0.6264 -1.3801 -1.6588
 3393TIP3    H231595   1.936   3.582  12.898 -1.2536 -0.7355  0.6567
 3394TIP3   OH231596   3.787   6.763   4.985  0.4352 -0.0579  0.2618
 3394TIP3    H131597   3.857   6.731   5.042  0.2628 -0.6527  0.1481
 3394TIP3    H231598   3.709   6.717   5.015  0.2543 -0.0243 -0.1519
 3395TIP3   OH231599   2.223   3.718   5.808  0.3399  0.3844  0.6011
 3395TIP3    H131600   2.286   3.709   5.737  2.1720  1.2201  2.0337
 3395TIP3    H231601   2.171   3.795   5.785  1.2829  0.9780  0.4120
 3396TIP3   OH231602   6.453   6.638  14.523 -0.1703  0.3197  0.0631
 3396TIP3    H131603   6.423   6.581  14.452  0.0261  0.4885 -0.1552
 3396TIP3    H231604   6.399   6.717  14.514 -1.3960 -0.3525  1.1964
 3397TIP3   OH231605   2.380   0.590   0.974  0.6396 -0.1253  0.0780
 3397TIP3    H131606   2.451   0.573   0.912  1.7866  1.1820  0.9858
 3397TIP3    H231607   2.315   0.639   0.924  1.1210  0.1004 -0.3310
 3398TIP3   OH231608   0.957   3.166   4.455  0.4731  0.2881 -0.0460
 3398TIP3    H131609   0.932   3.075   4.437 -0.7344  0.6083 -0.0277
 3398TIP3    H231610   0.992   3.198   4.372 -0.0675  0.1171 -0.3427
 3399TIP3   OH231611   3.974   6.413   6.295  0.0215 -0.4666 -0.0398
 3399TIP3    H131612   3.956   6.494   6.343 -1.5768 -0.0102 -1.3102
 3399TIP3    H231613   4.041   6.369   6.347  1.1112  1.7664  0.5825
 3400TIP3   OH231614   2.919   6.730   2.610 -0.2941  0.1203  0.3684
 3400TIP3    H131615   2.848   6.703   2.551  0.9875  3.0112 -2.8790
 3400TIP3    H231616   2.875   6.778   2.680 -1.7110  0.1614 -0.4982
 3401TIP3   OH231617   3.717   4.559  12.319 -0.0828  0.1446 -0.1172
 3401TIP3    H131618   3.701   4.616  12.244 -0.4234  2.4904  1.5947
 3401TIP3    H231619   3.697   4.614  12.395  0.8580 -1.8939  1.7260
 3402TIP3   OH231620   5.302   5.770  13.205  0.1873 -1.1164 -0.0946
 3402TIP3    H131621   5.328   5.861  13.219 -1.7992 -0.6726  1.3414
 3402TIP3    H231622   5.212   5.775  13.174  0.1695 -2.5899 -0.3796
 3403TIP3   OH231623   1.951   3.602   1.695  0.3362 -0.4615  0.4896
 3403TIP3    H131624   2.037   3.593   1.654  0.4930  1.6855  0.2410
 3403TIP3    H231625   1.936   3.697   1.700 -3.1495 -0.7165 -1.8040
 3404TIP3   OH231626   4.254   2.733   2.745 -0.0561 -0.8874 -0.1692
 3404TIP3    H131627   4.344   2.711   2.769 -0.6558 -2.8365  0.5222
 3404TIP3    H231628   4.217   2.772   2.824 -0.4611 -2.2557  0.3419
 3405TIP3   OH231629   3.469   2.012  11.969 -0.1794 -0.3091  0.4776
 3405TIP3    H131630   3.390   1.985  11.923 -0.4442 -0.7060  1.1572
 3405TIP3    H231631   3.504   1.931  12.006  0.1529 -0.0242  0.7910
 3406TIP3   OH231632   1.405   4.242  16.066 -0.1030 -0.0981 -0.7608
 3406TIP3    H131633   1.321   4.197  16.069  1.1031 -2.4716  0.0800
 3406TIP3    H231634   1.457   4.192  16.003  1.2522  0.1839  0.0792
 3407TIP3   OH231635   1.137   4.957  12.386 -0.6928  0.0455  0.2892
 3407TIP3    H131636   1.110   4.934  12.474  1.5837  1.2043  1.3806
 3407TIP3    H231637   1.233   4.960  12.390 -0.5941  3.5335 -1.2815
 3408TIP3   OH231638   6.761   0.357   2.118  0.1458 -0.2163 -0.2734
 3408TIP3    H131639   6.841   0.407   2.137 -1.0654  2.0048 -0.6732
 3408TIP3    H231640   6.705   0.372   2.195 -0.0907 -1.3314 -0.2212
 3409TIP3   OH231641   1.318   5.937  12.610  0.1891 -0.2545 -0.0040
 3409TIP3    H131642   1.271   5.936  12.527 -1.0797 -0.4815  0.6864
 3409TIP3    H231643   1.255   5.971  12.674  1.4206  0.7932  0.7211
 3410TIP3   OH231644   4.859   4.486   6.193  0.3050  0.2515 -0.6514
 3410TIP3    H131645   4.801   4.517   6.123 -1.6574 -1.4726  0.1254
 3410TIP3    H231646   4.934   4.448   6.147 -0.2929  0.3912 -1.7812
 3411TIP3   OH231647   2.168   2.572  14.985  0.4502 -0.7588  0.1270
 3411TIP3    H131648   2.239   2.521  14.945  1.1191 -0.1765  0.5531
 3411TIP3    H231649   2.185   2.568  15.079 -0.1048 -0.6411  0.2371
 3412TIP3   OH231650   0.616   2.861  11.850 -0.4636 -0.3879  0.1739
 3412TIP3    H131651   0.655   2.941  11.815  1.6014 -0.6464  1.6543
 3412TIP3    H231652   0.691   2.805  11.869 -1.7227 -1.7731  1.2868
 3413TIP3   OH231653   5.893   3.509  14.498 -0.1685  0.7855 -0.5454
 3413TIP3    H131654   5.931   3.453  14.430 -1.7977 -3.5645  1.7540
 3413TIP3    H231655   5.799   3.511  14.479 -0.2501  2.2621 -0.1498
 3414TIP3   OH231656   4.724   4.307  11.794 -0.1406  0.6574 -0.0632
 3414TIP3    H131657   4.665   4.258  11.851 -1.0405  0.3935 -1.1885
 3414TIP3    H231658   4.749   4.384  11.846  0.3600 -0.3758  1.2807
 3415TIP3   OH231659   2.280   0.082  12.833 -0.2422 -0.0261  0.4485
 3415TIP3    H131660   2.272   0.142  12.759 -0.7877  0.0837  0.5909
 3415TIP3    H231661   2.191   0.075  12.868 -0.2550 -1.2282  0.1983
 3416TIP3   OH231662   1.805   4.318  13.309  0.6356 -0.2111 -0.2588
 3416TIP3    H131663   1.751   4.390  13.276 -2.0037 -1.8880  0.0834
 3416TIP3    H231664   1.814   4.259  13.234  0.6910 -0.6661  0.1013
 3417TIP3   OH231665   4.406   5.832   5.296 -0.1239  0.2231  0.1469
 3417TIP3    H131666   4.371   5.907   5.248  0.3623  0.7974  0.6775
 3417TIP3    H231667   4.333   5.802   5.349 -0.4546  0.0264 -0.4045
 3418TIP3   OH231668   5.462   5.612  13.764 -0.1270 -0.1897 -0.3562
 3418TIP3    H131669   5.387   5.558  13.790  1.1312 -1.2080  1.3583
 3418TIP3    H231670   5.520   5.611  13.840  2.6833 -1.2931 -2.3317
 3419TIP3   OH231671   1.580   0.395  12.673 -0.2728 -0.2169 -0.4652
 3419TIP3    H131672   1.588   0.383  12.768  1.9193  0.2071 -0.5295
 3419TIP3    H231673   1.500   0.349  12.649 -1.0340 -0.1023  1.6189
 3420TIP3   OH231674   6.546   4.192   4.186  0.0161  0.4526  0.1043
 3420TIP3    H131675   6.481   4.229   4.245 -2.6959 -0.3900 -2.1110
 3420TIP3    H231676   6.603   4.139   4.241 -2.4633 -0.4424  1.9601
 3421TIP3   OH231677   5.983   0.746  13.442  0.2417 -0.4493  0.9175
 3421TIP3    H131678   6.054   0.735  13.379  0.8521 -1.0003  1.6811
 3421TIP3    H231679   6.025   0.734  13.527 -1.0850 -2.5898  1.3215
 3422TIP3   OH231680   5.223   5.812   1.270 -0.2288 -0.1753  0.1469
 3422TIP3    H131681   5.272   5.887   1.238 -0.9716  0.7160  1.0113
 3422TIP3    H231682   5.261   5.737   1.226  2.6802  0.3047  1.6110
 3423TIP3   OH231683   0.395   6.315  15.347 -0.5002 -1.0142 -0.4764
 3423TIP3    H131684   0.443   6.233  15.354  1.9007  0.3340  0.2093
 3423TIP3    H231685   0.417   6.349  15.260  0.5956  0.0385  0.1775
 3424TIP3   OH231686   6.723   3.564   6.283 -0.3569 -0.0915 -0.2227
 3424TIP3    H131687   6.795   3.575   6.345 -0.2711  2.6471 -0.6650
 3424TIP3    H231688   6.644   3.585   6.334 -0.5937 -0.5678 -0.3816
 3425TIP3   OH231689   1.896   1.902  15.100  0.2353  0.5032  0.4057
 3425TIP3    H131690   1.802   1.924  15.103  0.5434  1.9721  0.0123
 3425TIP3    H231691   1.914   1.886  15.007  0.2341 -0.4778  0.5683
 3426TIP3   OH231692   3.488   3.291  15.805 -0.2749 -0.4950  0.0326
 3426TIP3    H131693   3.572   3.250  15.823  0.9136  1.5696 -0.5618
 3426TIP3    H231694   3.476   3.283  15.710 -0.2351  0.1308 -0.0311
 3427TIP3   OH231695   6.757   1.428   0.467  0.0018  0.0121  0.5878
 3427TIP3    H131696   6.783   1.519   0.481  0.4733 -0.0572  0.1963
 3427TIP3    H231697   6.831   1.389   0.420 -1.2153  0.0420 -1.4454
 3428TIP3   OH231698   4.768   3.278   4.589 -0.2989  0.2335  0.3322
 3428TIP3    H131699   4.810   3.296   4.505 -0.5323  0.1968  0.2064
 3428TIP3    H231700   4.840   3.282   4.653 -0.1000  0.1412  0.1166
 3429TIP3   OH231701   5.922   5.573  14.422  0.6682  0.1824 -0.0928
 3429TIP3    H131702   6.017   5.587  14.420  0.3909  3.2459  1.7438
 3429TIP3    H231703   5.906   5.531  14.507  0.3082  0.9911  0.2548
 3430TIP3   OH231704   5.559   2.503   1.806  0.2551  0.5129  0.0531
 3430TIP3    H131705   5.478   2.541   1.841 -1.0675 -2.2415  0.2077
 3430TIP3    H231706   5.598   2.458   1.881  1.1521  0.5055 -0.4052
 3431TIP3   OH231707   4.245   0.999   0.413  0.0687  0.4368 -0.0756
 3431TIP3    H131708   4.250   0.915   0.368  0.8251  1.2719 -1.6475
 3431TIP3    H231709   4.336   1.029   0.419 -0.0012  0.4149  2.0031
 3432TIP3   OH231710   2.167   1.567  11.276 -0.0307 -0.0172 -0.2730
 3432TIP3    H131711   2.144   1.516  11.198 -0.6344  0.4693 -0.4276
 3432TIP3    H231712   2.125   1.652  11.261 -0.5359 -0.0729  0.7964
 3433TIP3   OH231713   2.378   1.184  14.167 -0.3184 -1.2278 -0.3314
 3433TIP3    H131714   2.316   1.135  14.220  0.7391 -2.2701 -0.0266
 3433TIP3    H231715   2.456   1.191  14.222 -0.4500  0.8869 -0.3316
 3434TIP3   OH231716   6.076   2.635  15.525  0.3383  0.3193  0.0408
 3434TIP3    H131717   6.089   2.725  15.555  1.2678  0.4833 -0.8193
 3434TIP3    H231718   6.155   2.614  15.476  0.2089 -1.0386  0.3829
 3435TIP3   OH231719   1.850   0.727   3.159  0.0776 -0.4380 -0.1988
 3435TIP3    H131720   1.781   0.700   3.098 -0.6756  0.3660  0.2830
 3435TIP3    H231721   1.873   0.816   3.132 -1.2751  0.4984  1.5310
 3436TIP3   OH231722   2.376   3.909   3.419 -0.6059  0.0073  0.1471
 3436TIP3    H131723   2.422   3.891   3.501 -1.5501 -0.4024  0.6037
 3436TIP3    H231724   2.431   3.973   3.374 -0.0906  0.2556  1.1071
 3437TIP3   OH231725   0.626   4.684  14.049 -0.0244 -0.2105 -0.3661
 3437TIP3    H131726   0.672   4.616  14.099  0.9260  1.1155  0.6380
 3437TIP3    H231727   0.681   4.699  13.972  0.5322  0.4246  0.1484
 3438TIP3   OH231728   6.397   3.438   4.873 -0.3790  0.1182  0.0641
 3438TIP3    H131729   6.363   3.497   4.805  0.8466  1.0399  0.2128
 3438TIP3    H231730   6.426   3.497   4.943 -0.2001 -0.7407  0.7253
 3439TIP3   OH231731   2.664   5.383  10.743  0.2885 -0.1174  0.0644
 3439TIP3    H131732   2.603   5.439  10.695 -1.4353 -0.4183  1.8023
 3439TIP3    H231733   2.655   5.297  10.702 -3.9927 -1.3732  2.9211
 3440TIP3   OH231734   4.645   4.827   0.940  0.5379 -0.4847 -0.6655
 3440TIP3    H131735   4.620   4.916   0.913 -0.5403 -0.7544 -0.5777
 3440TIP3    H231736   4.738   4.835   0.963  0.2383  0.8466  0.2342
 3441TIP3   OH231737   4.928   6.414   1.003 -0.1489 -0.3000 -0.0971
 3441TIP3    H131738   4.851   6.410   1.059  0.7557  0.3890  1.2551
 3441TIP3    H231739   4.950   6.507   0.999  1.8313 -0.6305  1.3358
 3442TIP3   OH231740   3.850   5.293  16.702  0.6365  0.0843  0.6592
 3442TIP3    H131741   3.850   5.252  16.789 -1.4074 -0.4788  0.4388
 3442TIP3    H231742   3.832   5.220  16.642  2.8423  0.3145 -0.3647
 3443TIP3   OH231743   5.351   6.733  16.958  0.4876 -0.3566 -0.0073
 3443TIP3    H131744   5.284   6.676  16.919  0.5174 -1.4033  1.3932
 3443TIP3    H231745   5.370   6.797  16.890 -1.1294 -0.7077 -0.8532
 3444TIP3   OH231746   3.353   4.077  17.100 -0.6121 -0.2109 -0.0265
 3444TIP3    H131747   3.274   4.103  17.148 -0.8299 -0.7888 -0.0620
 3444TIP3    H231748   3.333   4.098  17.009 -0.5089  0.1616  0.0388
 3445TIP3   OH231749   0.481   6.073  15.245 -0.2686  0.3160 -0.0604
 3445TIP3    H131750   0.503   6.066  15.152 -1.8724  0.1250 -0.4410
 3445TIP3    H231751   0.508   5.989  15.283  0.5727  0.4693 -0.2941
 3446TIP3   OH231752   5.525   5.736   5.095 -0.0497 -0.2198 -0.3933
 3446TIP3    H131753   5.524   5.685   5.014 -0.8334 -0.6691 -0.1118
 3446TIP3    H231754   5.491   5.676   5.162 -1.1029  0.7038 -0.0741
 3447TIP3   OH231755   2.925   0.595   2.682 -0.1427  0.0334 -0.0074
 3447TIP3    H131756   2.961   0.674   2.722  1.7197 -0.6486 -0.2318
 3447TIP3    H231757   2.971   0.522   2.724 -1.5032 -0.9303 -0.1072
 3448TIP3   OH231758   6.337   0.889  12.549  0.3842 -0.3871 -0.0539
 3448TIP3    H131759   6.296   0.844  12.475  2.2635  0.0586 -1.4145
 3448TIP3    H231760   6.377   0.967  12.511  1.9180 -0.4618  1.3279
 3449TIP3   OH231761   1.998   1.042  12.920  0.0658 -0.0533  0.3687
 3449TIP3    H131762   2.060   0.994  12.866 -1.3489 -1.4297 -0.1009
 3449TIP3    H231763   1.967   0.978  12.984 -0.0879  0.8994  1.2785
 3450TIP3   OH231764   0.676   5.863   0.005 -0.1421 -0.4350  0.0132
 3450TIP3    H131765   0.742   5.898   0.065 -1.5482  0.5114  1.0714
 3450TIP3    H231766   0.721   5.793  -0.042  2.4885  1.9530 -1.3481
 3451TIP3   OH231767   1.240   4.704   4.730  0.2755  0.2402 -0.0253
 3451TIP3    H131768   1.271   4.650   4.657 -0.1557 -0.1274  0.0542
 3451TIP3    H231769   1.172   4.759   4.692 -2.0831 -1.9863  0.6177
 3452TIP3   OH231770   3.738   4.059   1.218  0.2559  0.4280 -0.0109
 3452TIP3    H131771   3.738   4.030   1.309  0.8024  2.1427  0.5587
 3452TIP3    H231772   3.646   4.051   1.191 -0.2483  1.5249  1.2548
 3453TIP3   OH231773   2.458   2.653   6.436  0.3464  0.2891  0.5032
 3453TIP3    H131774   2.388   2.674   6.498  0.0382  0.1110  0.2166
 3453TIP3    H231775   2.462   2.558   6.435 -0.7457  0.2040 -0.9305
 3454TIP3   OH231776   4.403   4.557  11.855  0.3749  0.0792  0.6697
 3454TIP3    H131777   4.422   4.614  11.930  1.1830  1.1446 -0.3153
 3454TIP3    H231778   4.472   4.577  11.791 -0.0441 -1.1219 -0.1946
 3455TIP3   OH231779   5.681   2.336   2.410  0.0206 -0.0007  0.1724
 3455TIP3    H131780   5.609   2.285   2.374  0.4374 -0.1430 -0.4734
 3455TIP3    H231781   5.747   2.271   2.434  0.5779  0.2240 -0.7063
 3456TIP3   OH231782   3.612   4.641  12.622  0.1405  0.5310  0.2855
 3456TIP3    H131783   3.671   4.651  12.697 -0.4261  0.1809  0.7825
 3456TIP3    H231784   3.524   4.654  12.658 -0.6566 -4.3787  0.7676
 3457TIP3   OH231785   4.315   3.479   4.616  0.1006 -0.3142  0.8129
 3457TIP3    H131786   4.337   3.562   4.573  0.3428 -0.0219  1.4771
 3457TIP3    H231787   4.222   3.466   4.599  0.8025 -1.8810 -2.5858
 3458TIP3   OH231788   2.079   4.626  16.512  0.8938  0.6967 -0.1636
 3458TIP3    H131789   2.084   4.532  16.532 -2.8724  0.1714 -0.8284
 3458TIP3    H231790   2.113   4.669  16.590  1.7311 -1.2301  0.6113
 3459TIP3   OH231791   2.597   3.703  11.250 -0.3193 -0.3742 -0.2031
 3459TIP3    H131792   2.643   3.619  11.251 -0.2781 -0.3567 -0.4830
 3459TIP3    H231793   2.590   3.725  11.157  2.5587  1.4888 -0.1203
 3460TIP3   OH231794   1.450   5.861  11.907 -0.6223  0.2820  0.5182
 3460TIP3    H131795   1.402   5.878  11.826  0.3648 -3.4314 -1.0521
 3460TIP3    H231796   1.385   5.823  11.966 -0.6825  0.0558  0.3050
 3461TIP3   OH231797   6.654   5.273   6.534  0.4312 -0.7971 -0.2189
 3461TIP3    H131798   6.594   5.336   6.574  0.3068  0.5258 -2.2869
 3461TIP3    H231799   6.732   5.276   6.589 -0.6558 -1.0430  1.3800
 3462TIP3   OH231800   3.845   2.862   3.762 -0.2580 -0.7709 -0.3937
 3462TIP3    H131801   3.912   2.878   3.696  0.6232  2.5565  1.0752
 3462TIP3    H231802   3.764   2.891   3.721  0.4485  2.3964  0.1690
 3463TIP3   OH231803   5.273   0.837  11.376 -0.4985  0.5747  0.1915
 3463TIP3    H131804   5.270   0.922  11.332 -1.8018  0.0648 -0.7385
 3463TIP3    H231805   5.276   0.773  11.305 -2.0164 -0.2405  0.8356
 3464TIP3   OH231806   5.974   3.584  13.270 -0.1666  0.0036 -0.3949
 3464TIP3    H131807   6.016   3.499  13.259 -1.1297 -0.4047 -0.9711
 3464TIP3    H231808   5.911   3.590  13.198  0.8785  1.8196 -1.2455
 3465TIP3   OH231809   4.509   4.874  12.378 -0.0843  0.0399  0.0776
 3465TIP3    H131810   4.569   4.926  12.431 -1.5055  0.4991  1.3184
 3465TIP3    H231811   4.539   4.886  12.288 -0.6272  3.4877  0.2214
 3466TIP3   OH231812   4.355   6.445   1.778  0.1434  0.1715  0.4179
 3466TIP3    H131813   4.302   6.501   1.834 -1.7038 -1.9501  0.9241
 3466TIP3    H231814   4.292   6.405   1.718  1.6080 -0.2547 -0.8935
 3467TIP3   OH231815   0.482   6.434   2.376 -0.1086  0.8983  0.0528
 3467TIP3    H131816   0.530   6.514   2.358  1.0541  0.3968  0.7673
 3467TIP3    H231817   0.548   6.375   2.414 -0.9796 -0.3083 -0.2487
 3468TIP3   OH231818   4.765   2.785   0.469  0.5946 -0.3893  0.4371
 3468TIP3    H131819   4.762   2.695   0.435 -0.5719  0.1818 -1.0721
 3468TIP3    H231820   4.795   2.775   0.560  1.9439 -2.1602 -0.1432
 3469TIP3   OH231821   2.127   5.331  14.717 -0.7884 -0.2602 -0.6360
 3469TIP3    H131822   2.105   5.261  14.779 -0.3702  0.8205  0.7936
 3469TIP3    H231823   2.068   5.403  14.741  1.2100  1.1239  0.3497
 3470TIP3   OH231824   4.716   2.126  11.676 -0.0040 -0.2289 -0.3335
 3470TIP3    H131825   4.800   2.126  11.720 -0.3823  1.0937  0.4548
 3470TIP3    H231826   4.720   2.203  11.618 -0.5270 -0.3687 -0.5613
 3471TIP3   OH231827   4.033   5.020   0.173  0.1390 -0.1140  0.2519
 3471TIP3    H131828   4.054   5.111   0.151 -0.4511  0.5822  2.2736
 3471TIP3    H231829   3.977   5.028   0.251 -1.1296 -2.1617 -0.3840
 3472TIP3   OH231830   3.774   6.299  14.782  0.4842 -0.1472  0.4736
 3472TIP3    H131831   3.746   6.304  14.691  0.8441  0.6840  0.4008
 3472TIP3    H231832   3.830   6.376  14.794  1.0448 -0.6472  1.1850
 3473TIP3   OH231833   5.132   3.835   1.262  0.1269 -0.4331  0.2850
 3473TIP3    H131834   5.148   3.771   1.193 -0.2545 -0.9868  0.6921
 3473TIP3    H231835   5.054   3.883   1.233  0.9845  0.5417 -0.4917
 3474TIP3   OH231836   3.289   4.382   7.064  0.2767  0.0807  0.1117
 3474TIP3    H131837   3.195   4.392   7.046  0.3286  1.3849  0.4705
 3474TIP3    H231838   3.332   4.423   6.988  0.5422  0.3134  0.3871
 3475TIP3   OH231839   2.134   6.365  14.904  0.3113 -0.1737  0.0951
 3475TIP3    H131840   2.075   6.375  14.829  0.4089 -0.6096 -0.0426
 3475TIP3    H231841   2.219   6.345  14.864  0.1916 -1.2437  0.3379
 3476TIP3   OH231842   1.094   1.064  16.960 -0.2843 -0.1987 -0.0159
 3476TIP3    H131843   1.015   1.115  16.949  0.5040  1.3210  0.9487
 3476TIP3    H231844   1.165   1.129  16.960  1.0838 -1.5752 -1.7755
 3477TIP3   OH231845   5.156   1.467  13.121  0.1453  0.2007  0.1834
 3477TIP3    H131846   5.222   1.498  13.059 -1.7046 -0.3617 -2.1995
 3477TIP3    H231847   5.076   1.512  13.096 -1.0467 -1.3166  1.0756
 3478TIP3   OH231848   1.568   0.590  12.194 -0.0551  0.3652  0.0125
 3478TIP3    H131849   1.601   0.674  12.162 -0.7507  0.7433  0.2628
 3478TIP3    H231850   1.592   0.590  12.287 -1.1867  0.8806  0.3264
 3479TIP3   OH231851   6.471   6.671  12.040  0.2101 -0.2475  0.2520
 3479TIP3    H131852   6.526   6.656  12.117  0.7774 -0.8218 -0.2628
 3479TIP3    H231853   6.413   6.595  12.037  2.1008 -1.7083 -1.5097
 3480TIP3   OH231854   3.336   6.346   5.800 -0.2627  0.3564  0.0646
 3480TIP3    H131855   3.267   6.406   5.774  0.6230  0.4540 -2.3078
 3480TIP3    H231856   3.299   6.259   5.785 -0.0605  0.3982 -0.6859
 3481TIP3   OH231857   1.426   6.435   4.166 -0.7304  0.1561  0.3267
 3481TIP3    H131858   1.456   6.354   4.208 -1.0926 -1.0358 -1.6172
 3481TIP3    H231859   1.372   6.406   4.093 -1.2438  2.1826 -0.1628
 3482TIP3   OH231860   2.898   4.022   1.289 -0.2012  0.1456 -0.1133
 3482TIP3    H131861   2.989   4.052   1.297  0.3111 -1.3112 -0.1812
 3482TIP3    H231862   2.850   4.074   1.353  1.2830 -1.3031  2.3766
 3483TIP3   OH231863   0.090   3.164   3.696  0.4048  0.2324  0.6350
 3483TIP3    H131864   0.170   3.214   3.680  0.7459  0.0989  1.8368
 3483TIP3    H231865   0.043   3.213   3.763 -0.8730  0.6648 -0.5276
 3484TIP3   OH231866   3.750   5.233   6.673 -0.0210  0.0338 -0.1712
 3484TIP3    H131867   3.762   5.307   6.613  1.5977  0.1302  0.2265
 3484TIP3    H231868   3.658   5.207   6.660 -0.5918  1.9883 -0.4361
 3485TIP3   OH231869   2.890   2.954  16.284 -0.4512 -0.3051 -0.3024
 3485TIP3    H131870   2.835   2.965  16.206  0.8762 -0.0090 -1.2378
 3485TIP3    H231871   2.964   2.901  16.254 -0.5030 -1.2023  1.0708
 3486TIP3   OH231872   2.987   2.619   2.121  0.6842  0.0597 -0.3559
 3486TIP3    H131873   2.930   2.563   2.069 -1.7500  1.1302  1.0130
 3486TIP3    H231874   3.055   2.560   2.154  0.0097 -1.4036 -1.5020
 3487TIP3   OH231875   6.375   2.807  13.855 -0.2415  0.6326  0.3901
 3487TIP3    H131876   6.364   2.717  13.825 -0.8319  0.6206  0.6380
 3487TIP3    H231877   6.416   2.851  13.781 -1.1769  0.4712 -0.2441
 3488TIP3   OH231878   5.159   5.796  14.147 -0.1387  0.5188  0.3899
 3488TIP3    H131879   5.233   5.812  14.206  1.3942 -0.2379 -1.2118
 3488TIP3    H231880   5.091   5.759  14.202  0.7319  1.1175  1.9130
 3489TIP3   OH231881   3.832   4.989  13.563 -0.1493  0.1007  0.3910
 3489TIP3    H131882   3.833   5.081  13.538 -0.3484  0.2503  0.9202
 3489TIP3    H231883   3.900   4.982  13.631 -0.2839 -0.0977  0.5070
 3490TIP3   OH231884   6.486   4.473   5.261 -0.0599  0.1231 -0.2998
 3490TIP3    H131885   6.565   4.478   5.207 -0.8902  2.1324 -1.4199
 3490TIP3    H231886   6.510   4.515   5.343  0.1769  0.2667 -0.4415
 3491TIP3   OH231887   2.160   4.307   0.650 -0.3542  0.2128 -0.1353
 3491TIP3    H131888   2.187   4.273   0.735 -0.6840  1.5454  0.5183
 3491TIP3    H231889   2.242   4.335   0.609 -0.0284 -1.6353 -0.8396
 3492TIP3   OH231890   1.318   1.533  13.582 -0.3797 -0.3564 -0.0935
 3492TIP3    H131891   1.243   1.551  13.526  1.4125  0.9897 -2.2805
 3492TIP3    H231892   1.328   1.613  13.634  0.0655 -0.1320 -0.5108
 3493TIP3   OH231893   4.617   5.290   1.738 -0.5059 -0.1547  0.0424
 3493TIP3    H131894   4.699   5.241   1.735 -0.8184 -0.6802 -0.0440
 3493TIP3    H231895   4.594   5.294   1.830 -0.7637 -0.6526  0.0013
 3494TIP3   OH231896   1.751   1.687  12.498  0.1935 -0.2313 -0.4872
 3494TIP3    H131897   1.735   1.593  12.506 -0.7031 -0.1051 -0.7310
 3494TIP3    H231898   1.665   1.727  12.509  0.4374  0.5105 -1.2437
 3495TIP3   OH231899   6.643   4.549  15.794 -0.3598  0.1465  0.4217
 3495TIP3    H131900   6.625   4.606  15.868  1.6728  1.1735  0.2006
 3495TIP3    H231901   6.648   4.608  15.719  1.4886 -0.3168  0.1347
 3496TIP3   OH231902   3.093   6.429   4.026  0.1750 -0.6135  0.4913
 3496TIP3    H131903   3.059   6.402   4.111 -2.0735  1.5843  0.3881
 3496TIP3    H231904   3.112   6.522   4.036 -1.9977  0.1899 -1.8707
 3497TIP3   OH231905   1.985   5.309  11.668  0.1986 -0.2503 -0.0681
 3497TIP3    H131906   1.916   5.363  11.629 -1.4902 -1.3802  1.1880
 3497TIP3    H231907   2.064   5.362  11.661 -0.5523  0.6790 -2.5155
 3498TIP3   OH231908   3.448   2.461   1.248 -0.3764 -0.2821  0.1250
 3498TIP3    H131909   3.374   2.508   1.284  0.2871  0.4180  0.6193
 3498TIP3    H231910   3.411   2.380   1.212 -1.5872  0.7074 -0.9673
 3499TIP3   OH231911   4.433   3.677  11.082  0.1426 -0.3169 -1.0488
 3499TIP3    H131912   4.398   3.751  11.133 -0.4168  0.5158 -2.5755
 3499TIP3    H231913   4.519   3.707  11.053  1.2875 -1.5123  0.8549
 3500TIP3   OH231914   1.492   4.159  15.532  0.1366 -0.6437  0.7444
 3500TIP3    H131915   1.580   4.149  15.494 -0.5739 -0.0596 -1.1735
 3500TIP3    H231916   1.495   4.109  15.613  1.8810 -1.6561  0.1076
 3501TIP3   OH231917   4.947   6.631  11.471  0.2491  0.4786 -0.1170
 3501TIP3    H131918   4.878   6.592  11.418  0.0102  1.9821 -0.9835
 3501TIP3    H231919   5.028   6.605  11.427  0.3475 -1.8432  1.2772
 3502TIP3   OH231920   1.309   1.971  13.448  0.2580 -0.2245 -0.4370
 3502TIP3    H131921   1.277   2.056  13.477  0.9722  0.4170 -1.4931
 3502TIP3    H231922   1.402   1.971  13.470 -0.0026 -1.3159  0.8415
 3503TIP3   OH231923   3.182   4.177   4.031 -0.5899  0.0828 -0.2957
 3503TIP3    H131924   3.136   4.214   4.106  0.0734  0.5854 -0.1355
 3503TIP3    H231925   3.160   4.235   3.958  0.2204  0.6392 -0.1043
 3504TIP3   OH231926   5.407   5.625   3.233 -0.8762 -0.0779  0.3716
 3504TIP3    H131927   5.393   5.678   3.155  3.3239 -0.2272 -0.6774
 3504TIP3    H231928   5.444   5.685   3.298  0.5114 -0.9292  0.4139
 3505TIP3   OH231929   6.092   6.170  14.227  0.4886 -0.7294  0.4259
 3505TIP3    H131930   6.007   6.174  14.271  0.4439  1.5667  0.2267
 3505TIP3    H231931   6.155   6.159  14.297  0.2844  1.3112  1.0056
 3506TIP3   OH231932   4.518   0.911   4.157  0.0959  0.4253 -0.5389
 3506TIP3    H131933   4.565   0.929   4.076 -1.0915 -1.6685 -1.7761
 3506TIP3    H231934   4.474   0.994   4.178  0.1873  0.9254 -2.1915
 3507TIP3   OH231935   6.621   0.047   3.251  0.0130 -0.4837  0.1923
 3507TIP3    H131936   6.671  -0.004   3.315  1.6517  1.0028  0.1745
 3507TIP3    H231937   6.615  -0.010   3.174  1.6764 -0.7476  0.2212
 3508TIP3   OH231938   1.434   5.435  15.822 -0.2807  0.6695 -0.4759
 3508TIP3    H131939   1.497   5.422  15.752  0.9585 -3.1094  1.1044
 3508TIP3    H231940   1.487   5.460  15.898 -0.9623 -0.0100  0.2446
 3509TIP3   OH231941   4.735   2.321  13.936 -0.2069 -0.2604  0.4794
 3509TIP3    H131942   4.681   2.276  14.000  0.9887  1.3687  2.7784
 3509TIP3    H231943   4.727   2.414  13.959  1.0493  0.2983 -1.1280
 3510TIP3   OH231944   3.520   0.520   2.818 -0.3322  0.3170 -0.8185
 3510TIP3    H131945   3.475   0.603   2.802 -2.6706 -0.7695 -0.2397
 3510TIP3    H231946   3.527   0.480   2.731 -2.0320 -0.2079 -0.7535
 3511TIP3   OH231947   4.885   3.407  13.894  0.1041 -0.6198 -0.4143
 3511TIP3    H131948   4.913   3.332  13.947  0.8412 -0.0982 -0.0557
 3511TIP3    H231949   4.936   3.481  13.927 -1.5740  0.3346  0.1465
 3512TIP3   OH231950   0.714   5.864   2.718  0.4501  0.6279 -0.2438
 3512TIP3    H131951   0.775   5.828   2.654  0.4983  0.4751 -0.1134
 3512TIP3    H231952   0.755   5.945   2.749 -0.4127  1.6874 -1.7412
 3513TIP3   OH231953   2.697   4.922  11.883  0.0470 -0.4913 -0.0006
 3513TIP3    H131954   2.668   4.997  11.831  0.8796 -0.7604 -0.8913
 3513TIP3    H231955   2.620   4.866  11.890  0.0101 -0.6239 -1.2708
 3514TIP3   OH231956   3.673   2.600  15.839 -0.2006  0.4326  0.2450
 3514TIP3    H131957   3.734   2.540  15.796 -0.7136 -0.7185  1.0537
 3514TIP3    H231958   3.594   2.596  15.786  0.2026  1.4469 -0.4545
 3515TIP3   OH231959   4.453   1.239   2.353  0.6011 -0.1972  0.1902
 3515TIP3    H131960   4.465   1.333   2.368  0.3388 -0.3041  1.1332
 3515TIP3    H231961   4.360   1.224   2.368 -0.4511  0.1657 -4.4939
 3516TIP3   OH231962   0.908   0.530  10.735 -1.1979  0.3490  0.2293
 3516TIP3    H131963   0.928   0.585  10.810  0.2060  0.5778 -0.2831
 3516TIP3    H231964   0.844   0.466  10.767  0.9810 -0.9630  2.2498
 3517TIP3   OH231965   2.385   0.274   4.051 -0.1683  0.0372 -0.2255
 3517TIP3    H131966   2.310   0.215   4.048  0.0954 -0.3366  0.5351
 3517TIP3    H231967   2.381   0.313   4.138  1.0909 -0.7472  0.2043
 3518TIP3   OH231968   1.304   6.218   0.917 -0.4113  0.0840 -0.3281
 3518TIP3    H131969   1.288   6.144   0.858  1.2182  0.2258 -1.0002
 3518TIP3    H231970   1.217   6.256   0.930 -1.0747 -1.0379 -1.1778
 3519TIP3   OH231971   1.173   1.662  17.087  0.6599 -0.3979  0.6362
 3519TIP3    H131972   1.241   1.654  17.020 -0.6125  1.4913 -0.9797
 3519TIP3    H231973   1.210   1.617  17.163  2.6271 -1.6624 -0.9569
 3520TIP3   OH231974   2.905   5.667   1.120  0.0769  0.4135 -0.4443
 3520TIP3    H131975   2.882   5.667   1.028  0.4740  1.9402 -0.5732
 3520TIP3    H231976   2.822   5.660   1.167 -0.1145 -0.4813 -0.9023
 3521TIP3   OH231977   5.758   5.415  12.526 -0.4797  0.0289 -0.7607
 3521TIP3    H131978   5.737   5.340  12.581 -1.9256 -0.3033 -1.7128
 3521TIP3    H231979   5.717   5.396  12.442  1.5708  0.5836 -1.9483
 3522TIP3   OH231980   6.742   1.520  11.103 -0.4764  0.7943  0.0458
 3522TIP3    H131981   6.778   1.449  11.156  1.3793  0.8301 -1.0617
 3522TIP3    H231982   6.648   1.504  11.102 -0.0287 -2.5302 -1.3434
 3523TIP3   OH231983   0.263   3.253  14.356  0.0341  0.1714  0.3973
 3523TIP3    H131984   0.217   3.238  14.439 -2.0039 -0.0619 -0.7112
 3523TIP3    H231985   0.199   3.229  14.289  1.2377  1.4327 -1.2780
 3524TIP3   OH231986   3.417   4.341  14.087 -0.3553 -0.6524 -0.2407
 3524TIP3    H131987   3.339   4.286  14.084 -0.4102 -0.5966  0.1175
 3524TIP3    H231988   3.481   4.289  14.134 -0.1552 -0.7209 -0.5857
 3525TIP3   OH231989   4.979   1.996  14.558 -0.1515 -0.4073 -0.2878
 3525TIP3    H131990   5.030   2.076  14.546  1.2977 -1.4953 -1.9836
 3525TIP3    H231991   4.887   2.025  14.554  0.3303  1.1654 -0.7740
 3526TIP3   OH231992   4.753   1.512   5.253  1.0000  0.0757 -0.2999
 3526TIP3    H131993   4.685   1.465   5.206  0.5462 -0.3151  0.7235
 3526TIP3    H231994   4.798   1.444   5.305  2.6548  0.1892 -1.4899
 3527TIP3   OH231995   2.489   0.053  14.489  0.1054  0.4049  0.0457
 3527TIP3    H131996   2.457   0.030  14.402  0.9871 -0.5092 -0.0585
 3527TIP3    H231997   2.572   0.006  14.496  0.1257  0.6192  1.3136
 3528TIP3   OH231998   3.437   2.323   2.853 -0.1684  0.1689  0.1792
 3528TIP3    H131999   3.486   2.241   2.842 -0.4055 -0.0010  0.3722
 3528TIP3    H232000   3.482   2.367   2.926  1.4707  1.3463 -1.4546
 3529TIP3   OH232001   3.542   2.878   5.229 -0.1977 -0.2287  0.2850
 3529TIP3    H132002   3.509   2.810   5.288  0.4085  1.4129  2.6626
 3529TIP3    H232003   3.577   2.829   5.154 -1.7436 -2.3727  0.8713
 3530TIP3   OH232004   1.915   6.027  11.636  0.4015  0.0982 -0.5080
 3530TIP3    H132005   1.943   5.941  11.606 -0.1153 -0.3010  0.1396
 3530TIP3    H232006   1.826   6.014  11.669  0.3597  0.8502 -0.2922
 3531TIP3   OH232007   3.767   1.073  14.146  0.2497 -0.0570  0.6969
 3531TIP3    H132008   3.732   1.128  14.216 -1.5806  1.6317 -1.3878
 3531TIP3    H232009   3.785   1.133  14.074 -0.3416 -1.9533 -1.1615
 3532TIP3   OH232010   4.593   3.607   4.651 -0.6021  0.2897 -0.1221
 3532TIP3    H132011   4.590   3.514   4.675 -0.8919  0.1153 -0.8089
 3532TIP3    H232012   4.621   3.651   4.731  1.1887 -0.5610 -0.2370
 3533TIP3   OH232013   5.976   2.321  14.816  0.0349  0.2270 -0.2975
 3533TIP3    H132014   5.972   2.260  14.742  1.2686 -1.3053  0.8119
 3533TIP3    H232015   5.934   2.274  14.888 -3.7317  2.7809 -0.5798
 3534TIP3   OH232016   5.903   0.590   2.714  0.9734  0.5861  0.2832
 3534TIP3    H132017   5.910   0.685   2.704  0.8258  0.6296  0.5772
 3534TIP3    H232018   5.955   0.554   2.643  0.3102  0.8914 -0.3736
 3535TIP3   OH232019   2.087   2.505  11.766  0.9216 -0.3165 -0.1394
 3535TIP3    H132020   2.036   2.579  11.733  1.1644  0.7871  1.8450
 3535TIP3    H232021   2.035   2.471  11.839  1.1603 -1.6916 -0.5883
 3536TIP3   OH232022   5.940   1.300  13.289  0.2402 -0.0265 -0.2592
 3536TIP3    H132023   6.035   1.296  13.277  0.4452 -0.4250  1.3503
 3536TIP3    H232024   5.913   1.208  13.290  0.1227  0.0101  1.2877
 3537TIP3   OH232025   0.670   0.071  13.778 -0.7172 -0.6702  0.0126
 3537TIP3    H132026   0.592   0.125  13.766 -0.0248  0.5782  0.9832
 3537TIP3    H232027   0.689   0.038  13.690 -0.6511  1.3937 -0.8136
 3538TIP3   OH232028   3.145   6.583   2.840  0.2978  0.5078  0.1329
 3538TIP3    H132029   3.056   6.597   2.875  0.0368 -1.4569  0.3465
 3538TIP3    H232030   3.192   6.540   2.911  0.5478 -1.1254 -0.9869
 3539TIP3   OH232031   2.901   5.119  12.475  0.2505 -0.1325  0.6661
 3539TIP3    H132032   2.823   5.097  12.425  0.1131 -0.0452  0.8383
 3539TIP3    H232033   2.890   5.072  12.558 -0.6565  1.5261  1.5473
 3540TIP3   OH232034   4.865   0.077   5.287 -0.2125  0.7128 -0.1647
 3540TIP3    H132035   4.856  -0.001   5.342  0.2344 -1.0048 -2.3756
 3540TIP3    H232036   4.953   0.109   5.304  0.6307 -0.9240 -1.1797
 3541TIP3   OH232037   3.879   0.490   0.100 -0.2110  0.0246  0.3742
 3541TIP3    H132038   3.859   0.574   0.059 -2.1620 -0.4354  0.2643
 3541TIP3    H232039   3.848   0.499   0.190  0.3399 -0.3092  0.6030
 3542TIP3   OH232040   3.418   0.942  14.628  0.1291 -0.1713  0.1938
 3542TIP3    H132041   3.325   0.965  14.619  0.1175 -0.8066 -1.8713
 3542TIP3    H232042   3.446   0.987  14.708 -1.9553 -0.0127  0.9129
 3543TIP3   OH232043   1.722   1.350  13.894  1.1816 -0.3243 -0.3565
 3543TIP3    H132044   1.786   1.419  13.880 -1.2638  2.0127 -0.8495
 3543TIP3    H232045   1.766   1.270  13.864  3.5545  1.2310 -1.3434
 3544TIP3   OH232046   4.375   2.781   4.280 -0.0062  0.1320 -0.2712
 3544TIP3    H132047   4.438   2.831   4.332 -0.8750 -0.0759  1.0216
 3544TIP3    H232048   4.297   2.775   4.335 -1.7285  1.6415 -2.4055
 3545TIP3   OH232049   0.204   6.254   5.717  0.0940 -0.7167 -0.1335
 3545TIP3    H132050   0.109   6.261   5.713  0.1166  0.9447  0.9483
 3545TIP3    H232051   0.223   6.220   5.805  0.5114  0.8354  0.4142
 3546TIP3   OH232052   6.072   4.787  11.571  0.0833 -0.5558 -0.0127
 3546TIP3    H132053   6.132   4.854  11.538 -0.1655 -0.7991 -0.9956
 3546TIP3    H232054   6.026   4.755  11.493 -1.2718 -0.4325  0.6933
 3547TIP3   OH232055   3.177   5.520  10.671  0.1122  0.0726 -0.1093
 3547TIP3    H132056   3.237   5.588  10.640  1.1783  0.2765  2.1492
 3547TIP3    H232057   3.090   5.559  10.664  0.7062  1.7084  1.1205
 3548TIP3   OH232058   0.982   1.420   3.103 -0.9435  0.2591 -0.1806
 3548TIP3    H132059   0.918   1.469   3.051 -1.0686 -0.7385 -1.0056
 3548TIP3    H232060   1.045   1.387   3.039 -1.3919 -1.4444  0.1886
 3549TIP3   OH232061   1.403   4.931  15.333 -0.9270  0.1742  0.0750
 3549TIP3    H132062   1.367   4.963  15.251 -1.8717 -1.8370 -0.3529
 3549TIP3    H232063   1.492   4.904  15.311 -1.0983 -0.1452 -0.2232
 3550TIP3   OH232064   2.189   6.117  16.522 -0.1408 -0.1839 -0.0366
 3550TIP3    H132065   2.212   6.205  16.492 -0.9698 -0.2776 -1.0291
 3550TIP3    H232066   2.273   6.075  16.538  0.2663  0.8498  0.6582
 3551TIP3   OH232067   3.583   4.426  13.426 -0.2262  0.1165 -0.3509
 3551TIP3    H132068   3.641   4.482  13.478 -0.9879  0.7391 -0.1564
 3551TIP3    H232069   3.559   4.355  13.486  0.9179 -0.5699 -0.6675
 3552TIP3   OH232070   0.178   3.693  10.614 -0.4072 -0.5138 -0.2802
 3552TIP3    H132071   0.092   3.723  10.646  0.1591 -1.0550  1.9539
 3552TIP3    H232072   0.183   3.601  10.642 -0.0513 -1.2651 -2.5648
 3553TIP3   OH232073   2.468   1.005   0.765  0.2362  0.4228  0.7888
 3553TIP3    H132074   2.553   0.991   0.723 -0.1209  0.9218 -0.1218
 3553TIP3    H232075   2.406   0.958   0.710 -0.3303  1.6124  0.3824
 3554TIP3   OH232076   2.315   3.451   5.946  0.1859 -0.3684  0.0602
 3554TIP3    H132077   2.406   3.480   5.939 -0.0935  0.5195  0.0893
 3554TIP3    H232078   2.310   3.375   5.888  0.7794 -0.0229 -0.4494
 3555TIP3   OH232079   1.550   2.525   5.015 -0.1846  0.2497  0.1756
 3555TIP3    H132080   1.617   2.514   4.948  1.6185 -0.5019  1.9908
 3555TIP3    H232081   1.571   2.609   5.056 -1.2877  0.7155 -0.1747
 3556TIP3   OH232082   6.162   2.197   6.227 -0.4574  0.2057  0.2288
 3556TIP3    H132083   6.205   2.130   6.281 -1.4890 -1.1124 -0.5310
 3556TIP3    H232084   6.102   2.241   6.287 -0.9777 -0.6753  0.3580
 3557TIP3   OH232085   5.096   1.262  17.232  0.1804 -0.0992  0.4414
 3557TIP3    H132086   5.128   1.345  17.195 -1.5229  0.6691  0.6316
 3557TIP3    H232087   5.082   1.206  17.155  0.6079  0.0369  0.2581
 3558TIP3   OH232088   6.447   1.148  14.299 -0.3390  0.3191 -0.5529
 3558TIP3    H132089   6.475   1.159  14.208 -2.9564 -1.2907 -1.6607
 3558TIP3    H232090   6.360   1.187  14.302 -0.8520 -0.8438  0.8736
 3559TIP3   OH232091   0.277   6.366   2.081 -0.4676  1.0010 -0.4621
 3559TIP3    H132092   0.268   6.420   2.160 -1.4142  1.8431 -1.1106
 3559TIP3    H232093   0.319   6.423   2.017  0.4605  0.2647 -0.5386
 3560TIP3   OH232094   6.625   2.638  10.638  0.5554 -0.0389 -0.0736
 3560TIP3    H132095   6.613   2.677  10.724 -1.9503  0.5477 -0.6068
 3560TIP3    H232096   6.720   2.627  10.629  1.0859  2.3716  1.6564
 3561TIP3   OH232097   5.399   3.670  15.855  0.3389 -0.3365 -0.1712
 3561TIP3    H132098   5.462   3.720  15.907 -0.6963 -0.2425  1.0461
 3561TIP3    H232099   5.352   3.735  15.804  1.1710 -0.4018 -1.0383
 3562TIP3   OH232100   4.333   5.908  10.976 -0.4141 -0.3771 -0.2151
 3562TIP3    H132101   4.327   5.966  10.900 -0.8237 -0.3375 -0.1565
 3562TIP3    H232102   4.344   5.821  10.939 -3.0725 -0.7122 -0.4335
 3563TIP3   OH232103   0.667   5.073  16.709 -0.1834  0.3656  0.2341
 3563TIP3    H132104   0.603   5.124  16.660 -0.5045  0.0751  0.3525
 3563TIP3    H232105   0.749   5.123  16.700  0.3394 -0.8049 -2.5227
 3564TIP3   OH232106   4.825   5.570   1.114  0.5179  0.4840 -0.1399
 3564TIP3    H132107   4.914   5.567   1.079  0.8119  1.6312  0.4892
 3564TIP3    H232108   4.836   5.567   1.209 -0.2628 -2.4297 -0.0449
 3565TIP3   OH232109   3.016   4.970   1.673  0.3834  0.4024  0.5705
 3565TIP3    H132110   2.929   4.984   1.636  0.5269 -2.7058 -1.3045
 3565TIP3    H232111   3.001   4.916   1.751  0.6245 -0.4145  0.0616
 3566TIP3   OH232112   0.406   2.403   1.148  0.2578  0.6450 -1.1229
 3566TIP3    H132113   0.441   2.317   1.170  1.1883  0.9122 -1.5298
 3566TIP3    H232114   0.331   2.414   1.207  0.7064 -0.0409 -0.4104
 3567TIP3   OH232115   0.964   5.127   4.460 -0.5268 -0.0700 -0.3362
 3567TIP3    H132116   0.925   5.062   4.400  0.4229  0.5600 -1.6959
 3567TIP3    H232117   1.018   5.075   4.519 -0.6972 -0.6328 -0.6635
 3568TIP3   OH232118   0.595   2.559   3.248 -0.1704  0.2011  0.6345
 3568TIP3    H132119   0.658   2.626   3.218 -0.6100  0.3683  0.0731
 3568TIP3    H232120   0.553   2.528   3.168  0.4013 -1.1436  0.8285
 3569TIP3   OH232121   0.465   2.035   5.968  0.2664 -0.3318  0.3145
 3569TIP3    H132122   0.418   1.952   5.960  0.5094 -0.5345  0.9008
 3569TIP3    H232123   0.401   2.095   6.005 -0.2201  0.0333 -1.0663
 3570TIP3   OH232124   4.375   1.550  10.683 -0.4808  0.8429  0.0218
 3570TIP3    H132125   4.309   1.545  10.615 -0.7473  0.2572  0.3210
 3570TIP3    H232126   4.452   1.587  10.639  0.1270 -1.6796 -1.1961
 3571TIP3   OH232127   0.850   0.874   3.008 -0.3054 -0.0608 -0.2625
 3571TIP3    H132128   0.759   0.843   3.001 -0.3398  0.2036 -1.1989
 3571TIP3    H232129   0.883   0.834   3.088 -1.3196  0.0174  0.2102
 3572TIP3   OH232130   4.144   3.452   1.792 -0.2285 -0.4733  0.5850
 3572TIP3    H132131   4.171   3.541   1.769  0.6792 -0.5214  1.3758
 3572TIP3    H232132   4.093   3.422   1.717  0.7695  0.1443 -0.3803
 3573TIP3   OH232133   1.256   6.385   3.341  0.6147  0.0222  0.2067
 3573TIP3    H132134   1.250   6.415   3.251 -1.6292 -1.3067 -0.1764
 3573TIP3    H232135   1.350   6.377   3.358  1.1100  1.1171 -1.6827
 3574TIP3   OH232136   5.250   0.890  13.066 -0.1830 -0.2784  0.1231
 3574TIP3    H132137   5.258   0.897  13.161 -3.4647  0.1401  0.4670
 3574TIP3    H232138   5.263   0.979  13.034 -0.5121 -0.1504  0.3398
 3575TIP3   OH232139   2.685   1.296  11.363  0.1591 -0.7871 -0.0432
 3575TIP3    H132140   2.754   1.359  11.383 -0.4953  0.0658 -0.3784
 3575TIP3    H232141   2.731   1.215  11.344  1.0496 -0.3178  0.0578
 3576TIP3   OH232142   4.276   6.357  12.589  0.2260 -0.1744  0.4408
 3576TIP3    H132143   4.346   6.422  12.586 -2.0969  2.4897  0.3463
 3576TIP3    H232144   4.196   6.406  12.568 -1.6867 -3.0846  0.3576
 3577TIP3   OH232145   6.530   5.196  14.054 -0.0986 -0.6622 -0.1844
 3577TIP3    H132146   6.508   5.220  13.963  0.4750  0.6470 -0.0073
 3577TIP3    H232147   6.468   5.246  14.107 -0.0436 -0.9671  0.1691
 3578TIP3   OH232148   3.986   3.136  11.135  0.0495  0.1579  0.5460
 3578TIP3    H132149   3.995   3.176  11.049 -0.2584  0.7742  0.7931
 3578TIP3    H232150   3.895   3.154  11.160 -0.5043 -1.7664  0.1410
 3579TIP3   OH232151   4.594   0.318  15.573  0.4371  0.0317  0.6353
 3579TIP3    H132152   4.658   0.251  15.548  0.3368 -0.5805  1.9554
 3579TIP3    H232153   4.643   0.400  15.568  0.2235  0.1104 -2.2764
 3580TIP3   OH232154   2.346   5.311  11.264  0.0636 -0.2876 -0.4719
 3580TIP3    H132155   2.273   5.256  11.234  0.0795 -0.3659 -0.3674
 3580TIP3    H232156   2.381   5.351  11.184 -2.3479  2.5981 -0.2874
 3581TIP3   OH232157   6.006   3.274   3.024  0.5467 -0.6125  0.1855
 3581TIP3    H132158   5.953   3.248   2.949 -1.5287  1.0527  0.9776
 3581TIP3    H232159   5.979   3.213   3.093 -1.5488  1.0898  0.9905
 3582TIP3   OH232160   1.107   2.859   1.727  0.8624  0.1212  0.2867
 3582TIP3    H132161   1.117   2.954   1.720  1.7394  0.0054 -0.1847
 3582TIP3    H232162   1.026   2.840   1.679 -0.2412  0.7988  1.8051
 3583TIP3   OH232163   6.695   4.494   4.649 -0.7350 -0.1971 -0.0423
 3583TIP3    H132164   6.601   4.504   4.661 -0.5205  1.1149  0.8289
 3583TIP3    H232165   6.733   4.565   4.700  0.7396 -0.7628 -0.2970
 3584TIP3   OH232166   1.707   4.897   2.018  0.5641 -0.4656  0.4332
 3584TIP3    H132167   1.674   4.970   2.070 -1.7496 -0.5158 -0.8180
 3584TIP3    H232168   1.706   4.929   1.928 -1.9934 -2.4048 -0.3629
 3585TIP3   OH232169   1.896   1.643   3.612 -0.6496 -0.2049 -0.4176
 3585TIP3    H132170   1.896   1.548   3.600 -1.4820 -0.3916  0.8079
 3585TIP3    H232171   1.942   1.656   3.695  0.0051  0.5200 -0.8886
 3586TIP3   OH232172   6.289   0.162  13.417  0.0676  0.1000  0.9576
 3586TIP3    H132173   6.263   0.224  13.349 -0.9462  1.6342  2.6509
 3586TIP3    H232174   6.384   0.159  13.412 -0.0277 -1.3862 -1.7799
 3587TIP3   OH232175   3.236   4.759   1.338 -0.3134  0.1596  0.1711
 3587TIP3    H132176   3.229   4.854   1.324  1.7805  0.2876 -0.3144
 3587TIP3    H232177   3.265   4.725   1.254  0.0150 -0.7644  0.6506
 3588TIP3   OH232178   6.754   5.016  13.454 -0.0842  0.4393  0.0964
 3588TIP3    H132179   6.752   5.107  13.425 -0.4395  0.4263  0.0723
 3588TIP3    H232180   6.829   5.011  13.513  0.6836  0.4514 -0.8567
 3589TIP3   OH232181   6.091   2.120  17.312 -0.2334  0.6383  0.5342
 3589TIP3    H132182   6.153   2.071  17.259  0.1035  1.8088 -0.1836
 3589TIP3    H232183   6.088   2.073  17.395  0.1883 -0.4950 -0.0669
 3590TIP3   OH232184   6.648   0.108   1.211 -0.9864  0.1499  0.0504
 3590TIP3    H132185   6.739   0.078   1.210 -1.2998 -0.8528 -1.4958
 3590TIP3    H232186   6.610   0.072   1.131 -3.2582 -1.1111  1.5617
 3591TIP3   OH232187   1.081   1.451   1.627 -0.3666  0.2883 -0.4406
 3591TIP3    H132188   1.136   1.373   1.627 -1.0905 -0.2374  0.9092
 3591TIP3    H232189   1.012   1.433   1.690 -0.8619  1.8049 -0.4998
 3592TIP3   OH232190   4.284   2.277   2.773  0.3123  0.2531 -0.0293
 3592TIP3    H132191   4.231   2.350   2.740  0.7237  1.1709  1.2705
 3592TIP3    H232192   4.221   2.210   2.798 -0.1442  0.6634 -0.0714
 3593TIP3   OH232193   1.025   6.531   5.839 -0.2089 -0.1738 -0.6186
 3593TIP3    H132194   0.942   6.541   5.885 -1.2492  0.7746 -2.5772
 3593TIP3    H232195   1.042   6.437   5.840 -1.3744 -0.3916 -0.2772
 3594TIP3   OH232196   1.764   4.104   3.607 -0.3834  0.2825  0.2575
 3594TIP3    H132197   1.807   4.112   3.522 -0.4146  0.0615  0.2195
 3594TIP3    H232198   1.688   4.047   3.591 -0.3072  0.1194  0.4616
 3595TIP3   OH232199   6.498   0.638   2.640 -0.3052 -0.9147 -0.1555
 3595TIP3    H132200   6.436   0.709   2.621  1.2526  0.8856  1.1926
 3595TIP3    H232201   6.561   0.640   2.568  0.8191  0.3793  0.8219
 3596TIP3   OH232202   0.807   1.451  16.414 -0.1156 -0.5951 -0.7726
 3596TIP3    H132203   0.891   1.411  16.436  0.3222  1.0929  0.8711
 3596TIP3    H232204   0.806   1.453  16.318  2.0034 -0.1444 -0.8333
 3597TIP3   OH232205   2.900   1.290  13.539  0.1620  0.0901  0.2861
 3597TIP3    H132206   2.982   1.336  13.557 -0.9742  2.8561 -0.9235
 3597TIP3    H232207   2.900   1.279  13.444 -1.2687  1.0776  0.1393
 3598TIP3   OH232208   2.940   3.923  11.703 -0.2112 -0.1602  0.0203
 3598TIP3    H132209   3.023   3.903  11.659  0.4557  0.7836  0.8140
 3598TIP3    H232210   2.905   3.838  11.728  0.9965 -0.5296  0.5148
 3599TIP3   OH232211   4.753   0.290  11.118 -0.8972  0.6130  0.0497
 3599TIP3    H132212   4.776   0.265  11.029  1.7676  0.8919  0.6002
 3599TIP3    H232213   4.815   0.359  11.141  0.2912 -1.2653  3.0248
 3600TIP3   OH232214   6.087   6.590   6.114  0.1860  1.2148 -0.1199
 3600TIP3    H132215   6.018   6.607   6.050 -0.0733  0.4982 -0.0291
 3600TIP3    H232216   6.046   6.604   6.199  0.4051  1.6973 -0.0870
 3601TIP3   OH232217   0.318   1.994   5.174 -0.7579  0.1516 -0.4087
 3601TIP3    H132218   0.324   1.913   5.224 -0.9741 -0.1053 -0.7939
 3601TIP3    H232219   0.289   2.060   5.237  1.3310  0.3728  0.3810
 3602TIP3   OH232220   2.457   0.956   3.935 -0.1516  0.0756 -0.3827
 3602TIP3    H132221   2.547   0.940   3.908  0.0134  0.8357 -0.2971
 3602TIP3    H232222   2.408   0.965   3.852 -0.0984 -0.0478 -0.4278
 3603TIP3   OH232223   4.137   5.597  15.361 -0.6839 -0.4723 -0.0970
 3603TIP3    H132224   4.218   5.642  15.336 -0.1706 -1.3467 -0.0584
 3603TIP3    H232225   4.160   5.549  15.441 -1.3802 -0.3403  0.1893
 3604TIP3   OH232226   0.153   0.973  14.903  0.7891 -0.2221  0.0609
 3604TIP3    H132227   0.217   0.906  14.923 -0.1285 -1.1356  0.0007
 3604TIP3    H232228   0.073   0.946  14.948 -0.0268  0.0301 -1.1476
 3605TIP3   OH232229   2.821   0.693  12.605  0.2923 -0.5365 -1.3793
 3605TIP3    H132230   2.729   0.667  12.605  0.2979 -0.7068  0.4771
 3605TIP3    H232231   2.821   0.781  12.567 -0.7661 -0.1841 -0.6176
 3606TIP3   OH232232   3.905   1.157   2.696  0.2372 -0.0240  0.1773
 3606TIP3    H132233   3.998   1.135   2.687  0.2754 -0.0036  0.5059
 3606TIP3    H232234   3.906   1.246   2.731  0.1018 -0.4156  1.1886
 3607TIP3   OH232235   5.406   2.202  10.472 -0.2235  0.4414 -0.0203
 3607TIP3    H132236   5.397   2.268  10.541 -0.5322 -0.6155  0.9796
 3607TIP3    H232237   5.321   2.160  10.468 -0.1696  0.4157 -0.9820
 3608TIP3   OH232238   5.679   0.664   1.598  0.5068  0.1997  0.2421
 3608TIP3    H132239   5.718   0.749   1.619 -0.2057  0.4528  0.5649
 3608TIP3    H232240   5.589   0.671   1.628  0.2708 -0.4585 -0.2908
 3609TIP3   OH232241   2.020   2.087  12.153  0.4497  0.0333 -0.2551
 3609TIP3    H132242   2.075   2.024  12.199 -0.9064 -0.7922  0.2985
 3609TIP3    H232243   1.995   2.042  12.072  0.7414  0.4731 -0.5905
 3610TIP3   OH232244   4.927   1.681  15.811 -0.4751 -0.9316  0.1175
 3610TIP3    H132245   5.021   1.688  15.822  0.1333 -1.2339 -3.5817
 3610TIP3    H232246   4.890   1.731  15.885  2.4661 -1.6185  2.2087
 3611TIP3   OH232247   3.164   1.216  15.220 -0.2151  0.3043 -0.1867
 3611TIP3    H132248   3.225   1.264  15.163  0.1231  0.4679  0.3077
 3611TIP3    H232249   3.079   1.258  15.205 -0.2575 -0.0447 -1.0200
 3612TIP3   OH232250   1.567   2.684  15.307  0.4334  0.5571 -0.0086
 3612TIP3    H132251   1.617   2.765  15.318  1.0275  0.0617  1.1425
 3612TIP3    H232252   1.622   2.616  15.347 -0.0830 -0.4049 -0.8969
 3613TIP3   OH232253   2.658   0.320  11.735 -0.4286 -0.1305  0.4067
 3613TIP3    H132254   2.583   0.355  11.687 -0.3937  0.0831  0.5053
 3613TIP3    H232255   2.709   0.274  11.669 -1.9513 -2.5120  0.7805
 3614TIP3   OH232256   2.422   0.620  16.555 -0.0453 -0.1468  0.5076
 3614TIP3    H132257   2.415   0.582  16.643 -1.4236  0.5796  0.7299
 3614TIP3    H232258   2.515   0.640  16.546 -0.0209  0.6770  2.1917
 3615TIP3   OH232259   4.424   3.645   0.565  0.2631 -0.0865  0.1426
 3615TIP3    H132260   4.508   3.600   0.569  0.3616  0.1751  1.5970
 3615TIP3    H232261   4.359   3.575   0.556  0.5355 -0.4107  0.6505
 3616TIP3   OH232262   2.233   5.603  11.390  0.8453  0.1805  0.1462
 3616TIP3    H132263   2.221   5.691  11.426  0.7938  0.0389  0.4853
 3616TIP3    H232264   2.324   5.601  11.361  0.3085  1.0032 -1.7108
 3617TIP3   OH232265   4.062   5.039  11.144  0.0290  0.5333  0.4822
 3617TIP3    H132266   4.134   4.990  11.184 -0.6401  0.6491  1.9054
 3617TIP3    H232267   4.070   5.023  11.050  0.1359 -1.9179  0.8518
 3618TIP3   OH232268   1.989   6.053   3.843 -0.0278  0.3446  0.4544
 3618TIP3    H132269   2.082   6.075   3.843  0.2033 -0.5574  0.8673
 3618TIP3    H232270   1.972   6.016   3.757  0.0911  0.1275  0.5253
 3619TIP3   OH232271   2.020   3.915  17.330  0.2620  0.0703  0.2189
 3619TIP3    H132272   1.961   3.990  17.323  1.2942  0.8356 -0.7794
 3619TIP3    H232273   1.987   3.864  17.404 -0.9020  1.1170  0.4427
 3620TIP3   OH232274   6.093   5.892   3.304  0.5062  0.5808 -0.0784
 3620TIP3    H132275   6.045   5.907   3.385  0.8235 -1.1509  0.4584
 3620TIP3    H232276   6.185   5.908   3.328  0.6173 -0.0891 -0.0505
 3621TIP3   OH232277   5.546   1.621   6.487 -0.3976 -0.0621  0.4841
 3621TIP3    H132278   5.496   1.539   6.486 -1.3670  0.4975 -1.1978
 3621TIP3    H232279   5.530   1.657   6.574 -0.5197 -1.3180  1.0105
 3622TIP3   OH232280   3.147   6.072  14.574 -0.3688  0.3534  0.2535
 3622TIP3    H132281   3.093   6.029  14.508  0.4364 -2.1886  1.1559
 3622TIP3    H232282   3.111   6.043  14.657  1.8719 -0.8236  0.8860
 3623TIP3   OH232283   4.984   3.417   3.776 -0.0109  0.3166 -0.2653
 3623TIP3    H132284   5.073   3.402   3.807 -0.3130  0.3214  0.6330
 3623TIP3    H232285   4.930   3.357   3.828 -0.6250  0.8843 -0.2331
 3624TIP3   OH232286   2.242   1.281  16.735 -0.0562 -0.2992 -0.2378
 3624TIP3    H132287   2.249   1.371  16.767 -0.8136  0.2221 -1.4687
 3624TIP3    H232288   2.200   1.289  16.649 -1.0082 -1.8953  0.0314
 3625TIP3   OH232289   5.401   5.343  12.532  0.4701  0.4556 -0.5505
 3625TIP3    H132290   5.398   5.437  12.548  2.4087  0.5158 -0.2194
 3625TIP3    H232291   5.367   5.304  12.613 -0.0199  0.8560 -0.5572
 3626TIP3   OH232292   2.468   2.799   2.950  0.0495  0.0135  0.4663
 3626TIP3    H132293   2.564   2.790   2.946 -0.0952 -1.4228 -0.8738
 3626TIP3    H232294   2.446   2.781   3.042  1.0253  0.0766  0.7263
 3627TIP3   OH232295   2.689   3.617  13.330 -0.9159  1.1714  0.6993
 3627TIP3    H132296   2.672   3.582  13.417  3.4186  1.1478  1.7589
 3627TIP3    H232297   2.691   3.540  13.273 -0.2611  0.7465  1.2868
 3628TIP3   OH232298   0.867   5.961  17.046 -0.5105  0.2486 -0.2776
 3628TIP3    H132299   0.936   5.897  17.065 -1.5394 -0.9553 -0.4789
 3628TIP3    H232300   0.799   5.943  17.110 -1.9324 -0.6054 -1.9529
 3629TIP3   OH232301   0.572   5.961  15.989 -0.1539  0.5247 -0.1368
 3629TIP3    H132302   0.493   5.907  15.992  1.0559 -1.4349 -1.4117
 3629TIP3    H232303   0.632   5.919  16.050 -0.1640  2.2308  1.1235
 3630TIP3   OH232304   1.428   5.218  12.402 -0.5108  0.0458 -0.1729
 3630TIP3    H132305   1.454   5.250  12.489 -0.8425 -2.2779  0.8623
 3630TIP3    H232306   1.347   5.266  12.382  1.0326  2.7129 -0.5833
 3631TIP3   OH232307   6.209   2.709   0.986  0.1773 -0.3109  0.1055
 3631TIP3    H132308   6.187   2.757   1.065  0.0984  0.8789 -0.6203
 3631TIP3    H232309   6.297   2.676   1.001  2.3084  4.0629 -1.1219
 3632TIP3   OH232310   5.452   5.526  15.467 -0.0113 -0.3102  0.4433
 3632TIP3    H132311   5.538   5.506  15.430 -0.5242  1.2032 -1.8324
 3632TIP3    H232312   5.469   5.592  15.534  0.5664  0.3954 -0.3850
 3633TIP3   OH232313   5.204   6.291  14.186 -0.4325  0.4806 -0.2399
 3633TIP3    H132314   5.192   6.288  14.091  0.1802  0.3670 -0.3145
 3633TIP3    H232315   5.218   6.384  14.205  2.2133  0.2271 -0.6201
 3634TIP3   OH232316   4.062   4.299  14.302 -0.1343 -0.2891  0.0492
 3634TIP3    H132317   4.102   4.226  14.254 -0.7152 -1.1364  0.8180
 3634TIP3    H232318   4.012   4.257  14.372 -1.5788  0.7782 -0.2904
 3635TIP3   OH232319   4.289   4.301   0.980 -0.3997  0.0436  0.4772
 3635TIP3    H132320   4.383   4.283   0.988  0.0408  2.1629  0.7345
 3635TIP3    H232321   4.273   4.302   0.886  0.5672  2.6812  0.2551
 3636TIP3   OH232322   3.508   3.447   4.095 -0.0670 -0.1163  0.2413
 3636TIP3    H132323   3.566   3.446   4.019 -0.3735 -0.4184  0.0122
 3636TIP3    H232324   3.423   3.417   4.062  0.3875 -2.7348  1.1801
 3637TIP3   OH232325   1.583   5.611   5.563  0.8435  0.3955  0.3187
 3637TIP3    H132326   1.579   5.566   5.479  1.0350 -1.4504  1.2457
 3637TIP3    H232327   1.643   5.559   5.616 -0.7445  0.3849  2.2348
 3638TIP3   OH232328   2.945   6.475  14.472 -0.8055 -0.1764  0.4464
 3638TIP3    H132329   2.897   6.401  14.509  1.0351 -1.0274  1.2672
 3638TIP3    H232330   2.998   6.507  14.545  0.7836 -0.0645 -0.7152
 3639TIP3   OH232331   3.111   1.765  11.349  0.0310 -0.0759  0.1943
 3639TIP3    H132332   3.146   1.698  11.291 -0.3518 -0.5169  0.4667
 3639TIP3    H232333   3.054   1.818  11.293  1.9292  1.3144 -0.5095
 3640TIP3   OH232334   2.783   4.992  16.107  0.0225 -0.1651 -0.1277
 3640TIP3    H132335   2.770   5.066  16.165 -2.0165 -0.0044 -0.7220
 3640TIP3    H232336   2.877   4.994  16.086  0.0301  2.1754 -0.0726
 3641TIP3   OH232337   0.538   6.038  16.384 -0.8593  0.8622 -0.8668
 3641TIP3    H132338   0.611   6.041  16.445 -0.9080 -0.2276 -0.7233
 3641TIP3    H232339   0.572   6.073  16.303  0.2628 -0.9033 -1.2052
 3642TIP3   OH232340   3.787   3.645   0.166  0.1813 -0.1778 -0.1911
 3642TIP3    H132341   3.857   3.582   0.186 -0.4246 -0.7129  0.2939
 3642TIP3    H232342   3.802   3.668   0.074  0.4226 -1.0426 -0.3868
 3643TIP3   OH232343   1.723   2.297  15.923  0.6384 -0.3815 -0.0053
 3643TIP3    H132344   1.679   2.265  15.844  1.6055  1.3897 -1.3470
 3643TIP3    H232345   1.811   2.261  15.918  1.2892  1.2096 -0.7806
 3644TIP3   OH232346   5.400   2.979   2.284 -0.5885  0.3403  0.5386
 3644TIP3    H132347   5.380   2.946   2.196 -2.1760 -0.8183  1.2983
 3644TIP3    H232348   5.374   3.071   2.281 -1.5582  0.0630  0.0700
 3645TIP3   OH232349   2.190   0.821   2.425  0.1893  0.1405 -0.0141
 3645TIP3    H132350   2.150   0.860   2.347  1.4162  0.1295 -0.6626
 3645TIP3    H232351   2.284   0.831   2.412  0.4566 -1.0363  0.8691
 3646TIP3   OH232352   0.187   5.005   2.236  0.2911 -0.4745 -0.3656
 3646TIP3    H132353   0.118   4.942   2.257 -1.2923  1.0177 -0.9024
 3646TIP3    H232354   0.260   4.951   2.204  0.1952 -2.2522  2.1387
 3647TIP3   OH232355   6.171   6.448   2.270  0.2492 -0.1831  0.2235
 3647TIP3    H132356   6.257   6.443   2.313 -0.1771  2.3591  1.5259
 3647TIP3    H232357   6.175   6.379   2.203  2.1812 -2.1108  2.1176
 3648TIP3   OH232358   1.871   6.672   3.393 -0.1238  0.2818 -0.4746
 3648TIP3    H132359   1.872   6.577   3.393 -0.5402  0.2747 -0.5738
 3648TIP3    H232360   1.957   6.698   3.361 -0.5345 -0.0716 -1.9322
 3649TIP3   OH232361   4.061   4.194  17.302 -0.3926 -0.6456 -0.2076
 3649TIP3    H132362   3.971   4.205  17.274 -0.5464  0.7855  0.7992
 3649TIP3    H232363   4.077   4.100  17.293 -1.6756 -0.7904 -1.2558
 3650TIP3   OH232364   4.023   0.139  15.498 -0.3557  0.2374 -0.4360
 3650TIP3    H132365   4.009   0.221  15.546 -0.7914  1.2661 -2.2505
 3650TIP3    H232366   3.936   0.106  15.480 -0.1824 -0.5016  0.0298
 3651TIP3   OH232367   2.819   2.885  15.159  0.0109  0.4982  0.0381
 3651TIP3    H132368   2.862   2.834  15.089  1.3577 -0.4477  1.4889
 3651TIP3    H232369   2.873   2.964  15.168 -1.1947  1.5016 -1.1601
 3652TIP3   OH232370   6.175   3.588  11.648 -0.4348  0.3150  0.5049
 3652TIP3    H132371   6.138   3.532  11.716 -1.0045 -0.3751 -0.3634
 3652TIP3    H232372   6.268   3.564  11.646 -0.7450 -0.9196 -0.1383
 3653TIP3   OH232373   4.545   0.374  10.878 -0.2492  0.2426 -0.2742
 3653TIP3    H132374   4.487   0.438  10.919 -2.3773  0.1650 -2.8898
 3653TIP3    H232375   4.491   0.332  10.811  2.3857 -1.1096 -1.7046
 3654TIP3   OH232376   0.448   4.726  10.968 -0.4499 -0.2257  0.1514
 3654TIP3    H132377   0.466   4.641  10.927  1.5168  0.5725 -0.7858
 3654TIP3    H232378   0.498   4.788  10.916 -0.2957  1.2665  1.9907
 3655TIP3   OH232379   0.233   3.444   2.426 -0.0719 -0.2036 -0.0342
 3655TIP3    H132380   0.263   3.354   2.432  1.9792  0.4806  0.8555
 3655TIP3    H232381   0.304   3.491   2.382 -0.0448  1.3891  1.5712
 3656TIP3   OH232382   4.560   5.414  12.093  0.0993 -0.7853 -0.4805
 3656TIP3    H132383   4.487   5.359  12.066  1.2653 -0.7503 -4.1820
 3656TIP3    H232384   4.525   5.503  12.091  0.4023 -0.6554 -3.3623
 3657TIP3   OH232385   1.445   4.509   1.950  0.4303  0.1866  0.5632
 3657TIP3    H132386   1.503   4.562   2.004 -0.9196  1.1409  1.1519
 3657TIP3    H232387   1.357   4.532   1.981 -0.4400  1.1663 -2.3929
 3658TIP3   OH232388   5.466   0.187  14.699  0.6738 -0.4390 -0.2907
 3658TIP3    H132389   5.518   0.225  14.770 -0.1781  1.1859 -0.4834
 3658TIP3    H232390   5.485   0.243  14.623 -2.1527  1.0108 -0.0923
 3659TIP3   OH232391   5.446   6.105   0.091  0.6705 -0.5165 -0.0726
 3659TIP3    H132392   5.466   6.029   0.037 -1.2680 -0.6355 -0.6823
 3659TIP3    H232393   5.475   6.080   0.179  1.9374 -1.1227 -0.6332
 3660TIP3   OH232394   1.301   5.670   3.700 -0.1809 -0.3838 -0.0781
 3660TIP3    H132395   1.219   5.665   3.749 -1.0548  0.6484 -1.3782
 3660TIP3    H232396   1.278   5.646   3.611  1.1903 -1.2810 -0.2164
 3661TIP3   OH232397   2.474   5.086  16.934  0.1588 -0.1807 -0.1994
 3661TIP3    H132398   2.517   5.084  17.019  1.9529  2.0150 -0.9257
 3661TIP3    H232399   2.400   5.146  16.945  0.6538  0.4524 -0.2643
 3662TIP3   OH232400   4.653   5.730  16.036 -0.9011 -0.2096  0.4772
 3662TIP3    H132401   4.624   5.694  15.953 -0.4498  1.0785 -0.2709
 3662TIP3    H232402   4.575   5.771  16.074 -0.6417  1.1822 -0.4146
 3663TIP3   OH232403   3.760   0.409   2.017 -0.4404  0.2044 -0.0515
 3663TIP3    H132404   3.846   0.416   2.059  0.0224 -0.7213 -0.8173
 3663TIP3    H232405   3.759   0.321   1.979 -1.6986  0.2394 -0.1281
 3664TIP3   OH232406   1.980   4.824   3.028  0.6416  0.2417 -0.0730
 3664TIP3    H132407   1.987   4.782   2.943  0.3723  1.9100 -0.9577
 3664TIP3    H232408   2.060   4.877   3.036  1.4499 -1.0988  1.4446
 3665TIP3   OH232409   4.055   3.543   3.582 -0.0057  0.1841 -0.0122
 3665TIP3    H132410   4.086   3.519   3.494 -0.1349 -1.2472  0.3194
 3665TIP3    H232411   3.985   3.607   3.566  0.0026 -0.0275 -0.9473
 3666TIP3   OH232412   4.354   3.443   5.700  0.4256  0.1485 -0.2224
 3666TIP3    H132413   4.378   3.383   5.771 -0.5842 -0.8678 -0.7050
 3666TIP3    H232414   4.436   3.457   5.652  0.6202 -1.1569 -0.3187
 3667TIP3   OH232415   2.375   4.262   2.263 -0.0483 -0.2073 -0.3230
 3667TIP3    H132416   2.326   4.342   2.247  0.1979 -0.1059 -0.5929
 3667TIP3    H232417   2.377   4.253   2.358  0.2819  0.3396 -0.2717
 3668TIP3   OH232418   6.503   4.584  11.440 -0.2258  0.0838  0.3724
 3668TIP3    H132419   6.491   4.624  11.526  3.2586 -0.8744  1.4909
 3668TIP3    H232420   6.459   4.499  11.446 -3.4847  1.5543 -0.3569
 3669TIP3   OH232421   3.579   0.163  15.977 -0.0782 -0.2680 -0.3414
 3669TIP3    H132422   3.622   0.090  15.934  0.3494  0.2036 -0.7242
 3669TIP3    H232423   3.487   0.156  15.951  0.2614  0.3083 -1.7658
 3670TIP3   OH232424   1.115   4.730   6.341 -0.0468 -0.7684  0.4907
 3670TIP3    H132425   1.132   4.787   6.416  1.1979 -0.5132  0.0484
 3670TIP3    H232426   1.021   4.712   6.344  0.0314 -1.0271  2.2797
 3671TIP3   OH232427   3.017   0.477  11.443  0.3559 -0.9875 -0.0298
 3671TIP3    H132428   2.985   0.487  11.353 -2.0297  1.5393  0.9828
 3671TIP3    H232429   3.099   0.428  11.433 -0.6575 -2.3107 -3.3904
 3672TIP3   OH232430   5.088   4.231   1.727 -0.3126 -0.4100  0.3731
 3672TIP3    H132431   5.010   4.200   1.680  0.2033 -1.1187 -0.0365
 3672TIP3    H232432   5.157   4.232   1.660 -0.6068  3.2425 -0.1307
 3673TIP3   OH232433   2.809   6.400   2.758 -0.4125  0.5825 -0.6612
 3673TIP3    H132434   2.821   6.476   2.814  1.7225 -1.6395  2.2254
 3673TIP3    H232435   2.736   6.352   2.798  1.7279 -1.5022  1.0594
 3674TIP3   OH232436   6.021   5.216   0.610  0.5947  0.1948  0.1721
 3674TIP3    H132437   5.989   5.183   0.695  1.6579 -0.7854  0.2269
 3674TIP3    H232438   6.080   5.147   0.579  3.3901  2.2291  0.5273
 3675TIP3   OH232439   1.941   1.856   4.159  0.1312  0.1563 -0.5216
 3675TIP3    H132440   1.873   1.914   4.193  0.1280 -1.3828  2.3955
 3675TIP3    H232441   2.023   1.895   4.188  0.3642  0.4963 -1.5818
 3676TIP3   OH232442   2.850   6.494  15.140  0.0696  0.5011 -0.0790
 3676TIP3    H132443   2.833   6.478  15.233 -0.7429 -0.8610 -0.4311
 3676TIP3    H232444   2.763   6.507  15.102  0.1067 -1.7120 -1.0918
 3677TIP3   OH232445   6.123   3.584  16.005  0.0666  0.6200  0.0403
 3677TIP3    H132446   6.200   3.569  15.950  0.1940  0.1557  0.3343
 3677TIP3    H232447   6.097   3.497  16.033 -1.5022  0.6158 -1.2828
 3678TIP3   OH232448   6.222   5.829  15.452 -0.4441 -0.3178  0.0065
 3678TIP3    H132449   6.254   5.915  15.424  0.2767 -0.4539  0.3909
 3678TIP3    H232450   6.291   5.796  15.509 -1.1271 -0.7719  0.5770
 3679TIP3   OH232451   2.502   1.327   1.852 -0.4958 -0.3995  0.1293
 3679TIP3    H132452   2.456   1.393   1.903 -0.1254 -1.3976  1.8386
 3679TIP3    H232453   2.436   1.294   1.790 -1.1597  0.3355  0.4257
 3680TIP3   OH232454   4.125   2.593  15.041  0.0571 -0.3891  0.0120
 3680TIP3    H132455   4.076   2.545  15.108 -0.1477  0.3812  0.4196
 3680TIP3    H232456   4.057   2.628  14.983 -0.0298  2.0333  1.4656
 3681TIP3   OH232457   2.194   4.441   0.299  0.8964 -0.5965 -0.2878
 3681TIP3    H132458   2.184   4.383   0.375 -0.1069 -0.9083 -0.6457
 3681TIP3    H232459   2.224   4.524   0.336 -1.4634 -0.1254  0.6979
 3682TIP3   OH232460   4.058   5.227  11.344  0.0376 -0.2696 -0.3039
 3682TIP3    H132461   4.054   5.161  11.275  0.7723 -0.7596  0.1055
 3682TIP3    H232462   4.152   5.245  11.354  0.0363 -0.9531  1.2640
 3683TIP3   OH232463   3.838   2.030  14.868 -0.1833 -0.2176  0.4535
 3683TIP3    H132464   3.923   2.074  14.872  0.8684 -2.1126  0.3170
 3683TIP3    H232465   3.833   1.995  14.779 -0.7763 -0.6954  0.6678
 3684TIP3   OH232466   0.833   0.447   5.551  0.1349 -0.1189  0.3626
 3684TIP3    H132467   0.895   0.422   5.482 -0.6369 -0.3440 -0.2657
 3684TIP3    H232468   0.808   0.364   5.592  0.1320 -0.0428  0.5142
 3685TIP3   OH232469   2.510   2.927   5.598 -0.1530 -0.4208 -0.6084
 3685TIP3    H132470   2.464   2.909   5.681  0.3533 -0.5918 -0.3617
 3685TIP3    H232471   2.478   3.013   5.572  0.3959  0.0688  0.2701
 3686TIP3   OH232472   3.495   1.079  10.787 -0.2480  0.2198 -0.1681
 3686TIP3    H132473   3.586   1.108  10.798 -0.7798  1.0934  2.5157
 3686TIP3    H232474   3.457   1.144  10.727  0.6562  0.3838 -0.5844
 3687TIP3   OH232475   3.208   5.569   2.451 -0.0459 -0.0171 -0.0753
 3687TIP3    H132476   3.146   5.586   2.522 -0.2521 -1.2508  0.0592
 3687TIP3    H232477   3.262   5.648   2.447 -2.9399  2.1112 -1.6332
 3688TIP3   OH232478   6.549   3.144  15.871  0.0233  0.1949  0.7176
 3688TIP3    H132479   6.641   3.123  15.857 -0.1244  0.3778 -0.6331
 3688TIP3    H232480   6.537   3.230  15.832 -1.0718 -0.5325 -0.6470
 3689TIP3   OH232481   4.081   4.845   0.868 -0.0162  0.3804  0.1993
 3689TIP3    H132482   4.166   4.803   0.871 -0.1329  0.1665  0.5998
 3689TIP3    H232483   4.096   4.932   0.906 -0.2018 -0.0605  1.2979
 3690TIP3   OH232484   1.350   3.789   3.367  0.2890 -0.1587 -0.3472
 3690TIP3    H132485   1.362   3.704   3.409 -3.6696 -0.6207  0.1875
 3690TIP3    H232486   1.323   3.768   3.277 -2.4091  0.3358  0.2659
 3691TIP3   OH232487   2.882   5.616  15.908  0.2093 -0.6043  0.7213
 3691TIP3    H132488   2.885   5.524  15.881 -1.2145 -0.4655  0.0263
 3691TIP3    H232489   2.823   5.658  15.846 -0.0775  0.5550  1.7359
 3692TIP3   OH232490   0.063   1.082  14.657  0.1133  0.4325 -0.2292
 3692TIP3    H132491  -0.032   1.075  14.654  0.1700 -0.5252  0.1346
 3692TIP3    H232492   0.090   1.030  14.732  0.9329  0.6573 -0.3490
 3693TIP3   OH232493   4.121   3.125   2.786  0.4464 -0.0968 -0.0461
 3693TIP3    H132494   4.196   3.128   2.845  1.3250  0.4589 -1.1352
 3693TIP3    H232495   4.053   3.078   2.834  2.1167 -2.3407  0.2716
 3694TIP3   OH232496   0.598   0.549  14.316  1.3043  0.8513 -0.0857
 3694TIP3    H132497   0.684   0.531  14.278  1.3289 -1.3894  0.8914
 3694TIP3    H232498   0.604   0.519  14.406 -0.9842 -1.1007 -0.4760
 3695TIP3   OH232499   6.145   0.426  12.166 -0.0158 -0.3717  0.4560
 3695TIP3    H132500   6.186   0.397  12.085 -0.3325 -0.0038  0.1613
 3695TIP3    H232501   6.204   0.396  12.235  1.2285  0.9501  0.0002
 3696TIP3   OH232502   2.512   2.259   4.806  0.3168  0.4555  0.5371
 3696TIP3    H132503   2.582   2.318   4.835  0.9454  0.2959 -0.6135
 3696TIP3    H232504   2.439   2.280   4.863  0.8110  1.7364  0.7331
 3697TIP3   OH232505   4.420   0.641   1.107 -0.0477 -0.2293 -0.7304
 3697TIP3    H132506   4.364   0.565   1.125  2.1522 -1.1807  3.4503
 3697TIP3    H232507   4.501   0.603   1.073 -0.4899  0.7959 -3.1091
 3698TIP3   OH232508   0.807   5.880   3.859 -0.6574 -0.3511 -0.6369
 3698TIP3    H132509   0.754   5.836   3.793 -0.0946 -0.3253 -1.1140
 3698TIP3    H232510   0.888   5.903   3.813 -1.6782  3.0042 -0.9898
 3699TIP3   OH232511   2.832   5.460  16.414 -0.1098  0.3083  0.0449
 3699TIP3    H132512   2.910   5.499  16.453 -0.1922 -0.6641  1.2247
 3699TIP3    H232513   2.818   5.378  16.462 -1.5044  0.1532 -0.5513
 3700TIP3   OH232514   4.782   2.117  13.038  0.4452  0.1126 -0.1032
 3700TIP3    H132515   4.734   2.200  13.032  1.3950  0.6743 -0.0816
 3700TIP3    H232516   4.768   2.075  12.953  1.2744  1.0423 -0.7260
 3701TIP3   OH232517   3.070   5.621  12.540 -0.0902 -0.2802 -0.0254
 3701TIP3    H132518   3.041   5.535  12.511  0.7854 -0.7308  0.3694
 3701TIP3    H232519   3.006   5.648  12.606 -0.2609 -0.7235 -0.0101
 3702TIP3   OH232520   0.448   4.177   0.597  0.1232  0.2571  0.2676
 3702TIP3    H132521   0.483   4.221   0.519 -0.2650  0.7055  0.3415
 3702TIP3    H232522   0.378   4.235   0.627  0.3391  0.1416  1.0108
 3703TIP3   OH232523   3.220   1.312   1.951 -0.0155 -0.0617 -0.5173
 3703TIP3    H132524   3.248   1.228   1.915 -1.7656  0.0050 -2.2459
 3703TIP3    H232525   3.144   1.337   1.897  0.3954  2.5959 -0.0330
 3704TIP3   OH232526   3.861   6.129   3.037 -0.3891  0.6641 -0.1783
 3704TIP3    H132527   3.837   6.124   3.129  0.9908  0.0032  0.1768
 3704TIP3    H232528   3.929   6.196   3.033  0.4234 -0.1484 -0.4841
 3705TIP3   OH232529   2.903   5.587  14.361  0.4176 -0.0326 -0.0692
 3705TIP3    H132530   2.983   5.640  14.362 -0.5014  1.3900  0.2495
 3705TIP3    H232531   2.846   5.627  14.427 -0.2150 -1.6040  0.3907
 3706TIP3   OH232532   2.054   5.919  13.013 -0.1835  0.2157  0.7066
 3706TIP3    H132533   1.965   5.908  13.046 -0.7746  0.5936 -0.6995
 3706TIP3    H232534   2.091   5.830  13.012 -0.1368  0.1922  2.3324
 3707TIP3   OH232535   4.457   6.506   4.658 -0.7316 -0.0726  1.2065
 3707TIP3    H132536   4.502   6.574   4.609  0.0073 -0.3715  1.4643
 3707TIP3    H232537   4.390   6.473   4.597  0.6189 -0.9104  0.1313
 3708TIP3   OH232538   3.523   0.517  11.428  0.8217 -0.5793  0.0350
 3708TIP3    H132539   3.443   0.470  11.402  0.9459 -0.6061 -0.2965
 3708TIP3    H232540   3.579   0.514  11.351  0.6036  0.6184 -0.1954
 3709TIP3   OH232541   0.884   0.224   2.326  0.5102  0.6279 -0.0252
 3709TIP3    H132542   0.916   0.295   2.382  1.5938  0.0913  0.0746
 3709TIP3    H232543   0.860   0.266   2.244 -0.5201  1.3430  0.6225
 3710TIP3   OH232544   6.208   3.211   4.289 -0.1315  0.0365  0.2816
 3710TIP3    H132545   6.277   3.248   4.345 -1.4255 -0.3462  2.2269
 3710TIP3    H232546   6.229   3.117   4.285  0.3604  0.1721 -0.5050
 3711TIP3   OH232547   0.455   2.703  11.699  0.6476  0.3930  0.3431
 3711TIP3    H132548   0.496   2.759  11.632  0.8536  1.4750  1.3396
 3711TIP3    H232549   0.498   2.729  11.781 -1.4635  0.9866  1.3113
 3712TIP3   OH232550   0.258   3.961  11.896  0.1669 -0.0457 -0.4166
 3712TIP3    H132551   0.210   4.042  11.877 -0.9328 -0.1996  1.4096
 3712TIP3    H232552   0.339   3.969  11.846 -0.1239  1.9801 -0.6544
 3713TIP3   OH232553   0.196   2.520  13.584  0.2443 -0.4817  0.1352
 3713TIP3    H132554   0.258   2.512  13.511 -0.5678 -2.9494 -0.3930
 3713TIP3    H232555   0.121   2.568  13.547  0.2078 -0.9462 -0.4041
 3714TIP3   OH232556   4.942   3.650  13.627 -0.1446 -0.1079 -0.1760
 3714TIP3    H132557   5.028   3.674  13.591 -0.7939  1.2170 -0.8885
 3714TIP3    H232558   4.945   3.682  13.717 -0.2303  0.8076 -0.4887
 3715TIP3   OH232559   6.203   0.906  11.826 -0.4998 -0.0589  0.0127
 3715TIP3    H132560   6.189   0.880  11.917 -0.9496 -0.7396 -0.2451
 3715TIP3    H232561   6.252   0.834  11.787  0.0694  0.4209 -0.1841
 3716TIP3   OH232562   2.596   3.889   4.010  0.3340 -0.2227  0.3476
 3716TIP3    H132563   2.511   3.931   4.019  1.0591  1.4154 -0.0029
 3716TIP3    H232564   2.659   3.957   4.035  1.6080 -0.8478 -0.9849
 3717TIP3   OH232565   1.621   5.963  15.304 -0.3635 -0.5917 -0.0539
 3717TIP3    H132566   1.598   5.919  15.222  0.4039  0.3472 -0.7846
 3717TIP3    H232567   1.540   6.004  15.333 -0.9189 -1.8618  0.2666
 3718TIP3   OH232568   2.562   6.773   4.785  0.3324 -0.3864  0.0991
 3718TIP3    H132569   2.498   6.829   4.741 -0.6332 -1.0587  0.6063
 3718TIP3    H232570   2.565   6.806   4.875  0.3045 -0.6897  0.2122
 3719TIP3   OH232571   0.501   0.662  17.374  0.2905  0.1096  0.0192
 3719TIP3    H132572   0.426   0.634  17.427  0.8389 -1.6098 -0.0623
 3719TIP3    H232573   0.470   0.741  17.329 -1.7001 -0.8951 -0.4949
 3720TIP3   OH232574   0.482   5.430   6.402  0.0421 -1.0438 -0.4036
 3720TIP3    H132575   0.493   5.342   6.364 -0.3547 -0.3265 -2.3058
 3720TIP3    H232576   0.569   5.469   6.397 -0.3958 -0.1954 -2.7121
 3721TIP3   OH232577   4.406   5.727   0.421  0.1064  0.8407  0.4102
 3721TIP3    H132578   4.453   5.727   0.504  0.0838  3.5115  0.5161
 3721TIP3    H232579   4.316   5.704   0.445  0.3343  0.4633  0.9344
 3722TIP3   OH232580   4.888   4.875   3.374  0.1419  0.2908  0.4557
 3722TIP3    H132581   4.843   4.797   3.404  2.1271 -0.9594  0.4180
 3722TIP3    H232582   4.948   4.898   3.445  0.9962  0.5735 -0.3265
 3723TIP3   OH232583   3.455   3.356   6.045  0.0933  0.2351 -0.1911
 3723TIP3    H132584   3.461   3.445   6.010 -0.1769  0.4317  0.2469
 3723TIP3    H232585   3.419   3.368   6.133  3.4628  0.0287  1.3418
 3724TIP3   OH232586   4.568   5.070   2.294  0.5708  0.2454 -0.6862
 3724TIP3    H132587   4.644   5.030   2.336  0.9954  1.0611 -0.6610
 3724TIP3    H232588   4.540   5.137   2.356  0.7797  0.9937 -1.3894
 3725TIP3   OH232589   3.587   6.766  13.869  0.3595 -0.0493  0.3259
 3725TIP3    H132590   3.612   6.707  13.798 -1.1239 -1.2476  0.7397
 3725TIP3    H232591   3.507   6.808  13.838  0.6084  0.6663  0.6339
 3726TIP3   OH232592   1.315   4.123   1.293  0.2100  0.2872 -0.1450
 3726TIP3    H132593   1.381   4.183   1.258  0.1186  1.5296  1.6969
 3726TIP3    H232594   1.252   4.112   1.221  1.5976  0.3000 -1.4007
 3727TIP3   OH232595   1.840   4.981  11.010  0.1039 -0.0103 -0.0631
 3727TIP3    H132596   1.759   4.929  11.010  0.3964 -0.4687  0.1716
 3727TIP3    H232597   1.810   5.072  11.011 -0.4175 -0.1720  1.4813
 3728TIP3   OH232598   1.438   4.928   2.392 -0.2777 -0.1852  0.0575
 3728TIP3    H132599   1.498   4.909   2.465  0.3271  0.1264 -0.3437
 3728TIP3    H232600   1.381   4.852   2.387  0.0446 -0.4617  0.4981
 3729TIP3   OH232601   6.142   0.593  14.464  0.5177 -0.5713 -0.0742
 3729TIP3    H132602   6.197   0.571  14.389  0.1674 -0.2325 -0.4316
 3729TIP3    H232603   6.102   0.510  14.490 -0.5975 -0.4350 -1.2534
 3730TIP3   OH232604   3.289   2.225   2.185  0.4263 -0.2455 -0.9666
 3730TIP3    H132605   3.343   2.160   2.228  1.2252  0.2496 -1.1917
 3730TIP3    H232606   3.351   2.291   2.153 -0.3688  0.7080 -0.6016
 3731TIP3   OH232607   0.723   5.175  14.950  0.0343 -0.3180  0.1219
 3731TIP3    H132608   0.740   5.239  15.018 -0.8562  1.7423 -1.4925
 3731TIP3    H232609   0.809   5.149  14.919  0.4111 -0.0240  0.9071
 3732TIP3   OH232610   4.418   3.730  17.231 -0.0108  0.3243  0.1562
 3732TIP3    H132611   4.369   3.770  17.160 -0.4943  0.9961  0.8493
 3732TIP3    H232612   4.495   3.786  17.243  0.1577  0.1172  0.0507
 3733TIP3   OH232613   0.822   4.038  16.699 -0.0277  1.0052 -0.4679
 3733TIP3    H132614   0.763   4.088  16.642  0.6173  1.0947 -1.0749
 3733TIP3    H232615   0.897   4.097  16.713 -0.5711  1.3281  1.2023
 3734TIP3   OH232616   1.709   0.382  11.218  0.5261  0.2876 -0.1728
 3734TIP3    H132617   1.763   0.313  11.254  1.5534  1.8907  1.5363
 3734TIP3    H232618   1.634   0.336  11.178  0.3867 -1.7274  2.1959
 3735TIP3   OH232619   2.849   3.800   1.104 -0.4516 -0.1872  0.0998
 3735TIP3    H132620   2.848   3.880   1.156 -0.3183 -0.0832 -0.0571
 3735TIP3    H232621   2.790   3.741   1.151  0.7931 -0.6187  1.1689
 3736TIP3   OH232622   3.763   4.952  12.115 -0.0023  0.0005 -0.1196
 3736TIP3    H132623   3.781   5.006  12.038 -2.0957 -0.3343 -0.9156
 3736TIP3    H232624   3.777   4.862  12.085  0.7188 -0.0502  0.3623
 3737TIP3   OH232625   6.565   1.144  11.651  0.0665 -0.3147  0.1474
 3737TIP3    H132626   6.513   1.064  11.659 -0.0304 -0.3701 -0.8587
 3737TIP3    H232627   6.528   1.204  11.716  1.3332 -1.6793  2.2436
 3738TIP3   OH232628   1.981   3.317   6.325 -0.8603 -0.2566 -0.2241
 3738TIP3    H132629   1.925   3.249   6.362 -1.4655  1.0863  1.5066
 3738TIP3    H232630   2.070   3.289   6.346 -1.1145 -0.4346  0.6706
 3739TIP3   OH232631   5.519   2.229   3.469 -0.5766  0.0506  0.2578
 3739TIP3    H132632   5.569   2.290   3.416 -0.8845 -1.4455 -1.8918
 3739TIP3    H232633   5.539   2.254   3.559  1.2426  1.6955 -0.5153
 3740TIP3   OH232634   4.763   4.233   4.089 -0.0738  0.0882  0.3426
 3740TIP3    H132635   4.857   4.254   4.088 -0.1387  0.3808  0.0649
 3740TIP3    H232636   4.722   4.306   4.135 -0.0786 -0.4515  1.2132
 3741TIP3   OH232637   5.807   1.277   5.894  0.2430  0.2699 -0.7783
 3741TIP3    H132638   5.882   1.319   5.852 -0.0895  0.6572 -0.9812
 3741TIP3    H232639   5.822   1.183   5.882  1.2006  0.2976  0.0344
 3742TIP3   OH232640   0.492   1.040  15.567 -0.0314 -0.2388  0.1760
 3742TIP3    H132641   0.463   0.970  15.626  0.5056 -1.4662 -0.9444
 3742TIP3    H232642   0.587   1.028  15.560 -0.0599 -0.0098 -0.7750
 3743TIP3   OH232643   3.812   5.414   0.185 -0.3221  0.4740  0.2518
 3743TIP3    H132644   3.885   5.464   0.148 -0.8365 -0.6973 -2.6372
 3743TIP3    H232645   3.734   5.457   0.151 -0.9548  0.4882  1.6413
 3744TIP3   OH232646   4.969   5.559   2.452 -0.0519 -0.2703 -0.0085
 3744TIP3    H132647   5.009   5.640   2.485  0.1861 -0.1212 -0.6464
 3744TIP3    H232648   4.876   5.568   2.474 -0.4152  1.1278 -1.8221
 3745TIP3   OH232649   3.277   5.711  17.214 -0.2362  0.8057  0.1912
 3745TIP3    H132650   3.231   5.628  17.226 -0.3120  0.6696 -0.8904
 3745TIP3    H232651   3.340   5.693  17.144 -0.2021  1.6361  0.0036
 3746TIP3   OH232652   4.966   0.434   3.231  0.1417 -0.2410 -0.1676
 3746TIP3    H132653   5.040   0.458   3.176  0.6334 -1.0714  0.1084
 3746TIP3    H232654   4.911   0.380   3.174  2.6344 -4.6604  1.0651
 3747TIP3   OH232655   2.848   3.174  15.084 -0.0262  0.7701 -0.0176
 3747TIP3    H132656   2.794   3.138  15.013 -0.5284  0.6647  0.4089
 3747TIP3    H232657   2.924   3.211  15.040  0.2266 -0.3119 -0.5156
 3748TIP3   OH232658   6.481   3.265   6.789 -0.4251  0.1868  0.4221
 3748TIP3    H132659   6.449   3.344   6.747 -0.8504 -0.1462  0.1049
 3748TIP3    H232660   6.542   3.296   6.857  2.7326  0.6565 -2.3748
 3749TIP3   OH232661   0.155   3.898   4.375 -0.6187 -0.3741 -0.7431
 3749TIP3    H132662   0.174   3.804   4.384 -0.4716 -0.6353 -3.0901
 3749TIP3    H232663   0.241   3.940   4.378 -0.6671 -0.3368  0.1127
 3750TIP3   OH232664   3.925   4.912   5.056  0.0273 -0.1979  0.1245
 3750TIP3    H132665   3.869   4.989   5.043 -0.9642 -0.9235 -0.0566
 3750TIP3    H232666   3.877   4.857   5.118 -0.0185 -1.3427 -0.8685
 3751TIP3   OH232667   0.432   3.359   1.310 -0.5006  0.1578  0.6400
 3751TIP3    H132668   0.398   3.442   1.343 -0.7719  0.7064 -0.9047
 3751TIP3    H232669   0.502   3.335   1.370 -0.2510  1.6445  0.9763
 3752TIP3   OH232670   3.023   4.417   1.309 -0.0539  0.9328 -0.1175
 3752TIP3    H132671   2.930   4.436   1.316 -0.0863  0.7395 -0.0286
 3752TIP3    H232672   3.062   4.456   1.387 -0.5458 -2.0805  1.8150
 3753TIP3   OH232673   5.384   3.533   6.002 -0.1041  0.2949  0.0484
 3753TIP3    H132674   5.375   3.480   5.923 -0.4112  0.1777  0.1579
 3753TIP3    H232675   5.294   3.547   6.032  0.0068  0.3301  0.3776
 3754TIP3   OH232676   3.731   6.171  13.720 -0.4233  0.2441 -0.1866
 3754TIP3    H132677   3.668   6.227  13.765  0.0351  0.7083 -0.1186
 3754TIP3    H232678   3.696   6.082  13.731 -0.7884  0.4448  0.2959
 3755TIP3   OH232679   5.587   1.178   0.643 -0.1019 -0.8057  0.3058
 3755TIP3    H132680   5.658   1.116   0.629  1.0360  0.4130  0.5404
 3755TIP3    H232681   5.589   1.197   0.737  0.8402  1.0377 -0.0541
 3756TIP3   OH232682   4.798   4.290  12.874 -0.1322 -0.2600 -0.0824
 3756TIP3    H132683   4.775   4.263  12.785  0.8771 -2.2631  0.1858
 3756TIP3    H232684   4.814   4.384  12.868 -1.8612 -0.0231 -1.6048
 3757TIP3   OH232685   5.468   6.746   2.274  0.6848 -0.2404 -0.3827
 3757TIP3    H132686   5.529   6.715   2.340  0.1689 -1.0036 -0.2561
 3757TIP3    H232687   5.382   6.724   2.308  0.2127  2.0807  0.1246
 3758TIP3   OH232688   0.399   3.507  11.553 -0.5549 -0.1185  0.2751
 3758TIP3    H132689   0.443   3.458  11.484  0.2784  1.3616 -0.2750
 3758TIP3    H232690   0.449   3.487  11.632  1.1669  1.5045 -0.3322
 3759TIP3   OH232691   4.484   4.629   0.343  0.5909  0.0339 -0.8122
 3759TIP3    H132692   4.402   4.604   0.301  0.4314  1.6234 -1.5084
 3759TIP3    H232693   4.470   4.718   0.374  1.7014 -0.0557  0.0314
 3760TIP3   OH232694   3.910   1.485   0.462  0.1070  0.0162  0.4908
 3760TIP3    H132695   3.986   1.526   0.503  0.3411 -0.6180  0.7094
 3760TIP3    H232696   3.892   1.540   0.385  1.6639 -0.5956 -0.3644
 3761TIP3   OH232697   0.532   5.279   3.913  0.0056  0.0511  0.6846
 3761TIP3    H132698   0.570   5.341   3.850 -0.4862  0.5994  0.9269
 3761TIP3    H232699   0.460   5.326   3.953  0.2363 -0.3363  1.5807
 3762TIP3   OH232700   6.372   4.541   1.489  0.2636  0.0402 -0.2729
 3762TIP3    H132701   6.308   4.472   1.470  1.0488 -0.0810 -2.9321
 3762TIP3    H232702   6.456   4.494   1.498  0.3718  0.4150  0.8794
 3763TIP3   OH232703   1.355   0.891   1.214  0.3592 -0.1391  0.0403
 3763TIP3    H132704   1.346   0.797   1.201 -0.6806 -0.0177 -0.2641
 3763TIP3    H232705   1.374   0.901   1.308 -1.1547 -0.5960  0.4261
 3764TIP3   OH232706   5.768   4.039  12.785 -0.5351  0.1926  0.4650
 3764TIP3    H132707   5.683   3.996  12.775 -0.7460  0.0490  2.5744
 3764TIP3    H232708   5.753   4.109  12.848  0.7945  0.5356  0.4408
 3765TIP3   OH232709   0.982   6.015   4.405 -0.0967  0.1947  0.1188
 3765TIP3    H132710   1.046   6.049   4.467 -0.8966  2.1435 -0.0544
 3765TIP3    H232711   1.028   6.017   4.320 -0.1253  0.8158  0.1172
 3766TIP3   OH232712   2.531   0.854  15.376  0.3364  0.0167 -0.4178
 3766TIP3    H132713   2.508   0.817  15.461  0.7428 -0.8188 -0.6529
 3766TIP3    H232714   2.502   0.945  15.380 -1.8096 -0.6162 -0.2293
 3767TIP3   OH232715   2.809   5.419   3.431  0.1921  0.0493  0.3047
 3767TIP3    H132716   2.897   5.424   3.467  0.7257 -1.0100 -0.7817
 3767TIP3    H232717   2.767   5.347   3.477  0.5475 -0.6725 -0.4727
 3768TIP3   OH232718   3.753   6.145  16.911  0.6851  0.5834  0.5295
 3768TIP3    H132719   3.708   6.088  16.974  0.6487 -0.6523 -0.5809
 3768TIP3    H232720   3.759   6.230  16.956 -3.4779  1.1144  0.4796
 3769TIP3   OH232721   5.450   6.278  13.174  0.8486  0.4973 -0.2027
 3769TIP3    H132722   5.414   6.342  13.235  1.6812 -1.5735  2.7228
 3769TIP3    H232723   5.511   6.327  13.120  0.0729  2.4773  0.6445
 3770TIP3   OH232724   0.735   1.538   6.722  0.0752 -0.4292  0.0003
 3770TIP3    H132725   0.767   1.568   6.637  1.1581 -0.0919  0.5123
 3770TIP3    H232726   0.766   1.603   6.785 -1.5492 -0.1411  0.5603
 3771TIP3   OH232727   1.860   1.568  15.027  0.2696 -0.1808  0.1212
 3771TIP3    H132728   1.859   1.538  14.936  0.3213 -0.5129  0.2260
 3771TIP3    H232729   1.799   1.642  15.030  0.9995  0.4481 -0.3859
 3772TIP3   OH232730   1.333   1.874  14.493  0.2865  0.0028  0.7186
 3772TIP3    H132731   1.325   1.792  14.445  0.1339  0.1005  0.5746
 3772TIP3    H232732   1.421   1.871  14.531 -0.3738 -1.0624  2.2828
 3773TIP3   OH232733   1.091   0.350   5.361  0.1037  0.0613  0.4007
 3773TIP3    H132734   1.133   0.265   5.347 -1.6765 -0.6601 -0.9805
 3773TIP3    H232735   1.158   0.414   5.337  1.3571 -0.9442  1.0998
 3774TIP3   OH232736   0.401   0.063  12.234  0.0371 -0.0041 -0.0948
 3774TIP3    H132737   0.456  -0.010  12.261  0.1039 -0.1152 -0.5235
 3774TIP3    H232738   0.391   0.052  12.139  2.0919  1.8881 -0.6187
 3775TIP3   OH232739   4.326   5.700  13.888 -0.3424  0.3224 -0.4126
 3775TIP3    H132740   4.303   5.784  13.926  0.9901 -0.1867  1.6602
 3775TIP3    H232741   4.377   5.722  13.809 -0.3830  1.4464 -0.1359
 3776TIP3   OH232742   1.581   2.337   6.447 -0.0178  0.3211 -0.4243
 3776TIP3    H132743   1.614   2.261   6.400  1.8005 -0.1857  1.5405
 3776TIP3    H232744   1.604   2.411   6.391  1.6552 -0.2938 -0.5916
 3777TIP3   OH232745   3.316   4.568  12.014 -0.1651 -0.3283  0.2008
 3777TIP3    H132746   3.316   4.535  12.104  1.6291 -0.3998  0.2106
 3777TIP3    H232747   3.390   4.525  11.972 -0.5769  0.2071 -1.1310
 3778TIP3   OH232748   5.802   1.082   0.193  0.4006 -0.4315 -0.3324
 3778TIP3    H132749   5.882   1.033   0.174 -0.2442 -1.1825 -1.1861
 3778TIP3    H232750   5.735   1.042   0.138 -0.5298  0.3169  0.2122
 3779TIP3   OH232751   3.848   6.606  16.735 -0.4808  0.5973 -0.0706
 3779TIP3    H132752   3.932   6.564  16.715 -0.5931  0.3582 -0.0376
 3779TIP3    H232753   3.863   6.699  16.714  0.0874  0.7258  0.8282
 3780TIP3   OH232754   3.432   2.036  17.262 -0.8912  0.2306  0.1952
 3780TIP3    H132755   3.441   2.059  17.169 -0.3068  0.8869  0.4022
 3780TIP3    H232756   3.342   2.006  17.271 -0.4837 -1.4742 -0.9208
 3781TIP3   OH232757   2.680   5.878  14.838 -0.5637  0.1732 -0.3278
 3781TIP3    H132758   2.709   5.868  14.928  0.9145 -1.4032 -0.9232
 3781TIP3    H232759   2.612   5.812  14.827  0.0257 -0.3888 -0.6541
 3782TIP3   OH232760   5.052   2.039  11.532 -0.6191 -0.0072 -0.5062
 3782TIP3    H132761   5.067   2.038  11.438  0.8044 -1.0283 -0.3034
 3782TIP3    H232762   5.138   2.059  11.570 -1.3622  1.3645  0.5623
 3783TIP3   OH232763   5.869   3.376   1.876  0.3460  0.0743 -0.0464
 3783TIP3    H132764   5.956   3.383   1.916  0.8705 -0.0519 -1.1441
 3783TIP3    H232765   5.848   3.466   1.850  0.2683  0.0597 -0.0344
 3784TIP3   OH232766   2.679   3.617  16.682 -0.6316  0.9191 -0.3328
 3784TIP3    H132767   2.592   3.656  16.684 -0.3309  1.6508 -0.8908
 3784TIP3    H232768   2.684   3.571  16.598 -0.6142  0.5564 -0.1352
 3785TIP3   OH232769   5.580   0.778   3.993  0.1989  0.6987 -0.3431
 3785TIP3    H132770   5.558   0.704   3.937  0.0635 -0.2870  0.9632
 3785TIP3    H232771   5.504   0.786   4.052  0.9468  0.7720  0.6317
 3786TIP3   OH232772   4.937   3.238  11.853 -0.2039  0.2390  0.1385
 3786TIP3    H132773   4.969   3.297  11.921 -1.8817  1.1206  0.2075
 3786TIP3    H232774   5.011   3.180  11.834  1.0674  1.5486  0.9696
 3787TIP3   OH232775   0.582   4.805   4.004 -0.3556 -0.2320  0.5754
 3787TIP3    H132776   0.548   4.778   4.089  1.2547  1.9207  2.0072
 3787TIP3    H232777   0.538   4.888   3.986  0.8994  0.4320  0.4213
 3788TIP3   OH232778   5.834   4.744   0.093  0.2756  0.1185 -0.4959
 3788TIP3    H132779   5.777   4.820   0.102  0.6623  0.5274 -1.3651
 3788TIP3    H232780   5.909   4.763   0.149 -0.3890 -0.3841  0.5860
 3789TIP3   OH232781   6.771   0.517  15.101  0.0028  0.4759 -0.1365
 3789TIP3    H132782   6.839   0.488  15.162 -0.3372 -0.8521 -0.3640
 3789TIP3    H232783   6.721   0.582  15.150  0.4669  0.3063  0.5761
 3790TIP3   OH232784   0.892   3.686  12.316 -0.8396 -0.3600 -0.0793
 3790TIP3    H132785   0.875   3.597  12.284  0.1837 -0.4291 -0.4808
 3790TIP3    H232786   0.816   3.736  12.289 -0.1807 -0.4740 -2.4364
 3791TIP3   OH232787   0.420   6.428  12.299 -0.0913  0.4787  0.5749
 3791TIP3    H132788   0.485   6.390  12.241 -1.6160 -1.2361 -0.1095
 3791TIP3    H232789   0.349   6.364  12.301 -1.2714  1.7384  2.1981
 3792TIP3   OH232790   2.809   3.643  14.487 -0.3420  0.5614 -0.5034
 3792TIP3    H132791   2.733   3.605  14.530 -0.6640  0.3158 -1.2731
 3792TIP3    H232792   2.799   3.620  14.395  1.3713 -0.6775 -0.4350
 3793TIP3   OH232793   5.611   1.599  13.042  0.1591  0.5810 -0.0793
 3793TIP3    H132794   5.626   1.526  12.982 -3.9453 -1.1202  0.6052
 3793TIP3    H232795   5.565   1.664  12.989  1.9732  1.8865 -0.1580
 3794TIP3   OH232796   5.415   6.260  12.112 -0.0751 -0.2505  0.5551
 3794TIP3    H132797   5.441   6.350  12.132  0.9223 -0.4904  0.4089
 3794TIP3    H232798   5.411   6.257  12.017 -1.5375  0.0072  0.5859
 3795TIP3   OH232799   1.170   6.387  14.794  0.7970  0.3304  0.0344
 3795TIP3    H132800   1.098   6.427  14.845 -0.4927 -0.2382 -1.2653
 3795TIP3    H232801   1.174   6.297  14.825 -0.4408 -0.2126 -1.2343
 3796TIP3   OH232802   1.477   2.876   5.957  0.0419 -0.4985 -0.0390
 3796TIP3    H132803   1.471   2.959   6.004 -0.5971  0.2726 -1.4193
 3796TIP3    H232804   1.562   2.880   5.912 -0.4399 -0.0990 -0.9477
 3797TIP3   OH232805   1.204   4.629  10.737  0.0741 -0.1879  0.1381
 3797TIP3    H132806   1.277   4.627  10.799  0.1377  0.0462  0.0696
 3797TIP3    H232807   1.128   4.602  10.789  0.1746 -0.2573  0.2513
 3798TIP3   OH232808   0.785   5.069   1.425 -0.6610  0.2762  0.1548
 3798TIP3    H132809   0.838   4.989   1.431 -0.7015  0.1514 -0.8343
 3798TIP3    H232810   0.695   5.037   1.414 -0.6132  0.4347 -0.7828
 3799TIP3   OH232811   2.029   5.282  17.299 -0.2021  0.0286 -0.1857
 3799TIP3    H132812   1.986   5.367  17.303 -0.4637  0.1222 -2.9462
 3799TIP3    H232813   1.991   5.232  17.372 -0.7331  1.9238  0.9078
 3800TIP3   OH232814   1.016   2.340   2.755  0.2416 -0.2664  0.2791
 3800TIP3    H132815   0.937   2.332   2.808  1.7831 -1.6711  2.5410
 3800TIP3    H232816   1.024   2.434   2.739 -2.1941 -0.1515 -0.5932
 3801TIP3   OH232817   4.144   5.729  14.506  0.3557  0.3235 -0.3022
 3801TIP3    H132818   4.122   5.706  14.596  1.0830 -2.9020 -0.7981
 3801TIP3    H232819   4.113   5.654  14.454  1.8124  1.1065 -2.4657
 3802TIP3   OH232820   6.598   5.562   1.473  0.4742 -0.3554 -0.0606
 3802TIP3    H132821   6.651   5.641   1.470  0.5209 -0.4215 -1.1728
 3802TIP3    H232822   6.539   5.569   1.398  0.4207 -1.3349 -0.1221
 3803TIP3   OH232823   5.890   5.081   4.767 -0.3226 -0.6558  0.2848
 3803TIP3    H132824   5.915   5.068   4.858 -1.0152  1.3946  0.8135
 3803TIP3    H232825   5.801   5.046   4.761 -0.1555 -1.0951  0.2852
 3804TIP3   OH232826   3.380   4.548   5.166  0.0477  0.6062 -0.1776
 3804TIP3    H132827   3.343   4.583   5.085 -0.0768  1.7716  0.3617
 3804TIP3    H232828   3.395   4.625   5.221  1.2000 -0.0586  0.4787
 3805TIP3   OH232829   3.895   2.486   0.175 -0.0678  0.2833 -0.3586
 3805TIP3    H132830   3.895   2.401   0.132 -2.0457 -0.2819  0.6239
 3805TIP3    H232831   3.880   2.549   0.104  0.1898 -0.2880 -0.9313
 3806TIP3   OH232832   0.571   6.072   1.257 -0.8280  0.1501  0.4207
 3806TIP3    H132833   0.575   5.979   1.231 -0.3905  0.1778  0.3954
 3806TIP3    H232834   0.477   6.087   1.272 -0.9450 -0.2050  0.0903
 3807TIP3   OH232835   5.456   5.640   2.352 -0.0757  0.9575  0.1023
 3807TIP3    H132836   5.510   5.711   2.387  1.6830  0.2014 -0.9396
 3807TIP3    H232837   5.426   5.672   2.267 -0.7240  1.0943  0.3723
 3808TIP3   OH232838   2.021   4.384   3.871 -0.3318  0.2296  0.2833
 3808TIP3    H132839   1.953   4.338   3.822  0.4870 -1.3802  0.6138
 3808TIP3    H232840   1.975   4.459   3.910 -2.0268 -1.0269  0.8387
 3809TIP3   OH232841   3.611   0.605   3.489  0.3384  0.1032 -0.7980
 3809TIP3    H132842   3.635   0.570   3.403  0.6099  0.6335 -0.9445
 3809TIP3    H232843   3.657   0.549   3.552  1.3759  0.6401 -1.0511
 3810TIP3   OH232844   1.604   4.570  14.250  0.4940 -0.3458 -0.9867
 3810TIP3    H132845   1.588   4.538  14.162  1.2316 -1.6762 -0.6551
 3810TIP3    H232846   1.687   4.530  14.276 -0.4217 -1.1496  0.8463
 3811TIP3   OH232847   2.776   0.256  14.241  0.2036 -0.3806 -0.0295
 3811TIP3    H132848   2.815   0.184  14.192  0.9280 -1.3247  1.8549
 3811TIP3    H232849   2.728   0.306  14.175  0.3571 -2.1051 -1.5240
 3812TIP3   OH232850   4.869   4.179  14.695  0.4984 -0.0336 -0.0906
 3812TIP3    H132851   4.876   4.251  14.632 -0.3658  0.0759 -0.0691
 3812TIP3    H232852   4.822   4.111  14.647  0.7565 -0.3485  0.0997
 3813TIP3   OH232853   5.659   6.706  16.892  0.3905  0.1431 -0.6568
 3813TIP3    H132854   5.617   6.679  16.974  0.3988  0.7237 -0.4570
 3813TIP3    H232855   5.739   6.653  16.888 -0.4662 -1.1647 -1.1714
 3814TIP3   OH232856   4.911   5.092  12.358 -0.7120  0.6327  1.2890
 3814TIP3    H132857   4.843   5.084  12.425 -2.7230  2.3498 -0.4272
 3814TIP3    H232858   4.932   5.185  12.356  1.9388  0.1332  1.9030
 3815TIP3   OH232859   3.043   4.439   3.020  0.0408  0.2076  0.2146
 3815TIP3    H132860   2.952   4.441   3.050 -0.7074 -0.8425 -1.8146
 3815TIP3    H232861   3.048   4.510   2.956  1.0457  1.0927  1.2312
 3816TIP3   OH232862   4.146   6.649   5.330  0.1062 -0.2882 -0.3722
 3816TIP3    H132863   4.207   6.577   5.345  1.8484  1.3275  0.9088
 3816TIP3    H232864   4.154   6.704   5.409 -0.3340  1.8558 -1.7219
 3817TIP3   OH232865   5.758   4.111  11.951  0.7311 -0.4085  0.2473
 3817TIP3    H132866   5.719   4.196  11.932  0.9469 -0.0677  1.3016
 3817TIP3    H232867   5.784   4.077  11.865  2.3877  1.4081 -0.0376
 3818TIP3   OH232868   1.489   1.457  16.535 -0.1000  0.1216 -0.6438
 3818TIP3    H132869   1.511   1.410  16.455 -1.8765 -1.2643 -0.3818
 3818TIP3    H232870   1.494   1.549  16.511  1.6261 -0.2021 -1.6955
 3819TIP3   OH232871   1.366   5.356   3.482 -0.1002 -0.0344 -0.9486
 3819TIP3    H132872   1.405   5.443   3.479 -0.2254  0.0586 -0.2021
 3819TIP3    H232873   1.380   5.320   3.394  0.7233  0.3970 -1.0070
 3820TIP3   OH232874   0.559   0.993   5.652 -0.1934 -0.0523  0.0927
 3820TIP3    H132875   0.537   0.901   5.640  1.8924 -0.6864  0.7704
 3820TIP3    H232876   0.642   1.005   5.606 -0.3420  1.4450  0.1574
 3821TIP3   OH232877   1.531   4.732  16.032 -0.2878 -0.1354  0.0903
 3821TIP3    H132878   1.510   4.767  16.118  1.2978 -0.5762  0.6782
 3821TIP3    H232879   1.511   4.639  16.038  0.2093 -0.2411  0.1086
 3822TIP3   OH232880   5.256   3.609   2.516  1.0691 -0.6625 -0.3254
 3822TIP3    H132881   5.181   3.642   2.566  1.2312 -1.1019  0.2271
 3822TIP3    H232882   5.225   3.604   2.426  1.1388  1.3039 -0.5067
 3823TIP3   OH232883   2.594   2.808  13.829  0.4324 -0.2572 -0.0505
 3823TIP3    H132884   2.522   2.763  13.874  1.3987 -0.9089  0.8819
 3823TIP3    H232885   2.666   2.746  13.831  1.5239  0.9753  0.4662
 3824TIP3   OH232886   4.984   5.249   1.520 -0.5638  0.3270  0.1668
 3824TIP3    H132887   5.078   5.258   1.503 -0.9441  0.2555 -2.3044
 3824TIP3    H232888   4.957   5.174   1.466 -2.1251  0.6623  0.4245
 3825TIP3   OH232889   1.220   4.504   4.206  0.0738 -0.2270 -0.1293
 3825TIP3    H132890   1.197   4.515   4.114  1.5826  1.5793 -0.3553
 3825TIP3    H232891   1.313   4.480   4.205  1.2414  3.5495  0.8939
 3826TIP3   OH232892   1.230   1.628  12.920 -0.4036 -0.2767 -0.3271
 3826TIP3    H132893   1.250   1.603  13.010  1.8767 -1.6103 -1.1173
 3826TIP3    H232894   1.173   1.559  12.888 -0.3292 -0.3899 -0.2160
 3827TIP3   OH232895   5.567   6.585   5.304  0.6835  0.6458  0.3800
 3827TIP3    H132896   5.499   6.519   5.317 -0.0001  1.2439 -0.0559
 3827TIP3    H232897   5.629   6.545   5.244  0.2453  0.4137  0.0781
 3828TIP3   OH232898   5.535   5.292  14.764 -0.4738  0.3027  0.8390
 3828TIP3    H132899   5.450   5.260  14.793  0.0675 -1.5712  0.5265
 3828TIP3    H232900   5.517   5.341  14.684 -1.1496 -1.2843 -0.0216
 3829TIP3   OH232901   5.416   2.992  11.874  0.0262  0.1436  0.1228
 3829TIP3    H132902   5.406   3.049  11.798 -0.2681  0.6074  0.5052
 3829TIP3    H232903   5.493   3.028  11.920  0.1127 -0.0434  0.1232
 3830TIP3   OH232904   6.466   1.679  16.578  0.1675 -0.1558  0.2849
 3830TIP3    H132905   6.398   1.618  16.606 -0.0782  0.5971  1.3910
 3830TIP3    H232906   6.455   1.685  16.483 -3.2330  2.1235  0.6444
 3831TIP3   OH232907   3.530   1.176   2.174 -0.2684 -0.4228  0.3292
 3831TIP3    H132908   3.500   1.205   2.260  0.5785  0.7305  0.2520
 3831TIP3    H232909   3.474   1.223   2.112  1.7669  1.9721  0.1760
 3832TIP3   OH232910   1.687   6.592  13.577  0.5602 -0.3291 -0.1225
 3832TIP3    H132911   1.636   6.556  13.505  2.4086 -0.0159 -1.6551
 3832TIP3    H232912   1.652   6.680  13.590 -0.2331 -0.6352 -0.1685
 3833TIP3   OH232913   2.171   1.498   2.214 -0.2672 -0.0622  0.2381
 3833TIP3    H132914   2.249   1.443   2.222  1.2346  1.9876  0.4600
 3833TIP3    H232915   2.132   1.471   2.130  1.8888  0.3028 -0.9598
 3834TIP3   OH232916   4.325   1.350  14.442 -0.5981  0.2015 -0.1741
 3834TIP3    H132917   4.365   1.309  14.519 -0.8763  0.5130  0.1427
 3834TIP3    H232918   4.395   1.354  14.377 -1.0437 -2.6063 -0.9494
 3835TIP3   OH232919   2.317   5.310   1.534 -0.4280 -0.3005  0.3179
 3835TIP3    H132920   2.272   5.226   1.540  0.0815 -0.5764  0.3907
 3835TIP3    H232921   2.407   5.287   1.510 -0.4751  0.2782 -0.4457
 3836TIP3   OH232922   3.486   4.896  13.070 -0.4563  0.3429  0.1062
 3836TIP3    H132923   3.529   4.979  13.051  0.1914  0.1178  0.5825
 3836TIP3    H232924   3.480   4.892  13.165 -1.1115  0.1539  0.0672
 3837TIP3   OH232925   1.800   2.727  13.831 -0.2625 -0.0686  0.3807
 3837TIP3    H132926   1.718   2.729  13.782  0.5751 -0.9883 -1.1542
 3837TIP3    H232927   1.866   2.757  13.769  0.7598 -0.6805  1.1349
 3838TIP3   OH232928   5.886   2.972   1.463 -0.8729  0.0624 -0.4337
 3838TIP3    H132929   5.902   3.066   1.472 -1.8476  0.4500 -2.2962
 3838TIP3    H232930   5.790   2.965   1.457 -0.9464 -1.2535  1.4315
 3839TIP3   OH232931   1.675   4.091  12.478 -0.2204  0.1032 -0.4525
 3839TIP3    H132932   1.581   4.076  12.492 -0.0980  0.4281  0.8145
 3839TIP3    H232933   1.684   4.186  12.473  0.0810  0.0830 -0.2903
 3840TIP3   OH232934   0.489   0.313  12.888 -0.4555  0.3136  0.2083
 3840TIP3    H132935   0.574   0.356  12.874  0.0154 -0.5991  0.1920
 3840TIP3    H232936   0.501   0.225  12.852 -0.9951 -0.2508  1.3778
 3841TIP3   OH232937   6.535   5.987   4.689  0.0928 -0.2318 -0.2957
 3841TIP3    H132938   6.562   6.051   4.623  1.6921 -1.4853 -0.9141
 3841TIP3    H232939   6.611   5.976   4.746 -0.0222 -1.7516 -0.3741
 3842TIP3   OH232940   5.660   1.984  15.951  0.4652  0.3774 -0.5097
 3842TIP3    H132941   5.641   1.989  16.044  0.6450 -1.4223 -0.3364
 3842TIP3    H232942   5.745   2.025  15.940  0.7571 -0.0266  0.2339
 3843TIP3   OH232943   6.470   2.427   2.324  0.3660  0.5264 -0.1443
 3843TIP3    H132944   6.390   2.375   2.314  0.4509  0.5463 -0.9532
 3843TIP3    H232945   6.502   2.440   2.235  0.3779  1.9124  0.0414
 3844TIP3   OH232946   2.166   2.645   1.580 -0.1170 -0.0492 -0.8373
 3844TIP3    H132947   2.153   2.677   1.490  0.9447  0.3070 -0.8807
 3844TIP3    H232948   2.260   2.626   1.585 -0.1856 -0.1643  0.1689
 3845TIP3   OH232949   6.755   2.732   4.683 -0.0203  0.0868  0.1507
 3845TIP3    H132950   6.685   2.669   4.671 -0.6164  0.7084  0.2955
 3845TIP3    H232951   6.732   2.779   4.763  0.2770  0.6493 -0.0822
 3846TIP3   OH232952   0.791   4.268   1.185  0.2356  0.3017  0.9892
 3846TIP3    H132953   0.806   4.177   1.207  1.4244  0.1640 -0.2766
 3846TIP3    H232954   0.871   4.296   1.139 -1.2942  1.0633 -1.4245
 3847TIP3   OH232955   3.720   0.636  11.559 -0.0459  0.1339  0.3590
 3847TIP3    H132956   3.656   0.618  11.490 -1.9781 -1.4270  2.4079
 3847TIP3    H232957   3.787   0.568  11.548 -0.3835 -0.1512  0.0438
 3848TIP3   OH232958   0.106   2.064  14.366 -0.2406  0.0528  0.2682
 3848TIP3    H132959   0.124   1.980  14.408 -1.9333 -0.1836  0.6158
 3848TIP3    H232960   0.063   2.115  14.435  1.7993  1.6682  0.4293
 3849TIP3   OH232961   3.033   3.528   1.861  0.5283  0.0529  0.2146
 3849TIP3    H132962   3.104   3.475   1.825 -0.0327 -0.1890 -0.5503
 3849TIP3    H232963   2.954   3.475   1.848 -0.0521  1.0772 -0.6097
 3850TIP3   OH232964   6.131   2.911  14.474 -0.0643  0.5139  0.5041
 3850TIP3    H132965   6.089   2.848  14.533 -1.0719  0.4489 -0.2696
 3850TIP3    H232966   6.208   2.941  14.523  0.5072 -1.3751  0.8755
 3851TIP3   OH232967   3.210   2.348   0.378 -0.3652 -0.2252 -0.4297
 3851TIP3    H132968   3.267   2.273   0.392 -0.7919 -0.3087  1.0535
 3851TIP3    H232969   3.254   2.420   0.422  0.1128  0.4678 -1.9640
 3852TIP3   OH232970   2.437   4.203  16.182  0.2230  0.2422 -0.2467
 3852TIP3    H132971   2.502   4.244  16.240  0.2881  0.9901 -0.8349
 3852TIP3    H232972   2.360   4.258  16.190  0.3218  0.5094 -1.0674
 3853TIP3   OH232973   3.219   4.230  11.855  0.0719  0.3124  0.3020
 3853TIP3    H132974   3.173   4.249  11.937  0.6510  1.8854  0.3005
 3853TIP3    H232975   3.175   4.285  11.790  0.7289  0.4009 -0.0773
 3854TIP3   OH232976   0.148   6.080   4.493  0.1778 -0.1425 -0.4188
 3854TIP3    H132977   0.092   6.007   4.520  0.0243  0.4545  0.9569
 3854TIP3    H232978   0.093   6.157   4.505  0.9072  0.3466 -0.1744
 3855TIP3   OH232979   1.279   6.491  12.106 -0.2486  0.4333 -0.0243
 3855TIP3    H132980   1.301   6.550  12.033 -0.5397 -0.6677 -1.0472
 3855TIP3    H232981   1.313   6.406  12.078 -2.9265 -0.6620 -0.2328
 3856TIP3   OH232982   3.068   5.858  13.434 -0.4438  0.6470  0.2784
 3856TIP3    H132983   3.064   5.817  13.348 -1.2059 -1.0865  1.0780
 3856TIP3    H232984   2.990   5.913  13.438 -0.3423  0.8256 -0.1726
 3857TIP3   OH232985   4.919   2.413   1.008 -0.1027 -0.0290  0.0631
 3857TIP3    H132986   4.903   2.503   1.037  0.2254 -0.3140  1.1423
 3857TIP3    H232987   5.014   2.409   0.994 -0.1512 -0.1380 -0.2607
 3858TIP3   OH232988   5.757   2.280  14.323 -0.7700  0.0835  0.0833
 3858TIP3    H132989   5.687   2.344  14.312 -0.3382  0.6260  0.4465
 3858TIP3    H232990   5.833   2.319  14.279 -0.1056  0.4982  1.5490
 3859TIP3   OH232991   5.102   4.613   2.340 -0.2162  0.2729 -0.6482
 3859TIP3    H132992   5.095   4.664   2.420  1.5573 -1.8759  0.9787
 3859TIP3    H232993   5.012   4.585   2.322 -1.2725  3.7229 -1.6086
 3860TIP3   OH232994   4.991   3.468   2.709 -0.2476 -0.3262  0.4618
 3860TIP3    H132995   5.032   3.441   2.627 -1.9768 -0.0679 -0.5515
 3860TIP3    H232996   4.997   3.564   2.708  0.0931 -0.3407  0.8502
 3861TIP3   OH232997   2.115   4.965   0.194  0.4206  0.0144 -0.0445
 3861TIP3    H132998   2.162   4.882   0.198 -0.1395 -0.6479 -3.6848
 3861TIP3    H232999   2.173   5.024   0.145 -1.3674 -0.0590 -2.4357
 3862TIP3   OH233000   4.142   3.612  12.819  0.1403 -0.2455 -0.0088
 3862TIP3    H133001   4.133   3.519  12.798  0.7094  0.0941 -2.0232
 3862TIP3    H233002   4.102   3.621  12.906 -1.0478 -2.1356 -0.2860
 3863TIP3   OH233003   4.518   3.931   2.263 -0.2441 -0.2801  0.3855
 3863TIP3    H133004   4.556   3.994   2.202 -0.9332  0.8197  1.0644
 3863TIP3    H233005   4.423   3.938   2.248 -0.6797  1.8990  3.2694
 3864TIP3   OH233006   3.559   4.178   0.421 -0.7403 -0.1155  0.9205
 3864TIP3    H133007   3.582   4.238   0.351 -1.8435 -0.2582  0.4184
 3864TIP3    H233008   3.577   4.227   0.502 -2.0464  1.0948  0.5242
 3865TIP3   OH233009   3.919   5.599  16.264  0.2625  0.6221  0.3050
 3865TIP3    H133010   3.861   5.536  16.308  0.7120  0.3718  0.5488
 3865TIP3    H233011   3.943   5.557  16.182 -0.3219  0.9530 -0.0379
 3866TIP3   OH233012   6.100   4.608   6.054  0.2762 -0.2072  0.2925
 3866TIP3    H133013   6.046   4.651   6.121 -2.6749 -1.1093 -1.3265
 3866TIP3    H233014   6.150   4.543   6.103 -1.3251 -0.4202  1.7556
 3867TIP3   OH233015   4.706   3.457  11.078  0.1643  0.3069 -0.1762
 3867TIP3    H133016   4.656   3.407  11.014  1.5688  0.0003 -1.0635
 3867TIP3    H233017   4.676   3.547  11.067 -2.1847 -0.2171  1.2474
 3868TIP3   OH233018   5.110   3.444   5.793 -0.2087 -0.7694 -0.1859
 3868TIP3    H133019   5.109   3.455   5.889  0.4668 -0.3442 -0.2224
 3868TIP3    H233020   5.054   3.514   5.760  1.1355  0.3258 -0.2054
 3869TIP3   OH233021   4.511   0.377   4.064  0.5427 -0.2582 -0.4890
 3869TIP3    H133022   4.550   0.464   4.059 -0.7579  0.4524  0.9844
 3869TIP3    H233023   4.434   0.381   4.006  1.0600 -0.7855 -1.2371
 3870TIP3   OH233024   3.126   1.409  13.613 -0.3705  0.2379 -0.4751
 3870TIP3    H133025   3.108   1.500  13.591 -0.1422  0.5859  0.7124
 3870TIP3    H233026   3.220   1.408  13.634 -0.5002 -0.1393  0.1068
 3871TIP3   OH233027   1.698   6.027  13.952  0.2498  0.0429  0.0183
 3871TIP3    H133028   1.624   6.068  13.998 -1.6917 -2.8978 -0.1895
 3871TIP3    H233029   1.699   6.070  13.866 -0.1653  1.2240  0.5763
 3872TIP3   OH233030   6.504   3.230  11.367  0.2077 -0.6776  0.0550
 3872TIP3    H133031   6.487   3.163  11.433 -0.1301 -0.6867 -0.0393
 3872TIP3    H233032   6.446   3.303  11.392 -1.0703 -1.2551 -1.1031
 3873TIP3   OH233033   4.478   3.427  11.303 -0.1457  0.1975  0.3972
 3873TIP3    H133034   4.470   3.477  11.384  2.7254 -0.1033  0.9634
 3873TIP3    H233035   4.529   3.484  11.245  1.6992 -1.3290  0.4465
 3874TIP3   OH233036   2.961   2.732   1.159  0.5736  0.2121  0.0455
 3874TIP3    H133037   2.925   2.661   1.212 -1.2867  0.4662 -0.7675
 3874TIP3    H233038   2.907   2.808   1.181 -1.1343  0.0493 -2.9823
 3875TIP3   OH233039   1.236   3.348   5.911  0.1549  0.3028  0.4232
 3875TIP3    H133040   1.254   3.270   5.964  1.1598  0.3358  0.1580
 3875TIP3    H233041   1.180   3.317   5.840  1.6899 -0.5123 -0.4866
 3876TIP3   OH233042   6.073   4.495   0.497  0.1723 -0.0420  0.7524
 3876TIP3    H133043   6.010   4.460   0.560 -0.1545 -0.2919  0.2983
 3876TIP3    H233044   6.130   4.551   0.548 -2.0605  2.4172  0.7869
 3877TIP3   OH233045   0.997   4.245  16.698 -0.0369 -0.1464 -0.6054
 3877TIP3    H133046   1.031   4.255  16.609 -1.7894  0.6363 -1.2368
 3877TIP3    H233047   1.074   4.252  16.754  1.1819 -1.1806 -2.0700
 3878TIP3   OH233048   3.826   3.281   1.712 -0.1698 -0.6871 -0.4782
 3878TIP3    H133049   3.839   3.250   1.622  0.2450 -0.2298 -0.5761
 3878TIP3    H233050   3.911   3.270   1.753 -0.2223 -0.3933 -0.2920
 3879TIP3   OH233051   1.317   4.837   0.590  0.7582 -0.0353 -0.2072
 3879TIP3    H133052   1.309   4.742   0.579  1.0632 -0.0405 -0.3846
 3879TIP3    H233053   1.344   4.868   0.503 -1.6121  0.4713 -0.8420
 3880TIP3   OH233054   1.442   1.168   5.309 -0.1378  0.7886 -0.5003
 3880TIP3    H133055   1.423   1.244   5.253 -1.5130  0.8117 -0.0534
 3880TIP3    H233056   1.515   1.197   5.364 -1.4667  2.3154  0.5616
 3881TIP3   OH233057   6.271   3.279  15.265 -0.2122  0.1958  0.7693
 3881TIP3    H133058   6.267   3.270  15.170 -1.2878 -1.2191  0.9268
 3881TIP3    H233059   6.283   3.190  15.298  3.2752  0.8890  1.8852
 3882TIP3   OH233060   4.871   6.744   0.380 -0.4437  0.2129  0.0054
 3882TIP3    H133061   4.925   6.695   0.318  2.1112  2.6234  0.1690
 3882TIP3    H233062   4.876   6.694   0.461 -1.3910 -1.3904 -0.8522
 3883TIP3   OH233063   1.478   2.755  13.425  0.7991  0.3063  0.1269
 3883TIP3    H133064   1.477   2.663  13.397  0.9462  0.4652 -0.4145
 3883TIP3    H233065   1.566   2.785  13.403  0.8630  0.4812  0.6237
 3884TIP3   OH233066   0.180   0.039   0.286 -0.0617  0.1612  0.5534
 3884TIP3    H133067   0.200   0.046   0.379  0.7327  0.0260  0.4055
 3884TIP3    H233068   0.158  -0.054   0.273  1.4935 -0.2144  0.3243
 3885TIP3   OH233069   4.814   4.227  10.483  0.0457  0.0387 -0.1882
 3885TIP3    H133070   4.825   4.149  10.428  0.8853  0.7282 -1.0264
 3885TIP3    H233071   4.832   4.196  10.572 -0.4370 -0.9001 -0.4028
 3886TIP3   OH233072   0.001   2.839  16.363 -0.3438 -0.2233 -0.2984
 3886TIP3    H133073   0.087   2.878  16.376  0.2159 -1.6483  0.5906
 3886TIP3    H233074  -0.057   2.889  16.420  0.5583 -1.2678  1.6696
 3887TIP3   OH233075   5.195   2.959   2.456  0.3335  0.2940  0.1392
 3887TIP3    H133076   5.270   2.943   2.398 -0.4604 -3.0337 -0.1997
 3887TIP3    H233077   5.220   2.918   2.539 -0.2732  1.1236  0.7444
 3888TIP3   OH233078   6.111   3.804   1.443  0.1172 -0.1045 -0.2138
 3888TIP3    H133079   6.051   3.801   1.517  1.1465 -0.5099  0.6241
 3888TIP3    H233080   6.197   3.813   1.482  0.7348 -0.8991 -1.3359
 3889TIP3   OH233081   0.760   0.222   1.163 -0.5966  0.1682 -0.0588
 3889TIP3    H133082   0.855   0.224   1.172 -0.3209 -3.3205 -0.6944
 3889TIP3    H233083   0.728   0.283   1.230  2.0470 -0.3888  1.8847
 3890TIP3   OH233084   0.646   5.752  12.773  0.4204  0.5329  0.2322
 3890TIP3    H133085   0.569   5.807  12.784 -0.0643  0.0632 -0.7322
 3890TIP3    H233086   0.690   5.785  12.695  0.7104  0.2361  0.2625
 3891TIP3   OH233087   5.729   3.708   2.303 -0.6824 -0.3709  0.1607
 3891TIP3    H133088   5.654   3.651   2.317  1.1818 -2.9713  0.2999
 3891TIP3    H233089   5.753   3.737   2.391 -2.6222  2.1824 -0.0289
 3892TIP3   OH233090   0.722   6.665  11.681  0.3841  0.1268 -0.2942
 3892TIP3    H133091   0.762   6.580  11.662  0.4605 -0.1538  1.0077
 3892TIP3    H233092   0.785   6.708  11.739 -1.1728 -0.3389  1.8225
 3893TIP3   OH233093   1.383   3.645   5.092  0.0487  0.1547 -0.0654
 3893TIP3    H133094   1.344   3.726   5.124  0.5860  0.8889 -1.2410
 3893TIP3    H233095   1.398   3.660   4.999  1.4926 -0.7564 -0.0110
 3894TIP3   OH233096   3.089   2.306   0.150 -0.0838 -0.2076  0.1371
 3894TIP3    H133097   3.150   2.333   0.219 -0.1771 -0.7262  0.4305
 3894TIP3    H233098   3.016   2.368   0.157  0.5027  0.5709 -0.3774
 3895TIP3   OH233099   0.918   0.518   0.194 -0.1548  0.9122  0.5375
 3895TIP3    H133100   0.952   0.568   0.120 -1.8476  0.2901 -0.7214
 3895TIP3    H233101   0.829   0.549   0.206 -0.7673 -0.7447  0.6473
 3896TIP3   OH233102   3.473   1.003   4.483 -0.3147  0.2088 -0.4624
 3896TIP3    H133103   3.461   0.970   4.572  1.3561  2.2602  0.6110
 3896TIP3    H233104   3.455   0.927   4.427  1.6423 -2.0757  1.7313
 3897TIP3   OH233105   4.255   2.643  10.682 -0.3590  0.2164  0.4558
 3897TIP3    H133106   4.172   2.689  10.699 -1.1204 -0.9165 -0.0614
 3897TIP3    H233107   4.322   2.710  10.694 -1.4211  1.4482 -0.1745
 3898TIP3   OH233108   2.220   4.521   3.547  0.3003 -0.3907 -0.9583
 3898TIP3    H133109   2.184   4.466   3.478  0.5499 -1.4361 -0.2865
 3898TIP3    H233110   2.150   4.584   3.566 -0.5359 -1.3093 -0.8465
 3899TIP3   OH233111   0.399   0.864  12.206 -0.4292  0.1322  0.1795
 3899TIP3    H133112   0.358   0.827  12.128 -0.2916  0.9349 -0.2851
 3899TIP3    H233113   0.474   0.913  12.172 -2.0203  2.9438  0.4894
 3900TIP3   OH233114   2.230   4.483  16.256 -0.3278 -0.2123 -0.1653
 3900TIP3    H133115   2.207   4.492  16.348  0.6154 -0.7649  0.1340
 3900TIP3    H233116   2.173   4.414  16.223 -1.1035  0.4102 -0.1661
 3901TIP3   OH233117   5.470   4.779  12.892 -0.2179  0.7002 -0.2482
 3901TIP3    H133118   5.508   4.715  12.953  1.0045  1.5599 -0.0682
 3901TIP3    H233119   5.484   4.739  12.806  1.2897  1.0588 -0.1989
 3902TIP3   OH233120   0.055   4.776  13.049  0.2762 -0.5647 -0.6109
 3902TIP3    H133121   0.079   4.772  12.956 -0.8367  1.1632 -1.0189
 3902TIP3    H233122   0.076   4.689  13.083  1.8244 -0.8634 -2.1880
 3903TIP3   OH233123   3.318   0.306   2.755 -0.3676 -0.2696  0.2321
 3903TIP3    H133124   3.404   0.347   2.748 -1.0476  0.9380 -2.4377
 3903TIP3    H233125   3.337   0.217   2.784  2.0404 -0.6214 -1.9696
 3904TIP3   OH233126   5.132   1.645  11.229 -0.4349  0.3256  0.3088
 3904TIP3    H133127   5.058   1.595  11.264 -0.9042 -0.3804 -1.5379
 3904TIP3    H233128   5.155   1.599  11.148  1.9329  0.6351  0.7250
 3905TIP3   OH233129   2.264   3.651  16.973  0.3519 -0.7266 -0.5093
 3905TIP3    H133130   2.293   3.561  16.991  1.5983 -0.1351  0.7377
 3905TIP3    H233131   2.224   3.679  17.055 -1.7523 -0.7245 -1.4843
 3906TIP3   OH233132   4.919   0.882  12.098  0.0063  0.6498 -0.3831
 3906TIP3    H133133   5.001   0.838  12.122  0.5846  1.3882 -0.9585
 3906TIP3    H233134   4.900   0.850  12.010 -0.1666  0.7018 -0.3646
 3907TIP3   OH233135   3.305   5.575  11.519 -0.2781  0.2807  0.3852
 3907TIP3    H133136   3.283   5.488  11.551 -0.5134  0.3526  0.4247
 3907TIP3    H233137   3.275   5.576  11.428 -1.9233  0.8949  0.8860
 3908TIP3   OH233138   0.330   5.034   0.518  0.1054 -0.3632 -0.1644
 3908TIP3    H133139   0.380   5.099   0.568 -0.4370  1.1498 -1.5081
 3908TIP3    H233140   0.328   5.068   0.429 -0.7409 -1.9283 -0.7847
 3909TIP3   OH233141   4.239   4.832  12.422 -0.0561  0.0859 -0.0294
 3909TIP3    H133142   4.229   4.781  12.342 -0.2237  0.3940 -0.2100
 3909TIP3    H233143   4.332   4.854  12.425 -0.1349  0.5103 -0.4215
 3910TIP3   OH233144   3.022   5.258  11.982  0.3464  0.3554 -0.1482
 3910TIP3    H133145   2.935   5.292  11.965 -0.0709  0.0072  1.1222
 3910TIP3    H233146   3.021   5.170  11.944 -0.5288 -0.3725  1.4318
 3911TIP3   OH233147   6.528   0.503   5.191 -0.2112 -0.2583 -0.1889
 3911TIP3    H133148   6.493   0.579   5.238  0.5495 -0.9786  1.6418
 3911TIP3    H233149   6.565   0.540   5.111 -0.4851  1.2150  0.3196
 3912TIP3   OH233150   0.036   2.179   2.438 -0.1001  0.2938 -0.4762
 3912TIP3    H133151  -0.022   2.112   2.474  0.8908 -0.8203 -0.8780
 3912TIP3    H233152   0.102   2.192   2.505  0.6654 -0.3828 -1.0844
 3913TIP3   OH233153   4.385   2.735   3.202  0.2482 -0.7462 -0.2318
 3913TIP3    H133154   4.460   2.676   3.207  0.0537 -0.9397  0.5969
 3913TIP3    H233155   4.378   2.774   3.289  1.4048  1.8658 -1.2133
 3914TIP3   OH233156   2.223   0.430  10.299  0.6656  0.3950 -0.0012
 3914TIP3    H133157   2.240   0.523  10.284 -0.6017  0.8991  1.3844
 3914TIP3    H233158   2.133   0.427  10.333  0.6831 -1.3369 -0.0109
 3915TIP3   OH233159   3.580   3.974   6.018  0.2648 -0.1987  0.0196
 3915TIP3    H133160   3.562   4.068   6.017  1.5915  0.2115  3.2635
 3915TIP3    H233161   3.497   3.934   6.042 -0.1562  0.1603 -0.7849
 3916TIP3   OH233162   4.988   6.685   3.050  0.8689 -0.0092  0.0917
 3916TIP3    H133163   4.918   6.633   3.090 -1.0605  1.7542 -0.7843
 3916TIP3    H233164   4.986   6.768   3.097 -0.0070  1.3277 -2.1557
 3917TIP3   OH233165   4.263   6.749  14.957 -0.5332  0.2228  0.2038
 3917TIP3    H133166   4.236   6.738  15.048  1.4007 -0.2478  0.7664
 3917TIP3    H233167   4.209   6.686  14.908 -1.1088 -0.0111  1.1206
 3918TIP3   OH233168   1.952   2.273  15.776 -0.2328 -0.4178  0.0456
 3918TIP3    H133169   1.986   2.204  15.718  0.5074 -0.6061  0.6723
 3918TIP3    H233170   1.913   2.337  15.717  0.1694 -0.7840 -0.6363
 3919TIP3   OH233171   1.494   4.729  11.952  0.1396  0.1058 -0.5546
 3919TIP3    H133172   1.456   4.807  11.910 -0.3764  1.4013  2.0808
 3919TIP3    H233173   1.420   4.688  11.997  0.7290 -0.9934 -0.5568
 3920TIP3   OH233174   0.260   0.102   3.465  0.7296 -0.3506  0.5811
 3920TIP3    H133175   0.214   0.025   3.430 -0.0389 -0.5962  2.0288
 3920TIP3    H233176   0.349   0.071   3.480  0.6050 -0.7599  0.5094
 3921TIP3   OH233177   2.808   3.345   4.387  0.5610  0.3562  0.8091
 3921TIP3    H133178   2.714   3.363   4.378  0.6694 -0.2142 -4.5205
 3921TIP3    H233179   2.812   3.262   4.435 -1.3446  1.5481  3.2843
 3922TIP3   OH233180   0.228   1.648  17.220  0.0640 -0.0935 -0.1506
 3922TIP3    H133181   0.235   1.734  17.263  0.2747 -0.9556  1.6048
 3922TIP3    H233182   0.290   1.653  17.147  1.2807  0.7038  0.8904
 3923TIP3   OH233183   0.535   3.479   3.466  0.2619 -0.1596  1.0831
 3923TIP3    H133184   0.614   3.508   3.513 -0.2060 -1.0098  2.4509
 3923TIP3    H233185   0.542   3.521   3.380  4.0561 -2.9318 -0.2687
 3924TIP3   OH233186   0.791   4.160  15.180 -0.3020  0.4313  0.5131
 3924TIP3    H133187   0.731   4.085  15.173  2.0788 -1.8223  2.4550
 3924TIP3    H233188   0.743   4.224  15.232 -1.6489 -0.5962  0.5934
 3925TIP3   OH233189   2.821   0.927   4.748  0.3917 -0.0410  0.0670
 3925TIP3    H133190   2.772   0.858   4.793 -0.6470  1.1934  0.8837
 3925TIP3    H233191   2.757   0.997   4.734  1.1911  0.4013 -1.5847
 3926TIP3   OH233192   3.082   0.627  12.543 -0.1164 -0.0545 -0.1800
 3926TIP3    H133193   3.076   0.640  12.449  0.2530  0.6628 -0.1158
 3926TIP3    H233194   2.992   0.639  12.575 -0.4393 -1.3327 -0.5414
 3927TIP3   OH233195   5.359   0.607   2.785 -0.2050  0.4370  0.4890
 3927TIP3    H133196   5.308   0.609   2.704  1.9213 -0.9880 -0.9808
 3927TIP3    H233197   5.354   0.696   2.819 -1.5832  0.9281 -0.8949
 3928TIP3   OH233198   4.843   1.343   5.631 -0.7138  0.0030  0.5169
 3928TIP3    H133199   4.791   1.296   5.566  0.1164 -1.3537  0.7938
 3928TIP3    H233200   4.913   1.384   5.580  0.2240 -1.4672  0.5720
 3929TIP3   OH233201   2.548   3.785   2.524  0.5614 -0.5668 -0.1788
 3929TIP3    H133202   2.584   3.858   2.474 -1.4974  0.7895  0.1692
 3929TIP3    H233203   2.535   3.821   2.612 -1.2397 -1.0468 -0.2060
 3930TIP3   OH233204   2.274   1.832  15.015  0.0344  0.1065  0.4021
 3930TIP3    H133205   2.255   1.738  15.006 -0.1070 -0.0094  1.7542
 3930TIP3    H233206   2.326   1.853  14.938  0.4197 -1.1767  0.2875
 3931TIP3   OH233207   6.506   1.954   5.931 -0.7538 -0.1514 -0.6042
 3931TIP3    H133208   6.435   1.890   5.943 -1.8328  0.9824 -0.7988
 3931TIP3    H233209   6.514   1.997   6.016  2.5376 -3.0004  0.7513
 3932TIP3   OH233210   3.698   0.648   0.750  0.1499  0.2065 -0.2697
 3932TIP3    H133211   3.716   0.669   0.842 -1.6282  0.0080  0.1784
 3932TIP3    H233212   3.769   0.590   0.723  1.7578  1.8063  0.3679
 3933TIP3   OH233213   1.982   2.528   5.594  0.2133  0.0903 -0.2541
 3933TIP3    H133214   2.044   2.537   5.522  1.2727  1.0265  0.7246
 3933TIP3    H233215   1.918   2.597   5.579  0.1231 -0.0672 -0.5915
 3934TIP3   OH233216   3.870   0.334   4.171 -0.0948 -0.2101 -0.5517
 3934TIP3    H133217   3.945   0.280   4.146  1.5512  1.6967  0.0359
 3934TIP3    H233218   3.867   0.326   4.267 -3.0516 -3.2133 -0.6956
 3935TIP3   OH233219   5.337   0.120  11.706  0.0910 -0.2367  0.0261
 3935TIP3    H133220   5.402   0.057  11.738  0.1772 -0.5882 -0.8098
 3935TIP3    H233221   5.323   0.095  11.615 -2.7207 -1.4425  0.6786
 3936TIP3   OH233222   3.179   6.000   0.460  0.1733  0.1433 -0.2118
 3936TIP3    H133223   3.209   6.090   0.478 -1.6551  1.1745 -1.9199
 3936TIP3    H233224   3.091   5.996   0.497  0.1316 -0.8493 -0.3978
 3937TIP3   OH233225   2.789   4.401  13.795  0.2709 -0.3789  0.2839
 3937TIP3    H133226   2.737   4.323  13.809 -1.0753  0.3921 -0.2307
 3937TIP3    H233227   2.861   4.372  13.739 -2.3923 -0.5610 -3.4206
 3938TIP3   OH233228   2.361   3.186   3.176 -0.3452  0.6926  0.4555
 3938TIP3    H133229   2.370   3.162   3.268 -2.0146 -0.5331  0.3559
 3938TIP3    H233230   2.444   3.160   3.135  0.4920  1.4457  1.6164
 3939TIP3   OH233231   4.052   0.564   4.397  0.3116  0.2690  0.3033
 3939TIP3    H133232   4.065   0.649   4.439  0.0574  0.5346 -0.1553
 3939TIP3    H233233   4.043   0.502   4.470  0.8744  0.5738  0.6358
 3940TIP3   OH233234   2.820   1.364  16.440 -0.5866 -0.0856 -0.2900
 3940TIP3    H133235   2.736   1.349  16.398 -0.8231 -1.3724  0.5978
 3940TIP3    H233236   2.800   1.379  16.532 -0.0403  2.3419 -0.4889
 3941TIP3   OH233237   2.891   3.766   1.919  0.7782  0.4704  0.0557
 3941TIP3    H133238   2.933   3.680   1.914  1.5892  0.8005  0.8521
 3941TIP3    H233239   2.934   3.818   1.851 -0.7371 -0.1408 -1.4396
 3942TIP3   OH233240   2.279   2.525   0.229 -0.6839  0.2709  0.3959
 3942TIP3    H133241   2.250   2.584   0.299 -0.4186 -0.3812  1.0752
 3942TIP3    H233242   2.225   2.447   0.241  0.3687 -0.4135  0.8035
 3943TIP3   OH233243   3.496   1.679   2.405  0.6304  0.4399  0.1849
 3943TIP3    H133244   3.571   1.655   2.350  0.2298  0.2322 -0.2779
 3943TIP3    H233245   3.422   1.632   2.366  0.4782 -0.3578  1.3911
 3944TIP3   OH233246   0.032   2.491   6.404  0.6163  0.2937  0.4505
 3944TIP3    H133247   0.016   2.397   6.402  1.0858  0.2300 -1.0493
 3944TIP3    H233248  -0.051   2.529   6.433  0.2097 -0.5277  0.3772
 3945TIP3   OH233249   5.008   0.953  15.142  0.2861  0.6553 -0.1067
 3945TIP3    H133250   5.068   0.884  15.112  1.3072  1.5971 -0.3167
 3945TIP3    H233251   5.057   0.998  15.211  0.1707  1.9778 -0.8714
 3946TIP3   OH233252   6.125   1.980  15.521 -0.1758  0.9355  0.1704
 3946TIP3    H133253   6.059   2.045  15.547  0.4638  1.0556  1.5887
 3946TIP3    H233254   6.153   1.940  15.603 -0.4098 -1.0265 -0.6564
 3947TIP3   OH233255   0.100   2.038  13.901 -0.0901  0.5990  0.5811
 3947TIP3    H133256   0.151   2.040  13.982 -0.5628  2.0760  0.8687
 3947TIP3    H233257   0.072   2.129  13.887 -2.9135 -0.1686  0.6004
 3948TIP3   OH233258   5.434   4.957  16.245 -0.4648  0.1318  0.2788
 3948TIP3    H133259   5.516   4.977  16.200 -0.7741 -0.7791 -0.7456
 3948TIP3    H233260   5.460   4.930  16.333  0.2186  1.1712  0.4111
 3949TIP3   OH233261   6.492   6.159   5.756 -0.5796  0.8742 -0.0549
 3949TIP3    H133262   6.485   6.141   5.849  0.6979  0.1591 -0.0695
 3949TIP3    H233263   6.403   6.146   5.722 -0.6507 -1.0974  0.7201
 3950TIP3   OH233264   4.569   4.150  16.342 -0.8110  0.8262  0.9364
 3950TIP3    H133265   4.627   4.074  16.337  0.0902  1.4659  1.3391
 3950TIP3    H233266   4.522   4.151  16.258  1.6786  1.7717 -0.5506
 3951TIP3   OH233267   5.232   2.619   3.454  0.2353  0.0004 -0.2411
 3951TIP3    H133268   5.153   2.670   3.436 -0.5833 -1.4242 -0.9137
 3951TIP3    H233269   5.271   2.604   3.368  0.9574  0.2471  0.0389
 3952TIP3   OH233270   5.179   1.459   1.736  0.7075 -0.1289  0.4703
 3952TIP3    H133271   5.132   1.534   1.772  2.0445  1.7355 -1.3947
 3952TIP3    H233272   5.136   1.441   1.653  1.5192 -0.2330  0.0602
 3953TIP3   OH233273   4.563   6.133   3.824 -0.2430  0.2041  0.0695
 3953TIP3    H133274   4.484   6.179   3.797  0.0696  0.2653 -0.7685
 3953TIP3    H233275   4.628   6.202   3.836  0.2404  0.0043 -1.2403
 3954TIP3   OH233276   5.508   3.590   2.096  0.2735 -0.5556 -0.0819
 3954TIP3    H133277   5.537   3.554   2.180  3.4770  2.0452  0.1359
 3954TIP3    H233278   5.454   3.665   2.120 -0.7567 -1.1660 -0.4337
 3955TIP3   OH233279   1.864   6.325   1.275  0.0161  0.6101 -0.0525
 3955TIP3    H133280   1.809   6.337   1.198  0.7095  0.4884 -0.5735
 3955TIP3    H233281   1.933   6.266   1.246  0.5454  0.9350  0.5318
 3956TIP3   OH233282   0.248   5.484   0.590 -0.5529  0.6533 -0.0799
 3956TIP3    H133283   0.276   5.412   0.648 -0.8403  1.7561  1.4941
 3956TIP3    H233284   0.306   5.556   0.613 -2.4071  1.9368  0.7944
 3957TIP3   OH233285   1.800   6.446   3.934  0.1170 -0.1367 -0.5602
 3957TIP3    H133286   1.722   6.500   3.941  0.3128  0.0617  0.2451
 3957TIP3    H233287   1.802   6.396   4.016  1.2301  0.4296 -0.2176
 3958TIP3   OH233288   4.532   2.621  12.012  0.4957 -0.6011 -0.5614
 3958TIP3    H133289   4.528   2.576  11.927 -1.9785 -0.7246 -0.4491
 3958TIP3    H233290   4.441   2.635  12.036  1.1150  3.0804  0.2037
 3959TIP3   OH233291   3.272   4.475   0.913  0.7620  0.0049 -0.4466
 3959TIP3    H133292   3.346   4.441   0.964  1.6144 -2.0961 -2.8514
 3959TIP3    H233293   3.289   4.445   0.824 -2.8263 -0.2559 -1.1913
 3960TIP3   OH233294   1.009   5.070  15.140 -0.2858  0.9237  0.4180
 3960TIP3    H133295   1.069   5.144  15.145 -1.1915  1.7635 -0.6933
 3960TIP3    H233296   0.996   5.056  15.046 -0.7005 -0.1730  0.6291
 3961TIP3   OH233297   2.378   4.466  16.775 -0.3367  0.1051 -0.1025
 3961TIP3    H133298   2.399   4.399  16.840  0.6396 -1.2000 -1.6749
 3961TIP3    H233299   2.375   4.419  16.692 -0.5576  1.8690 -1.1505
 3962TIP3   OH233300   0.050   1.716   3.419 -0.0654 -0.3757 -0.1668
 3962TIP3    H133301   0.115   1.686   3.356  0.0614 -0.8649  0.1874
 3962TIP3    H233302   0.099   1.731   3.500 -0.1044  0.9392 -0.3652
 3963TIP3   OH233303   6.526   4.770  14.877 -0.5115  0.1965  0.3532
 3963TIP3    H133304   6.528   4.855  14.833 -0.0611  0.6198  1.1482
 3963TIP3    H233305   6.512   4.792  14.969  0.2354 -0.5515  0.6551
 3964TIP3   OH233306   1.059   4.887   4.585  0.0944  0.7491  0.3347
 3964TIP3    H133307   0.981   4.834   4.598 -0.0774  0.7768 -0.4948
 3964TIP3    H233308   1.096   4.855   4.502  0.1466  1.7229 -0.0327
 3965TIP3   OH233309   4.547   3.197   1.040 -0.3647  0.1130  0.6989
 3965TIP3    H133310   4.570   3.130   0.976  0.1428 -0.6730  1.6807
 3965TIP3    H233311   4.487   3.153   1.101  0.3519  0.3783  1.6340
 3966TIP3   OH233312   5.136   5.377   3.076  0.4192  0.4153  0.4913
 3966TIP3    H133313   5.079   5.330   3.138 -2.0447  0.3468 -1.6400
 3966TIP3    H233314   5.114   5.469   3.089 -1.1531  0.3173 -1.1166
 3967TIP3   OH233315   0.782   3.854   1.015  0.2507 -0.3471  0.1223
 3967TIP3    H133316   0.811   3.913   0.945 -0.2139  0.0875  0.2928
 3967TIP3    H233317   0.863   3.824   1.056  0.5118 -0.2657 -0.3190
 3968TIP3   OH233318   4.057   4.075  11.517  0.6222  0.0165 -0.0135
 3968TIP3    H133319   4.148   4.103  11.525  0.4244  0.7554 -0.2006
 3968TIP3    H233320   4.055   3.987  11.555  1.3338  0.1487  0.3513
 3969TIP3   OH233321   4.939   6.604   6.497  0.2864 -0.1205 -0.0346
 3969TIP3    H133322   4.945   6.544   6.571 -0.3522 -2.2168 -1.6115
 3969TIP3    H233323   5.017   6.660   6.506  0.3311 -0.4430  2.0735
 3970TIP3   OH233324   6.471   5.477   3.084  0.3477  0.1816 -0.0737
 3970TIP3    H133325   6.421   5.446   3.008  1.6809 -2.3326 -0.0276
 3970TIP3    H233326   6.422   5.444   3.160  0.9404 -0.5083  0.0225
 3971TIP3   OH233327   2.204   4.348  13.016  0.5361  0.3706  0.2433
 3971TIP3    H133328   2.271   4.282  13.039  1.4829  1.4569  0.7133
 3971TIP3    H233329   2.220   4.367  12.924 -0.9466 -1.3733 -0.4309
 3972TIP3   OH233330   1.801   5.511  15.289 -0.5735  0.7165  0.2552
 3972TIP3    H133331   1.728   5.477  15.341 -0.9266 -0.1563 -0.7698
 3972TIP3    H233332   1.760   5.548  15.211 -0.1040  2.6589  0.8883
 3973TIP3   OH233333   5.920   3.862   5.796  0.1835 -0.5108 -0.0820
 3973TIP3    H133334   5.886   3.904   5.716 -2.0655  0.7787  1.4374
 3973TIP3    H233335   5.844   3.819   5.835  1.1462 -0.7945  1.5677
 3974TIP3   OH233336   0.533   1.537   5.205 -0.2041 -0.1716 -0.0307
 3974TIP3    H133337   0.578   1.557   5.287 -1.3606  0.2592  0.5172
 3974TIP3    H233338   0.504   1.623   5.172  0.1180 -0.3532 -0.8191
 3975TIP3   OH233339   4.921   5.524   1.362  0.6395  0.7143  0.2137
 3975TIP3    H133340   4.991   5.461   1.347 -1.7981 -1.9572 -1.0019
 3975TIP3    H233341   4.863   5.480   1.426 -1.9795  0.8701 -1.8745
 3976TIP3   OH233342   3.989   3.284   0.513 -0.5300  0.1429  0.0590
 3976TIP3    H133343   3.894   3.292   0.517 -0.4440  1.7435 -0.1967
 3976TIP3    H233344   4.005   3.204   0.462 -1.7770  1.0307 -1.8514
 3977TIP3   OH233345   3.300   6.027  16.081  0.0369 -0.0299 -0.1129
 3977TIP3    H133346   3.310   6.099  16.144  1.8799  0.5369 -1.0014
 3977TIP3    H233347   3.295   5.948  16.135 -0.4344  0.6080  0.8080
 3978TIP3   OH233348   3.935   2.138   4.365 -0.1577 -0.0151 -0.3867
 3978TIP3    H133349   3.868   2.106   4.305 -0.2228 -0.2131 -0.2076
 3978TIP3    H233350   3.891   2.208   4.413 -1.0091 -1.6918  1.4129
 3979TIP3   OH233351   1.259   4.583  13.014  0.5759 -0.3327  0.2429
 3979TIP3    H133352   1.337   4.546  13.056 -0.1581 -1.4196  0.6879
 3979TIP3    H233353   1.236   4.519  12.947  0.2168  0.1292 -0.0826
 3980TIP3   OH233354   0.490   0.824   4.570 -0.5582 -0.5503  0.6195
 3980TIP3    H133355   0.551   0.886   4.610 -0.6530 -0.8194  1.1877
 3980TIP3    H233356   0.511   0.828   4.476  1.2183 -1.5627  0.9275
 3981TIP3   OH233357   0.861   0.040  11.880  0.3545  0.0485  0.0207
 3981TIP3    H133358   0.946   0.079  11.901  0.2424  0.9741 -1.1085
 3981TIP3    H233359   0.816   0.036  11.964  1.7090 -1.0022  0.7401
 3982TIP3   OH233360   2.524   3.008  12.690 -0.1249 -0.9030  0.7268
 3982TIP3    H133361   2.451   3.067  12.671 -2.0212 -3.2624  0.2779
 3982TIP3    H233362   2.574   3.054  12.757 -2.4650  0.4798  1.6628
 3983TIP3   OH233363   3.789   4.235   0.637  0.2806 -0.1876  0.1872
 3983TIP3    H133364   3.834   4.233   0.552  0.5222 -0.5608  0.3172
 3983TIP3    H233365   3.786   4.327   0.660 -0.5507  0.0056 -0.6183
 3984TIP3   OH233366   1.635   0.576   2.521  0.5988 -0.6523  0.5438
 3984TIP3    H133367   1.561   0.567   2.581  0.0180 -0.0722 -0.0532
 3984TIP3    H233368   1.707   0.607   2.576  0.1437 -0.3547  0.9870
 3985TIP3   OH233369   3.617   5.956   1.522 -0.1163  0.0468 -0.1342
 3985TIP3    H133370   3.661   5.907   1.452  1.8162 -0.2086  1.1764
 3985TIP3    H233371   3.598   6.041   1.482  2.0032  0.3302 -0.6945
 3986TIP3   OH233372   5.978   1.627  12.995  0.2802  0.4960  0.1985
 3986TIP3    H133373   5.932   1.673  12.925  1.9769  0.8205 -0.7704
 3986TIP3    H233374   6.001   1.543  12.956 -0.0304  0.1012  0.8716
 3987TIP3   OH233375   4.825   5.164  12.907  0.7603 -0.3356  0.0793
 3987TIP3    H133376   4.796   5.090  12.855 -1.2025  0.8005 -0.5429
 3987TIP3    H233377   4.846   5.232  12.843  0.9822  0.1794  0.6879
 3988TIP3   OH233378   1.420   2.189  12.519  0.0366  0.6181 -0.2749
 3988TIP3    H133379   1.437   2.096  12.503 -2.9500 -0.3380  1.3472
 3988TIP3    H233380   1.382   2.192  12.607  1.4353  3.6201  0.3446
 3989TIP3   OH233381   2.168   6.348   6.040  0.3568  0.0034  0.2164
 3989TIP3    H133382   2.123   6.410   6.097  0.6841  2.7687 -2.2955
 3989TIP3    H233383   2.104   6.279   6.023 -0.6503  0.5373  1.7158
 3990TIP3   OH233384   5.548   2.718   1.565 -0.1819  0.1668 -0.1556
 3990TIP3    H133385   5.488   2.647   1.543  0.0399 -0.9078  2.4093
 3990TIP3    H233386   5.597   2.734   1.484 -1.7143 -1.0874 -1.3966
 3991TIP3   OH233387   3.042   3.226  12.877  0.1362  0.1474  0.0313
 3991TIP3    H133388   3.132   3.223  12.912  0.4328 -0.4153 -0.7614
 3991TIP3    H233389   2.987   3.221  12.955  0.7767  1.8261  0.6457
 3992TIP3   OH233390   4.813   1.647   6.767 -0.0744  0.4297 -0.2189
 3992TIP3    H133391   4.739   1.630   6.825 -0.5131  0.3071 -0.8067
 3992TIP3    H233392   4.797   1.734   6.731 -1.0254 -0.4034 -1.9263
 3993TIP3   OH233393   4.225   1.340   2.577  0.3833  0.3688  0.3862
 3993TIP3    H133394   4.177   1.395   2.638  1.0551  0.7772  0.5582
 3993TIP3    H233395   4.166   1.329   2.503  0.7456  2.4489 -0.2666
 3994TIP3   OH233396   2.345   3.400  16.976  0.1962  0.7513 -0.3840
 3994TIP3    H133397   2.441   3.401  16.979  0.3431 -1.2199 -2.1881
 3994TIP3    H233398   2.319   3.359  17.058  0.9804  0.1166 -0.4357
 3995TIP3   OH233399   5.981   5.735  17.225  0.1332  0.0115 -0.6384
 3995TIP3    H133400   6.009   5.771  17.141 -3.0230  0.0113 -1.7996
 3995TIP3    H233401   6.037   5.658  17.238  0.5019 -0.1728 -2.8798
 3996TIP3   OH233402   3.963   1.555  14.550 -0.8677 -0.3514 -0.0977
 3996TIP3    H133403   4.017   1.504  14.611 -0.7778  0.0834  0.1869
 3996TIP3    H233404   4.019   1.568  14.474 -0.7746 -0.3919 -0.0371
 3997TIP3   OH233405   3.054   6.502  16.702 -0.5060 -0.4675  0.2929
 3997TIP3    H133406   3.050   6.552  16.784  0.5344 -0.6393  0.4704
 3997TIP3    H233407   3.079   6.567  16.636  1.6032 -0.8371  0.6558
 3998TIP3   OH233408   4.115   3.404   5.824 -0.4571  0.3639 -0.2041
 3998TIP3    H133409   4.200   3.406   5.782 -0.7833 -0.3309 -0.9192
 3998TIP3    H233410   4.079   3.318   5.802 -1.4663  0.7641 -0.1732
 3999TIP3   OH233411   4.464   1.554   4.300  0.5790 -0.0384 -0.1435
 3999TIP3    H133412   4.373   1.532   4.278 -0.1239  0.8943  1.5984
 3999TIP3    H233413   4.463   1.649   4.312  0.7918 -0.3328  3.6371
 4000TIP3   OH233414   2.159   6.678  11.578 -0.0172  0.5688  0.4459
 4000TIP3    H133415   2.217   6.748  11.609 -0.5182  0.9880  0.4516
 4000TIP3    H233416   2.215   6.621  11.526  0.0942  1.8183 -0.8631
 4001TIP3   OH233417   3.142   2.197   5.863  0.1391  0.1684  0.3919
 4001TIP3    H133418   3.213   2.161   5.916  1.5611  0.6369 -1.1219
 4001TIP3    H233419   3.062   2.159   5.901  1.2876 -1.4871  1.2692
 4002TIP3   OH233420   1.200   4.510   2.600  0.0962 -0.0581 -0.0874
 4002TIP3    H133421   1.200   4.556   2.685  0.2166  1.8786 -1.0668
 4002TIP3    H233422   1.108   4.498   2.579  0.0446  0.4847 -0.1889
 4003TIP3   OH233423   4.907   5.226   1.780  0.0137 -0.2124  0.2594
 4003TIP3    H133424   4.957   5.296   1.822  1.7309 -1.6182  0.6536
 4003TIP3    H233425   4.920   5.240   1.686  1.1686 -0.5691  0.3604
 4004TIP3   OH233426   4.076   5.908  15.408  0.6052 -0.3446  0.7662
 4004TIP3    H133427   4.150   5.910  15.470 -0.3137 -0.9896  1.9244
 4004TIP3    H233428   4.029   5.990  15.425  0.6809 -0.2421  0.4883
 4005TIP3   OH233429   2.326   1.824   0.108 -0.1393  0.6222 -0.1879
 4005TIP3    H133430   2.267   1.797   0.179 -1.1372  3.5129  0.1939
 4005TIP3    H233431   2.270   1.831   0.031  0.0274  1.7866 -0.2136
 4006TIP3   OH233432   0.681   0.196  15.008  0.7305 -0.3109 -0.2805
 4006TIP3    H133433   0.687   0.163  14.918  1.6974 -0.4284 -0.1816
 4006TIP3    H233434   0.737   0.274  15.009 -0.4708  0.5847 -0.1612
 4007TIP3   OH233435   3.572   0.233   5.137  0.3502 -0.4222 -0.2302
 4007TIP3    H133436   3.630   0.266   5.068  1.1745  0.1685  0.7043
 4007TIP3    H233437   3.593   0.140   5.143  0.2476 -0.4872 -0.7870
 4008TIP3   OH233438   3.629   4.534   5.907 -0.6340 -0.0859  0.0516
 4008TIP3    H133439   3.631   4.493   5.821 -0.7776 -1.5984  0.7437
 4008TIP3    H233440   3.705   4.591   5.908 -0.8324  0.2370 -1.1985
 4009TIP3   OH233441   3.806   5.009   5.701 -0.6488 -0.5987 -0.1031
 4009TIP3    H133442   3.713   5.000   5.680 -1.7598  0.9967  3.4084
 4009TIP3    H233443   3.826   5.101   5.687  0.4300 -0.9091 -0.7488
 4010TIP3   OH233444   2.725   6.771  17.066  0.9754 -0.3018  0.1538
 4010TIP3    H133445   2.649   6.749  17.120  1.1443  0.0444  0.5387
 4010TIP3    H233446   2.699   6.850  17.019  1.2447  0.0538  0.5968
 4011TIP3   OH233447   2.318   5.664   5.051 -0.3004 -0.0518  0.8155
 4011TIP3    H133448   2.325   5.749   5.095  0.2296 -0.4107  1.4611
 4011TIP3    H233449   2.237   5.626   5.085  0.8317 -0.9579  2.7084
 4012TIP3   OH233450   1.500   2.226   3.228 -0.7476 -0.1381  0.1384
 4012TIP3    H133451   1.406   2.238   3.219 -0.7228 -0.4859 -0.6752
 4012TIP3    H233452   1.521   2.154   3.169 -0.1289 -0.7890  1.1107
 4013TIP3   OH233453   3.390   3.628  11.828 -0.0090  0.4377 -0.2317
 4013TIP3    H133454   3.439   3.692  11.880 -0.4024  0.9864 -0.5296
 4013TIP3    H233455   3.446   3.551  11.827 -1.0079 -0.5054  3.0643
 4014TIP3   OH233456   1.537   3.853   2.611 -0.5255  0.3226 -0.7977
 4014TIP3    H133457   1.596   3.796   2.659 -0.9918  1.5300  1.3377
 4014TIP3    H233458   1.572   3.854   2.522  0.7818 -1.4706 -0.3609
 4015TIP3   OH233459   4.820   4.044  15.258  0.0742 -0.3987 -0.2130
 4015TIP3    H133460   4.780   3.967  15.218 -0.1263 -0.5956  0.3625
 4015TIP3    H233461   4.914   4.028  15.251  0.0557 -1.6499  1.6710
 4016TIP3   OH233462   3.563   6.150  12.916 -0.0718  0.0944 -0.4591
 4016TIP3    H133463   3.625   6.103  12.971  0.5220  1.2716 -0.0942
 4016TIP3    H233464   3.479   6.106  12.931 -0.3572  1.4510  2.8647
 4017TIP3   OH233465   3.986   3.643  11.873  0.0515  0.1917  0.2373
 4017TIP3    H133466   3.975   3.730  11.834  0.9090  0.0424 -0.3522
 4017TIP3    H233467   3.916   3.638  11.939  2.5071  3.0302  3.4050
 4018TIP3   OH233468   0.934   2.681   5.317  0.2544  0.3218  0.5588
 4018TIP3    H133469   0.840   2.697   5.308  0.0892 -1.5883 -2.0317
 4018TIP3    H233470   0.969   2.692   5.229  2.3004 -0.0432  1.2782
 4019TIP3   OH233471   4.425   6.111  16.829 -0.2382  0.0906  0.3545
 4019TIP3    H133472   4.448   6.030  16.784  0.3595  0.6438 -0.3668
 4019TIP3    H233473   4.429   6.178  16.760  2.1016  1.2131  1.4772
 4020TIP3   OH233474   3.928   1.813   0.640 -0.3354 -0.1502 -0.1751
 4020TIP3    H133475   3.849   1.770   0.610 -0.9699 -0.1560  1.4163
 4020TIP3    H233476   3.902   1.904   0.656  0.6727  0.5676 -2.2576
 4021TIP3   OH233477   1.077   1.574  12.345  0.5666  0.4624 -0.5449
 4021TIP3    H133478   1.017   1.574  12.420 -0.0636 -0.1267 -1.0319
 4021TIP3    H233479   1.164   1.565  12.383  0.2794  0.4820  0.1311
 4022TIP3   OH233480   5.841   3.639   5.392  0.2081  0.0612 -0.4403
 4022TIP3    H133481   5.903   3.665   5.324  0.2320  0.2502 -0.3474
 4022TIP3    H233482   5.895   3.619   5.468  0.2500 -1.0648 -0.7551
 4023TIP3   OH233483   1.967   2.064  13.069  0.3776 -0.0310  0.4853
 4023TIP3    H133484   2.023   2.008  13.121 -2.3657 -1.4717  2.1132
 4023TIP3    H233485   1.930   2.127  13.132  1.0319  1.6894 -0.7586
 4024TIP3   OH233486   2.051   5.432   4.776  0.5989  0.5788 -0.6331
 4024TIP3    H133487   1.993   5.504   4.801 -0.4314 -0.7491  1.0610
 4024TIP3    H233488   1.992   5.361   4.752  1.5010 -0.5153  0.2377
 4025TIP3   OH233489   5.975   4.182   5.630  0.0187 -0.4292 -0.2527
 4025TIP3    H133490   5.949   4.100   5.588  2.0440 -1.1986 -0.1055
 4025TIP3    H233491   6.032   4.155   5.702 -0.3616  1.0624  0.6490
 4026TIP3   OH233492   4.905   6.206   5.724 -0.0808  0.0668 -0.0841
 4026TIP3    H133493   4.944   6.281   5.768  0.6348  0.4354 -1.3024
 4026TIP3    H233494   4.882   6.238   5.636  0.0346 -1.0714 -0.5557
 4027TIP3   OH233495   0.487   6.335   4.928  0.4120 -0.1337  0.1204
 4027TIP3    H133496   0.530   6.251   4.945 -0.3872 -0.3715  1.0311
 4027TIP3    H233497   0.458   6.329   4.837 -2.3248 -2.1210  0.9905
 4028TIP3   OH233498   5.393   2.721   4.345  0.1039  0.3081 -0.0494
 4028TIP3    H133499   5.484   2.703   4.322  0.6794  1.8768  0.7940
 4028TIP3    H233500   5.360   2.775   4.273 -0.7779 -1.7556 -1.2638
 4029TIP3   OH233501   5.150   1.800   1.380  0.3529  0.0124 -0.5020
 4029TIP3    H133502   5.140   1.792   1.285  2.0765 -0.5077 -0.6728
 4029TIP3    H233503   5.231   1.850   1.391 -0.2813  0.8124  0.7046
 4030TIP3   OH233504   2.525   5.504  12.551 -0.2907  0.2085  0.5631
 4030TIP3    H133505   2.444   5.490  12.502 -0.4046 -0.5256  0.9614
 4030TIP3    H233506   2.577   5.425  12.536  0.4204  0.7296  0.1968
 4031TIP3   OH233507   6.764   3.571  12.862 -0.0732 -0.2961  0.2563
 4031TIP3    H133508   6.735   3.483  12.886 -0.0854 -0.3342  0.1018
 4031TIP3    H233509   6.722   3.628  12.926  0.3924 -0.4553  0.7141
 4032TIP3   OH233510   0.134   4.055   1.777  0.0438 -0.0290 -1.4092
 4032TIP3    H133511   0.137   4.007   1.694 -0.7504 -0.1019 -1.4068
 4032TIP3    H233512   0.225   4.070   1.800  0.3848 -2.6638 -0.7582
 4033TIP3   OH233513   6.765   1.135   1.264  0.2144  0.2336  0.4442
 4033TIP3    H133514   6.729   1.222   1.246  1.1184  0.5354  0.0105
 4033TIP3    H233515   6.854   1.138   1.228  0.9562 -0.2275  2.1179
 4034TIP3   OH233516   2.493   3.663   0.160 -0.1195  0.2946 -0.4358
 4034TIP3    H133517   2.577   3.663   0.205 -0.3681 -0.8566  0.0806
 4034TIP3    H233518   2.435   3.616   0.219 -0.3600 -1.6396 -2.1110
 4035TIP3   OH233519   4.160   2.412  14.832 -0.2684 -0.1987 -0.1049
 4035TIP3    H133520   4.239   2.371  14.797 -0.0111  0.0442  0.1807
 4035TIP3    H233521   4.192   2.471  14.900 -0.7776 -1.0639  0.9294
 4036TIP3   OH233522   5.487   3.485   4.655 -0.1969 -0.1668 -0.0255
 4036TIP3    H133523   5.467   3.567   4.611 -1.8386 -0.3828  0.2739
 4036TIP3    H233524   5.441   3.489   4.738  0.1766 -1.1498  0.2512
 4037TIP3   OH233525   6.711   3.507   4.843  0.3146 -0.1233 -0.4732
 4037TIP3    H133526   6.617   3.490   4.847  0.1065  0.9357 -0.5425
 4037TIP3    H233527   6.743   3.489   4.931  0.3405 -2.0161 -0.8379
 4038TIP3   OH233528   3.915   4.260   1.483 -0.3511 -0.3945 -0.1486
 4038TIP3    H133529   3.975   4.186   1.497  1.0415  0.6029 -0.6131
 4038TIP3    H233530   3.956   4.311   1.413 -0.3331  1.7488  1.3418
 4039TIP3   OH233531   3.246   1.623   2.306  0.1234  0.6621 -0.2656
 4039TIP3    H133532   3.226   1.690   2.240 -4.0046  0.2951  0.3594
 4039TIP3    H233533   3.196   1.650   2.383 -0.8965 -2.5477  0.3472
 4040TIP3   OH233534   0.633   3.096  13.871 -0.0289  0.1000 -0.1271
 4040TIP3    H133535   0.541   3.096  13.844 -0.4874 -2.1104  1.1721
 4040TIP3    H233536   0.633   3.131  13.960  0.2210 -0.9561  0.2982
 4041TIP3   OH233537   4.149   1.430   4.535  0.2946  0.0451  0.0183
 4041TIP3    H133538   4.091   1.485   4.589 -1.9730 -0.1542 -2.0321
 4041TIP3    H233539   4.237   1.461   4.555 -0.6255  1.6630  1.9267
 4042TIP3   OH233540   4.089   3.579   5.594 -0.6933 -0.2119  0.0342
 4042TIP3    H133541   4.125   3.563   5.681  0.8148  2.4162 -0.0177
 4042TIP3    H233542   4.159   3.555   5.534 -1.5556 -1.5537 -0.4900
 4043TIP3   OH233543   3.201   0.058   3.660 -0.4068  0.3701 -0.3188
 4043TIP3    H133544   3.291   0.056   3.694 -0.2399 -1.9444 -0.7279
 4043TIP3    H233545   3.153   0.108   3.726  0.5591 -1.1782  1.7177
 4044TIP3   OH233546   2.385   3.430   4.890 -0.1733 -0.3916  0.0977
 4044TIP3    H133547   2.445   3.463   4.823 -1.0652  0.1965 -0.4253
 4044TIP3    H233548   2.434   3.359   4.933  0.8182 -0.0526 -0.4364
 4045TIP3   OH233549   4.667   3.394   5.041 -0.3122 -0.4051  0.0267
 4045TIP3    H133550   4.655   3.489   5.040 -0.5939 -0.4445 -1.0814
 4045TIP3    H233551   4.649   3.366   4.952 -1.2730 -1.6380  0.5806
 4046TIP3   OH233552   5.604   3.608   6.668  0.2658  0.5163 -0.5474
 4046TIP3    H133553   5.608   3.512   6.671  1.5960  0.5346  2.8730
 4046TIP3    H233554   5.677   3.633   6.611  0.1041 -0.4533 -1.2202
 4047TIP3   OH233555   5.581   3.319  15.404  0.4286 -0.2157  0.3352
 4047TIP3    H133556   5.612   3.233  15.375  1.9167  0.6827 -0.8406
 4047TIP3    H233557   5.656   3.358  15.448  0.5711  1.4197 -1.2374
 4048TIP3   OH233558   2.419   4.868   6.602 -0.0458  0.4593  0.6381
 4048TIP3    H133559   2.371   4.857   6.684  0.1248 -0.0894  0.6700
 4048TIP3    H233560   2.374   4.940   6.557 -1.4655 -0.6052  0.2779
 4049TIP3   OH233561   4.457   5.022   1.873 -0.1824  0.2381  0.1498
 4049TIP3    H133562   4.368   5.046   1.898  0.1677 -0.6185  2.5045
 4049TIP3    H233563   4.512   5.091   1.910  0.1838  0.4399 -0.7520
 4050TIP3   OH233564   6.043   4.216   4.640 -0.6441 -0.2857  0.3751
 4050TIP3    H133565   6.067   4.263   4.560 -0.1088  1.8100  1.6949
 4050TIP3    H233566   6.109   4.241   4.704 -1.2008 -1.7024  1.5719
 4051TIP3   OH233567   0.097   2.693  13.166 -0.2442  0.0791  0.2795
 4051TIP3    H133568   0.079   2.774  13.118 -0.7927 -0.4230 -0.3891
 4051TIP3    H233569   0.187   2.702  13.198  0.4736  0.0482 -1.6393
 4052TIP3   OH233570   2.433   6.626   2.790  0.6840  0.0837 -0.6359
 4052TIP3    H133571   2.469   6.684   2.857 -0.4754 -0.2408  0.3054
 4052TIP3    H233572   2.435   6.678   2.709 -0.7589  1.6692  0.2652
 4053TIP3   OH233573   0.197   2.123  15.733  0.5047 -0.5643 -0.8664
 4053TIP3    H133574   0.102   2.121  15.720  0.2364 -2.3151  0.8127
 4053TIP3    H233575   0.233   2.117  15.644 -0.8804  1.7532 -1.6654
 4054TIP3   OH233576   3.472   5.242   6.590 -0.0295 -0.4528 -0.1116
 4054TIP3    H133577   3.415   5.174   6.554  0.0362 -1.2630  1.2586
 4054TIP3    H233578   3.412   5.305   6.630 -0.0030 -0.8470  0.5523
 4055TIP3   OH233579   0.925   5.077  12.827 -0.4254  0.6794 -0.3489
 4055TIP3    H133580   0.974   5.153  12.860  0.2263  0.4791 -0.8219
 4055TIP3    H233581   0.833   5.101  12.835 -0.2234  2.1210 -1.8400
 4056TIP3   OH233582   5.230   2.838   1.773 -0.1564  0.0496 -0.0600
 4056TIP3    H133583   5.135   2.825   1.782 -0.1558  0.2973  0.3314
 4056TIP3    H233584   5.266   2.750   1.769 -0.3273 -0.0589  0.6385
 4057TIP3   OH233585   2.130   2.466   2.311 -0.2604 -0.3385 -0.3298
 4057TIP3    H133586   2.214   2.484   2.352 -0.0851 -0.8203 -0.4648
 4057TIP3    H233587   2.129   2.371   2.300 -0.6054 -0.2861 -0.7889
 4058TIP3   OH233588   1.927   1.245   4.919 -0.0959  0.0944 -0.0285
 4058TIP3    H133589   1.997   1.271   4.979 -0.4199 -1.6074  1.1659
 4058TIP3    H233590   1.846   1.261   4.968 -0.3519 -1.7264  0.2128
 4059TIP3   OH233591   2.297   1.620  12.804  0.1701 -0.4092  0.1513
 4059TIP3    H133592   2.372   1.642  12.859  1.2496 -0.8457 -1.0919
 4059TIP3    H233593   2.269   1.704  12.766  0.7030 -0.3744 -0.1821
 4060TIP3   OH233594   3.191   3.373   2.472 -0.5622  0.4183 -0.4196
 4060TIP3    H133595   3.202   3.278   2.467  0.6814  0.5910 -1.9075
 4060TIP3    H233596   3.262   3.403   2.529 -0.6593  0.4963 -0.3381
 4061TIP3   OH233597   1.003   0.650  16.473  0.7609 -0.2439  0.1333
 4061TIP3    H133598   1.046   0.582  16.422  2.3462 -0.9357  2.2692
 4061TIP3    H233599   1.052   0.653  16.556 -1.6818  0.7927  1.6465
 4062TIP3   OH233600   4.509   0.994  12.289  0.5116 -0.4319  0.2143
 4062TIP3    H133601   4.504   1.089  12.293  3.1141 -0.2269  0.3982
 4062TIP3    H233602   4.427   0.967  12.247  0.6921  2.0713 -2.0314
 4063TIP3   OH233603   4.813   2.119  15.523  0.2912  0.1370 -0.2364
 4063TIP3    H133604   4.816   2.205  15.481  1.4577 -0.3754 -1.2650
 4063TIP3    H233605   4.893   2.076  15.495  0.2014 -0.9389  1.0644
 4064TIP3   OH233606   4.124   1.304   2.143  0.3253 -0.1538  0.0014
 4064TIP3    H133607   4.216   1.322   2.124  0.0810  0.2916 -0.8145
 4064TIP3    H233608   4.091   1.261   2.064 -0.0579 -0.7542  0.4720
 4065TIP3   OH233609   4.059   2.139   4.881  0.2003  0.4507 -0.1766
 4065TIP3    H133610   4.000   2.095   4.819  1.6830  0.1312 -1.4008
 4065TIP3    H233611   4.145   2.102   4.864  1.0122  1.8341  0.6977
 4066TIP3   OH233612   6.088   6.739   3.255 -0.3785 -0.1308  0.1420
 4066TIP3    H133613   6.025   6.757   3.186 -1.1687  0.6814  1.0334
 4066TIP3    H233614   6.090   6.644   3.263  0.0237 -0.2546 -1.2388
 4067TIP3   OH233615   3.995   3.246  16.187  0.0882  0.1685 -0.2565
 4067TIP3    H133616   4.008   3.167  16.135 -1.0726 -1.0210  1.1616
 4067TIP3    H233617   3.902   3.246  16.208  0.5405  0.4389  2.0115
 4068TIP3   OH233618   2.187   3.852  15.180 -0.3677 -0.0294  0.1820
 4068TIP3    H133619   2.229   3.827  15.262  1.6343  0.1863 -0.7159
 4068TIP3    H233620   2.163   3.944  15.192 -0.5510 -0.1444  0.7009
 4069TIP3   OH233621   2.979   3.233  11.325 -0.2653 -0.3367  0.0713
 4069TIP3    H133622   2.892   3.192  11.328 -0.0623 -0.7214  1.0574
 4069TIP3    H233623   3.040   3.159  11.333  0.2735 -0.3924 -3.1388
 4070TIP3   OH233624   4.490   3.865   2.838  0.2187 -0.0935  0.2732
 4070TIP3    H133625   4.462   3.779   2.807  0.4898 -0.1829  0.2694
 4070TIP3    H233626   4.421   3.894   2.897  0.4650 -0.6302  0.8342
 4071TIP3   OH233627   5.132   5.457   0.429 -0.3275  0.3046  0.0840
 4071TIP3    H133628   5.110   5.517   0.500  2.8719  2.7293 -0.7521
 4071TIP3    H233629   5.177   5.384   0.473 -0.7660  0.4336  0.7698
 4072TIP3   OH233630   6.191   5.234   1.643 -0.0665  0.4984 -0.2056
 4072TIP3    H133631   6.278   5.252   1.679 -0.3681  1.6753 -0.0016
 4072TIP3    H233632   6.183   5.139   1.644  0.6383  0.4332  1.1556
 4073TIP3   OH233633   0.727   1.670   4.950  0.4982  0.0011  0.5240
 4073TIP3    H133634   0.756   1.749   4.996  0.8367 -0.6223  1.4008
 4073TIP3    H233635   0.632   1.681   4.942  0.4723  0.2382  1.1324
 4074TIP3   OH233636   1.022   3.301   2.188 -0.2960  0.0445  0.1246
 4074TIP3    H133637   1.096   3.342   2.232  0.1701  0.3431 -0.9248
 4074TIP3    H233638   0.984   3.370   2.135 -0.7965 -0.3378 -0.0229
 4075TIP3   OH233639   4.456   3.962  12.124 -0.9930  0.2182  0.4374
 4075TIP3    H133640   4.510   3.884  12.136  1.0331  1.0759 -2.0962
 4075TIP3    H233641   4.393   3.937  12.057 -0.6926  0.5509  0.0213
 4076TIP3   OH233642   1.271   3.344   0.189  0.0516  0.0926  0.6651
 4076TIP3    H133643   1.201   3.279   0.175  1.0417 -1.0630  0.8759
 4076TIP3    H233644   1.339   3.319   0.127  0.3019  1.1875  0.4858
 4077TIP3   OH233645   2.521   4.816  12.755  0.3122  0.2287  0.3227
 4077TIP3    H133646   2.559   4.776  12.833  0.4385  1.5256  0.9420
 4077TIP3    H233647   2.470   4.745  12.715 -0.1071 -0.3555  1.8074
 4078TIP3   OH233648   0.408   2.743   1.534 -0.1144 -0.3180  0.3933
 4078TIP3    H133649   0.333   2.689   1.510  0.4836 -1.6587  1.3873
 4078TIP3    H233650   0.451   2.694   1.605  2.5609 -0.4082 -1.1390
 4079TIP3   OH233651   1.654   3.601  11.767 -0.1605  0.5657 -0.0912
 4079TIP3    H133652   1.627   3.602  11.859 -0.0748  0.1549 -0.0588
 4079TIP3    H233653   1.737   3.555  11.767  0.8292  2.2598 -0.1276
 4080TIP3   OH233654   2.408   3.218   3.452  0.1474 -0.1103 -0.1910
 4080TIP3    H133655   2.473   3.148   3.459 -0.2734 -0.5588 -0.7412
 4080TIP3    H233656   2.405   3.256   3.540  2.4395  1.0763 -0.5250
 4081TIP3   OH233657   1.088   4.703  15.539 -0.0605  0.8554  0.6213
 4081TIP3    H133658   1.061   4.748  15.618  0.6552  0.1107  1.3110
 4081TIP3    H233659   1.093   4.772  15.472  1.0815  1.8127  1.6547
 4082TIP3   OH233660   4.546   6.174  17.322  0.3216 -0.6112  0.2337
 4082TIP3    H133661   4.452   6.168  17.307  0.2846  0.2715  0.0166
 4082TIP3    H233662   4.581   6.091  17.289 -0.0667  0.1590 -2.3964
 4083TIP3   OH233663   2.021   5.618  13.244 -0.0868 -0.0507 -0.1903
 4083TIP3    H133664   1.930   5.644  13.262 -0.0402  0.2987 -0.4586
 4083TIP3    H233665   2.055   5.591  13.329 -0.1217  0.8014  0.0988
 4084TIP3   OH233666   0.570   4.887  14.624 -0.2243  0.3286  0.4532
 4084TIP3    H133667   0.621   4.936  14.560 -1.0785  0.3396 -0.2380
 4084TIP3    H233668   0.592   4.927  14.708 -1.0268  2.0497 -0.1008
 4085TIP3   OH233669   1.681   1.010   4.137  0.4560  0.1458 -0.2049
 4085TIP3    H133670   1.730   1.060   4.203  0.2000  0.5002 -0.2802
 4085TIP3    H233671   1.716   0.921   4.144 -1.1388 -0.3766  1.9852
 4086TIP3   OH233672   5.804   0.072  16.570  0.1943 -0.0356 -0.0705
 4086TIP3    H133673   5.778   0.128  16.643 -0.1733  0.2394 -0.4115
 4086TIP3    H233674   5.732   0.010  16.560  0.5529 -0.5109  0.2356
 4087TIP3   OH233675   2.102   6.683  16.156 -0.2844 -0.0767 -0.1160
 4087TIP3    H133676   2.166   6.615  16.131 -0.2171 -0.0107 -0.1262
 4087TIP3    H233677   2.073   6.720  16.072 -0.5101 -0.2661 -0.1217
 4088TIP3   OH233678   3.690   3.199  14.671 -0.2295 -0.7739 -0.4049
 4088TIP3    H133679   3.716   3.237  14.587  0.6174 -1.7830 -0.6136
 4088TIP3    H233680   3.767   3.209  14.727 -0.7157 -0.3041  0.2029
 4089TIP3   OH233681   0.709   4.231  16.178  0.5395 -0.1182  0.0579
 4089TIP3    H133682   0.691   4.303  16.117 -0.1749  0.0083  0.4065
 4089TIP3    H233683   0.751   4.164  16.124  0.6541  0.3095 -0.4006
 4090TIP3   OH233684   1.320   5.755   4.227 -0.2120  0.1158  0.3818
 4090TIP3    H133685   1.330   5.678   4.171 -0.1007 -1.0131  1.8820
 4090TIP3    H233686   1.401   5.804   4.214 -0.2330 -0.0597 -0.5115
 4091TIP3   OH233687   5.571   2.793  16.169 -0.2611  0.3561  0.2329
 4091TIP3    H133688   5.652   2.844  16.169 -0.4792  0.7518  1.6287
 4091TIP3    H233689   5.585   2.726  16.236 -0.9558  0.2174  0.2485
 4092TIP3   OH233690   2.614   3.037   3.508 -0.3272 -0.2543  0.5038
 4092TIP3    H133691   2.709   3.038   3.495 -0.4656 -0.6944 -0.5922
 4092TIP3    H233692   2.590   2.946   3.497 -1.4327  0.3722 -3.5787
 4093TIP3   OH233693   0.435   4.420  12.792  0.1835  0.4989  0.1102
 4093TIP3    H133694   0.481   4.346  12.755  0.1315  0.8860 -0.7496
 4093TIP3    H233695   0.414   4.476  12.717 -0.4544  1.0037  0.6485
 4094TIP3   OH233696   4.320   2.847  13.708 -0.1024  0.5789  0.2548
 4094TIP3    H133697   4.388   2.802  13.658  1.7513  2.2829  1.1207
 4094TIP3    H233698   4.339   2.826  13.799 -2.1848 -0.7768  0.4571
 4095TIP3   OH233699   6.601   0.766   1.418 -0.3099 -0.1789  0.4932
 4095TIP3    H133700   6.573   0.745   1.329  1.8856  1.4070 -0.6894
 4095TIP3    H233701   6.614   0.682   1.460  0.6353 -1.0709 -1.4264
 4096TIP3   OH233702   5.986   6.508   5.220 -0.0436  0.1211  1.3665
 4096TIP3    H133703   6.036   6.489   5.299  1.1257  0.4087  0.7121
 4096TIP3    H233704   5.947   6.594   5.236  0.9229  0.5870  1.2996
 4097TIP3   OH233705   1.161   0.112  13.112  0.8507  0.3420 -0.6158
 4097TIP3    H133706   1.085   0.084  13.062 -0.3834  1.5167  0.5191
 4097TIP3    H233707   1.135   0.102  13.204  1.6512  1.7645 -0.1967
 4098TIP3   OH233708   3.197   1.758  13.045  0.0837  0.2242 -0.6576
 4098TIP3    H133709   3.153   1.833  13.083  0.4357 -0.2366  0.7057
 4098TIP3    H233710   3.289   1.767  13.071 -0.2007 -1.7149  1.3606
 4099TIP3   OH233711   2.682   4.582  11.446 -0.2020 -0.8162 -0.4873
 4099TIP3    H133712   2.631   4.658  11.417 -0.0222 -0.3695  0.3237
 4099TIP3    H233713   2.715   4.607  11.533  0.1308 -1.6991 -0.3477
 4100TIP3   OH233714   3.821   3.214   0.137  0.7742  0.5417  0.0488
 4100TIP3    H133715   3.778   3.284   0.186 -0.9383 -0.1324 -0.3937
 4100TIP3    H233716   3.767   3.205   0.058 -0.4675 -2.7200  1.1042
 4101TIP3   OH233717   6.695   6.344  14.060  0.2623 -0.2114 -0.5147
 4101TIP3    H133718   6.712   6.433  14.089 -1.3027  0.1981 -0.7631
 4101TIP3    H233719   6.697   6.349  13.964 -2.6482  0.2400 -0.6452
 4102TIP3   OH233720   0.613   5.416   1.122 -0.3248 -0.4638  0.2394
 4102TIP3    H133721   0.590   5.323   1.121  0.6134 -0.7159  0.8131
 4102TIP3    H233722   0.659   5.431   1.039 -0.5278 -0.4918  0.1210
 4103TIP3   OH233723   2.952   1.493   2.967  0.1645  0.1991  0.3805
 4103TIP3    H133724   2.993   1.480   3.052 -0.3081  0.7514  0.7093
 4103TIP3    H233725   2.991   1.428   2.910  1.2278  0.4864  0.7653
 4104TIP3   OH233726   0.840   5.480  11.867 -0.0433 -0.5442  0.2048
 4104TIP3    H133727   0.784   5.538  11.815  1.1074 -0.2097 -0.7191
 4104TIP3    H233728   0.929   5.510  11.848  0.5086 -1.7372  0.8048
 4105TIP3   OH233729   4.167   6.619  15.219  0.8117  0.2693  0.1036
 4105TIP3    H133730   4.251   6.579  15.237 -0.1319 -1.4777  0.8689
 4105TIP3    H233731   4.168   6.700  15.270  0.6033 -1.5963  3.3523
 4106TIP3   OH233732   2.736   4.838   0.037 -0.0262  0.3925  0.4966
 4106TIP3    H133733   2.723   4.929   0.011 -1.4026  0.2711  0.7121
 4106TIP3    H233734   2.806   4.842   0.103  1.8227  0.9656 -1.3789
 4107TIP3   OH233735   0.619   4.923   1.120  0.0731  0.2167 -0.1021
 4107TIP3    H133736   0.624   4.828   1.126 -1.7768  0.0018 -1.0429
 4107TIP3    H233737   0.704   4.949   1.084  0.4542 -1.1188 -0.2431
 4108TIP3   OH233738   3.443   5.057  12.624  0.2319 -0.5205 -0.2078
 4108TIP3    H133739   3.380   5.040  12.555  1.0373 -3.3004 -0.4164
 4108TIP3    H233740   3.525   5.020  12.591  0.9303 -0.8052  1.6862
 4109TIP3   OH233741   3.044   1.889  14.719  0.6466  0.4235 -0.0595
 4109TIP3    H133742   2.973   1.872  14.781  0.4813  1.9277  0.2113
 4109TIP3    H233743   3.116   1.834  14.748  0.5614  1.0890  1.4804
 4110TIP3   OH233744   6.659   0.116  11.349 -0.2192  0.4145 -0.3214
 4110TIP3    H133745   6.752   0.105  11.329  0.2193 -0.3559  1.8418
 4110TIP3    H233746   6.627   0.176  11.282  1.5056 -0.3509 -1.9254
 4111TIP3   OH233747   2.623   3.711  13.750 -0.1914 -0.0142  0.0404
 4111TIP3    H133748   2.590   3.684  13.664 -0.3779 -0.2782  0.1959
 4111TIP3    H233749   2.604   3.637  13.808 -0.5265  0.3702  0.4248
 4112TIP3   OH233750   4.662   2.825   4.145 -0.2711 -0.3339 -0.2962
 4112TIP3    H133751   4.585   2.875   4.116 -0.1386  0.1219  0.1320
 4112TIP3    H233752   4.647   2.737   4.110 -2.6281 -1.1875  2.4726
 4113TIP3   OH233753   5.147   0.614   5.838 -0.5430 -0.0205  0.1042
 4113TIP3    H133754   5.171   0.584   5.751 -1.0037  0.7648 -0.3042
 4113TIP3    H233755   5.229   0.613   5.888  0.0079  0.8661 -0.7447
 4114TIP3   OH233756   5.781   0.696  16.750  0.1357 -0.3132  0.0910
 4114TIP3    H133757   5.745   0.778  16.715 -0.6676 -0.7571 -0.1441
 4114TIP3    H233758   5.758   0.630  16.685 -1.3641 -1.1484  1.4121
 4115TIP3   OH233759   2.816   0.939   5.096 -0.2708 -0.5998  0.1137
 4115TIP3    H133760   2.768   0.862   5.068 -2.0020  0.5452 -0.2561
 4115TIP3    H233761   2.861   0.912   5.176  0.7494 -2.5076 -1.0593
 4116TIP3   OH233762   3.684   5.480   5.557  0.2525  0.2050 -0.1088
 4116TIP3    H133763   3.593   5.503   5.573  0.3899  1.5110 -1.0904
 4116TIP3    H233764   3.688   5.461   5.463  1.1188  0.7996 -0.2027
 4117TIP3   OH233765   1.117   4.149  13.126  0.2518 -0.0172  0.4590
 4117TIP3    H133766   1.187   4.209  13.152 -0.3531  1.0227 -0.2295
 4117TIP3    H233767   1.160   4.064  13.119  1.5997  0.7045 -0.5526
 4118TIP3   OH233768   5.387   3.804   2.732 -0.0750  0.0132  0.1599
 4118TIP3    H133769   5.427   3.810   2.646 -0.0092 -2.3955 -0.0423
 4118TIP3    H233770   5.461   3.789   2.792 -0.2422  0.3080  0.4447
 4119TIP3   OH233771   5.010   6.708   3.584 -0.0063  0.5911 -0.1309
 4119TIP3    H133772   4.967   6.771   3.526  2.7611  0.3418 -2.7295
 4119TIP3    H233773   5.077   6.759   3.630 -2.4101  0.8771  3.4834
 4120TIP3   OH233774   5.204   4.409  17.219 -0.3751 -0.1224 -0.0602
 4120TIP3    H133775   5.253   4.482  17.182 -0.7988 -0.3822 -1.1666
 4120TIP3    H233776   5.148   4.449  17.286  0.5846  0.3170  0.5052
 4121TIP3   OH233777   5.189   3.034  11.113 -0.0665  0.5583  0.3192
 4121TIP3    H133778   5.203   2.994  11.199  0.1287  2.4151  1.1863
 4121TIP3    H233779   5.272   3.023  11.067 -0.7078 -2.1025 -0.4335
 4122TIP3   OH233780   4.562   2.478   4.436 -0.0132  0.1578 -0.2579
 4122TIP3    H133781   4.609   2.461   4.354 -1.4534  1.3695 -1.3948
 4122TIP3    H233782   4.491   2.414   4.437 -0.7018  0.8931 -0.5795
 4123TIP3   OH233783   5.847   4.903   0.890  0.4789 -0.0180  0.0930
 4123TIP3    H133784   5.795   4.840   0.939  0.9011  1.0950  2.0647
 4123TIP3    H233785   5.921   4.853   0.856 -1.3154 -1.4262 -1.9842
 4124TIP3   OH233786   4.094   1.411   2.811  0.1083 -0.0138 -0.0775
 4124TIP3    H133787   4.111   1.422   2.904  2.3661  2.3419 -0.6522
 4124TIP3    H233788   4.045   1.489   2.786  3.1478  1.6226 -1.5078
 4125TIP3   OH233789   4.569   0.045   1.738  0.5704 -0.5379 -0.2139
 4125TIP3    H133790   4.504   0.008   1.678  1.9601 -0.6762 -1.7099
 4125TIP3    H233791   4.553  -0.001   1.821 -0.5714 -1.2993 -0.8215
 4126TIP3   OH233792   6.347   2.637  10.908 -0.1513 -0.0562  0.4272
 4126TIP3    H133793   6.306   2.701  10.966 -0.0955  0.1167  0.2752
 4126TIP3    H233794   6.438   2.665  10.902 -0.2408  0.1409 -0.0417
 4127TIP3   OH233795   1.431   2.841  12.589  0.3723 -0.1299 -0.6824
 4127TIP3    H133796   1.410   2.925  12.630  1.6664 -0.9984  2.0406
 4127TIP3    H233797   1.490   2.864  12.517  0.8216  1.3236  0.1018
 4128TIP3   OH233798   2.952   4.645  16.295  0.2005  0.0631 -0.2214
 4128TIP3    H133799   3.034   4.690  16.312  0.4143 -0.5556  0.4179
 4128TIP3    H233800   2.968   4.555  16.321 -0.6317 -0.1016 -0.2515
 4129TIP3   OH233801   0.824   2.816  13.986 -0.2961 -0.5806 -0.3339
 4129TIP3    H133802   0.779   2.741  14.025  1.8507 -1.2692  0.9771
 4129TIP3    H233803   0.782   2.892  14.026 -1.2931 -1.1254 -0.3080
 4130TIP3   OH233804   1.444   4.277   0.800  0.0062 -0.2274 -0.1722
 4130TIP3    H133805   1.414   4.232   0.878 -1.0816 -0.3330 -0.6322
 4130TIP3    H233806   1.490   4.209   0.749 -1.0319 -0.6643 -0.5467
 4131TIP3   OH233807   4.221   5.149   1.954 -0.2085  0.1178 -0.0052
 4131TIP3    H133808   4.214   5.241   1.929 -2.5718  0.0398  0.0985
 4131TIP3    H233809   4.226   5.150   2.050 -1.9416  0.1507  0.1234
 4132TIP3   OH233810   2.928   6.031   3.407 -0.0635 -0.1685 -0.0750
 4132TIP3    H133811   2.849   6.003   3.454 -0.5949  0.5627 -0.5243
 4132TIP3    H233812   2.979   5.950   3.397 -1.5061 -0.9844 -1.2323
 4133TIP3   OH233813   6.215   5.584  11.843 -0.0033  0.2179  0.2333
 4133TIP3    H133814   6.207   5.668  11.888  1.5464  0.1898  0.6127
 4133TIP3    H233815   6.166   5.523  11.898 -0.6006  0.7347  0.2956
 4134TIP3   OH233816   0.908   0.291   4.154  0.2873 -0.4351 -0.7439
 4134TIP3    H133817   0.862   0.326   4.077 -0.6671  1.3557  0.5693
 4134TIP3    H233818   0.989   0.254   4.118 -0.5612 -0.5577 -2.7096
 4135TIP3   OH233819   5.765   6.660   3.432  0.1470  0.0753  0.3656
 4135TIP3    H133820   5.826   6.606   3.382  0.0462  1.3557 -1.1925
 4135TIP3    H233821   5.797   6.749   3.423 -1.3689  0.6602  0.3608
 4136TIP3   OH233822   1.154   3.285  16.742 -0.2504  0.0895  0.7333
 4136TIP3    H133823   1.248   3.290  16.727 -0.1603  0.1322  1.3047
 4136TIP3    H233824   1.145   3.278  16.837 -0.5362 -5.7434  0.6294
 4137TIP3   OH233825   5.452   4.455  13.625 -0.3032 -0.0318 -0.3906
 4137TIP3    H133826   5.410   4.404  13.555 -0.0429  0.1553 -0.6894
 4137TIP3    H233827   5.390   4.451  13.698 -0.9611  0.4557 -0.9123
 4138TIP3   OH233828   1.550   0.066   1.159 -0.3754 -0.6169  0.3823
 4138TIP3    H133829   1.626   0.104   1.203  0.5025  0.0375 -1.5879
 4138TIP3    H233830   1.585  -0.010   1.113 -0.7546  0.0816 -1.0926
 4139TIP3   OH233831   4.470   0.363   0.323 -0.3365  0.6215 -0.1150
 4139TIP3    H133832   4.493   0.447   0.364 -1.2759  1.1239 -0.5892
 4139TIP3    H233833   4.547   0.308   0.337  2.0105  2.7916 -3.2427
 4140TIP3   OH233834   3.662   3.713  13.731  0.4276 -0.6191  0.5374
 4140TIP3    H133835   3.750   3.732  13.700  0.1520 -0.3946 -0.1149
 4140TIP3    H233836   3.611   3.698  13.652 -0.5168  0.9831  0.7865
 4141TIP3   OH233837   2.294   3.603  15.681  0.0511 -0.3155 -0.1456
 4141TIP3    H133838   2.258   3.654  15.608  0.9143 -2.3352 -2.1162
 4141TIP3    H233839   2.285   3.512  15.653  1.3797 -1.1285  1.8315
 4142TIP3   OH233840   4.165   0.955   0.979  0.3106 -0.6667 -0.1871
 4142TIP3    H133841   4.072   0.939   0.961 -0.1368 -0.6584  1.9476
 4142TIP3    H233842   4.195   1.006   0.903 -0.5890 -3.3036 -2.5154
 4143TIP3   OH233843   0.479   5.631   1.011  0.2343  0.1375  0.4396
 4143TIP3    H133844   0.389   5.601   1.008  0.1472  0.4497 -0.5985
 4143TIP3    H233845   0.526   5.562   1.058 -0.4853 -0.1806  0.7009
 4144TIP3   OH233846   2.685   5.870  11.684  0.2133  0.1072 -0.0490
 4144TIP3    H133847   2.649   5.786  11.658 -0.9126 -0.0420  1.8420
 4144TIP3    H233848   2.623   5.935  11.650  0.6155  0.1439 -0.7382
 4145TIP3   OH233849   6.669   2.779  14.118  0.4356  0.2926 -0.1473
 4145TIP3    H133850   6.578   2.799  14.140  0.7364  0.7469  0.7418
 4145TIP3    H233851   6.679   2.810  14.028 -0.6562 -1.0034 -0.7554
 4146TIP3   OH233852   2.320   6.565  11.382 -0.1840  0.3613 -0.0304
 4146TIP3    H133853   2.345   6.639  11.326 -0.5856 -0.8266 -1.8369
 4146TIP3    H233854   2.400   6.514  11.391  0.1373  1.0608  1.3626
 4147TIP3   OH233855   0.108   2.052   2.820  0.2568 -0.4535  0.0592
 4147TIP3    H133856   0.058   1.977   2.786  1.0141 -1.0514  0.2366
 4147TIP3    H233857   0.079   2.061   2.911 -0.7580  0.2739 -0.3243
 4148TIP3   OH233858   5.060   5.557  16.515  0.1741  0.2574 -0.6707
 4148TIP3    H133859   5.046   5.475  16.467 -1.3352 -0.1734  0.4106
 4148TIP3    H233860   5.078   5.530  16.605 -1.3835  1.0723 -0.0600
 4149TIP3   OH233861   6.122   2.742   4.728  0.4228  0.2669  0.5007
 4149TIP3    H133862   6.030   2.728   4.710  0.8248 -0.6342 -1.0057
 4149TIP3    H233863   6.133   2.717   4.820 -0.4973 -1.4082  0.1956
 4150TIP3   OH233864   5.505   3.922   0.902 -0.4900 -0.3513  0.0065
 4150TIP3    H133865   5.600   3.931   0.913 -0.7092  0.6965  1.2162
 4150TIP3    H233866   5.487   3.967   0.819  0.0492 -0.4753 -0.1863
 4151TIP3   OH233867   4.657   3.462  13.084  0.1716  0.0759 -0.4824
 4151TIP3    H133868   4.572   3.483  13.121 -0.0293 -0.3982 -0.6586
 4151TIP3    H233869   4.681   3.379  13.125 -0.2268 -0.6543 -1.6529
 4152TIP3   OH233870   6.534   4.598  12.928  0.1909  0.2158 -0.7642
 4152TIP3    H133871   6.456   4.592  12.982 -0.6566 -0.1972 -1.9761
 4152TIP3    H233872   6.552   4.692  12.920 -0.7148  0.3592 -1.1906
 4153TIP3   OH233873   3.359   5.827  15.902  0.4339  0.3608 -0.1464
 4153TIP3    H133874   3.277   5.841  15.854 -0.8742 -0.8842  1.5910
 4153TIP3    H233875   3.355   5.890  15.975 -0.7669 -1.9892  1.9806
 4154TIP3   OH233876   1.342   6.306   2.791 -0.4194  0.0445 -0.1408
 4154TIP3    H133877   1.402   6.233   2.785 -0.2990  0.0667  0.6994
 4154TIP3    H233878   1.396   6.380   2.820 -1.0009 -0.1571  1.5274
 4155TIP3   OH233879   2.758   4.642  15.044  0.3215  0.0080 -0.3355
 4155TIP3    H133880   2.729   4.645  15.135 -1.5785  1.6359 -0.9161
 4155TIP3    H233881   2.832   4.702  15.040 -0.8076  1.4820 -0.1910
 4156TIP3   OH233882   0.161   6.535   4.941 -0.4962  0.3003 -0.0923
 4156TIP3    H133883   0.252   6.509   4.928  0.1627  2.4756 -0.2555
 4156TIP3    H233884   0.112   6.453   4.936  1.4024 -0.8895 -0.3405
 4157TIP3   OH233885   0.722   2.134  14.943  0.2734  0.6524 -0.1577
 4157TIP3    H133886   0.636   2.146  14.904  0.0544 -0.3179  0.0054
 4157TIP3    H233887   0.708   2.070  15.013  1.1026  0.5872 -0.0424
 4158TIP3   OH233888   1.263   2.296  11.250  0.2897 -0.0351 -0.4867
 4158TIP3    H133889   1.262   2.214  11.298  0.1794 -0.3548 -1.0324
 4158TIP3    H233890   1.356   2.315  11.236  0.3016 -0.7594 -1.5210
 4159TIP3   OH233891   0.927   4.052   5.072  0.7678  0.1028  0.0076
 4159TIP3    H133892   1.005   4.046   5.016  1.5508 -0.7689  1.1351
 4159TIP3    H233893   0.941   3.984   5.139 -2.0296 -1.6460 -1.0415
 4160TIP3   OH233894   5.828   4.493   1.537 -0.8128 -0.0443 -0.4444
 4160TIP3    H133895   5.788   4.416   1.497  0.2431 -1.1776  0.5954
 4160TIP3    H233896   5.908   4.507   1.487 -0.2090 -0.6022  0.3419
 4161TIP3   OH233897   5.091   5.861  15.165  0.7088  0.0668 -0.8734
 4161TIP3    H133898   5.024   5.905  15.218  0.1737 -0.7192 -0.8654
 4161TIP3    H233899   5.170   5.914  15.177  0.1331  0.9226 -0.7487
 4162TIP3   OH233900   3.341   6.392   5.029  0.4745  0.0021 -0.4964
 4162TIP3    H133901   3.337   6.473   4.977  1.5817  0.0178 -0.5803
 4162TIP3    H233902   3.278   6.406   5.099 -0.3431  0.3735 -1.2873
 4163TIP3   OH233903   3.722   0.229   0.038 -0.4987  0.0652  0.2929
 4163TIP3    H133904   3.781   0.303   0.026 -0.7656  0.1284 -0.6758
 4163TIP3    H233905   3.645   0.250  -0.015 -1.7603  0.3409  2.1361
 4164TIP3   OH233906   6.675   3.828   4.919  0.7267  0.4682 -0.1311
 4164TIP3    H133907   6.650   3.736   4.929  0.7628  0.2572 -1.7475
 4164TIP3    H233908   6.623   3.874   4.985  0.8829 -0.7222  0.8583
 4165TIP3   OH233909   1.571   3.544   1.833 -0.1409  0.4455  0.0713
 4165TIP3    H133910   1.662   3.516   1.849  0.6751 -0.2593 -4.4958
 4165TIP3    H233911   1.572   3.638   1.852  1.2540  0.2717  1.0573
 4166TIP3   OH233912   5.267   3.113   5.037 -0.0787  0.5433 -0.1835
 4166TIP3    H133913   5.332   3.140   4.972 -2.0045 -0.2223 -2.5973
 4166TIP3    H233914   5.193   3.081   4.985 -2.2595  0.9985  2.4096
 4167TIP3   OH233915   1.512   3.583   4.188 -0.1959 -0.2627  0.0229
 4167TIP3    H133916   1.496   3.658   4.131  1.4768  0.6903  0.7378
 4167TIP3    H233917   1.430   3.571   4.236 -0.7775  0.5154 -0.7540
 4168TIP3   OH233918   6.511   4.063  11.189 -0.6536  0.0307  0.0351
 4168TIP3    H133919   6.529   4.148  11.149 -0.1762  0.3038  0.8159
 4168TIP3    H233920   6.527   4.076  11.282  1.6993 -1.4580 -0.0570
 4169TIP3   OH233921   3.280   2.896  13.073  0.3190  0.2933  0.1798
 4169TIP3    H133922   3.313   2.832  13.136  1.1973  1.1532  0.6224
 4169TIP3    H233923   3.300   2.858  12.987  1.6930  0.3877  0.4378
 4170TIP3   OH233924   0.767   5.787  12.521  0.1530  0.0508  0.3289
 4170TIP3    H133925   0.684   5.770  12.477  1.3895 -0.3313 -1.9986
 4170TIP3    H233926   0.814   5.704  12.520  0.9204  0.4564  0.8193
 4171TIP3   OH233927   1.165   1.757   3.733 -0.3004  0.6162  0.2294
 4171TIP3    H133928   1.166   1.769   3.828  1.9267  0.9252  0.2447
 4171TIP3    H233929   1.161   1.846   3.698 -0.5694  0.5303  0.0383
 4172TIP3   OH233930   4.813   4.698  15.248 -0.0400  0.1957 -0.1910
 4172TIP3    H133931   4.847   4.660  15.167  0.3874 -0.3016  0.2134
 4172TIP3    H233932   4.869   4.661  15.317  0.0076  1.1107  0.2669
 4173TIP3   OH233933   5.595   1.388   0.462 -0.1274 -0.0130 -0.0307
 4173TIP3    H133934   5.521   1.447   0.473  0.4999  0.4923  1.7494
 4173TIP3    H233935   5.563   1.303   0.494 -0.1995 -0.0084 -0.0893
 4174TIP3   OH233936   6.291   5.640   2.387  0.1676 -0.0678 -0.0755
 4174TIP3    H133937   6.376   5.628   2.344 -0.3780 -0.5185 -1.0517
 4174TIP3    H233938   6.239   5.689   2.324 -0.4331 -0.1448  0.3527
 4175TIP3   OH233939   1.702   1.039  13.958  0.0347 -0.3458 -0.4641
 4175TIP3    H133940   1.712   0.950  13.992  1.2685  0.0636  0.3230
 4175TIP3    H233941   1.617   1.039  13.915  0.2135 -2.0348 -0.8800
 4176TIP3   OH233942   6.207   6.404   1.221 -0.6941 -0.1936 -0.1121
 4176TIP3    H133943   6.261   6.402   1.142  0.3918  1.4671  0.5279
 4176TIP3    H233944   6.167   6.317   1.225  0.1526 -0.7126 -1.8321
 4177TIP3   OH233945   3.894   6.285   2.743 -0.2256 -0.3727  0.9176
 4177TIP3    H133946   3.801   6.282   2.763 -0.5421  0.2685 -0.3197
 4177TIP3    H233947   3.903   6.233   2.663  0.5600 -0.8119  1.2772
 4178TIP3   OH233948   5.111   3.065  10.425  0.3104  0.1491  0.1133
 4178TIP3    H133949   5.072   3.125  10.361 -0.2952 -0.1187  0.2226
 4178TIP3    H233950   5.036   3.027  10.470  0.7534  0.9845  1.5983
 4179TIP3   OH233951   4.089   3.237   4.344  0.3249  0.0364 -0.2168
 4179TIP3    H133952   4.083   3.313   4.287  1.4833 -0.2781 -0.7924
 4179TIP3    H233953   4.174   3.246   4.387  1.0736 -1.5564 -1.2672
 4180TIP3   OH233954   1.621   5.842  11.469 -0.0033 -0.2625  0.0735
 4180TIP3    H133955   1.713   5.854  11.446 -0.1056 -0.4415 -0.4497
 4180TIP3    H233956   1.596   5.761  11.425 -0.4774 -0.0876  0.0140
 4181TIP3   OH233957   4.117   4.603  16.059 -0.0278 -0.1752 -0.0228
 4181TIP3    H133958   4.055   4.667  16.093  2.2870  2.2617 -0.0569
 4181TIP3    H233959   4.149   4.557  16.137 -0.4038 -0.0442  0.2119
 4182TIP3   OH233960   5.898   0.872   2.617  0.7553  0.2591  0.1612
 4182TIP3    H133961   5.868   0.947   2.669  0.9478  0.7755 -0.4583
 4182TIP3    H233962   5.840   0.872   2.541 -1.1156 -1.9106  1.4374
 4183TIP3   OH233963   2.334   3.895  16.502  0.7922 -0.1405 -0.3250
 4183TIP3    H133964   2.324   3.801  16.518 -0.5591  0.0577  0.1396
 4183TIP3    H233965   2.423   3.904  16.467  1.1659 -1.5073  0.2040
 4184TIP3   OH233966   5.773   1.298  11.656  0.4082 -0.0000  0.3517
 4184TIP3    H133967   5.681   1.272  11.658  0.5315 -1.3630 -3.4694
 4184TIP3    H233968   5.772   1.393  11.659 -1.5504  0.2412 -3.0925
 4185TIP3   OH233969   4.546   3.661   3.838  0.4041  0.2913  0.1570
 4185TIP3    H133970   4.451   3.649   3.826 -0.2551  0.6543  3.7490
 4185TIP3    H233971   4.569   3.595   3.903  2.2661  1.3257  0.5984
 4186TIP3   OH233972   3.609   0.931   5.136 -0.0790  0.7487 -0.4206
 4186TIP3    H133973   3.607   0.974   5.050 -0.2136  2.6507  0.4891
 4186TIP3    H233974   3.699   0.946   5.167 -0.1447  0.4041 -0.0708
 4187TIP3   OH233975   3.987   2.633  15.567  0.3388 -0.2114 -0.3362
 4187TIP3    H133976   4.073   2.654  15.603  0.4442  0.2726 -0.8615
 4187TIP3    H233977   3.949   2.573  15.631  0.9332 -0.1727  0.0655
 4188TIP3   OH233978   3.149   2.425   1.608  0.6522  0.0559  0.1059
 4188TIP3    H133979   3.207   2.359   1.570  2.6032  2.2881 -1.0613
 4188TIP3    H233980   3.128   2.483   1.535  0.4067  1.6636  1.4047
 4189TIP3   OH233981   4.087   5.201   6.596  0.2898  0.3512 -0.4241
 4189TIP3    H133982   4.003   5.182   6.555  0.5437 -0.7546 -0.4780
 4189TIP3    H233983   4.075   5.178   6.688  0.7768 -0.6690 -0.6014
 4190TIP3   OH233984   4.341   5.461  12.689  0.1847  0.3675 -0.2585
 4190TIP3    H133985   4.252   5.471  12.655  0.3447 -1.0059 -1.1494
 4190TIP3    H233986   4.358   5.543  12.737 -0.5138  1.8550 -2.4181
 4191TIP3   OH233987   1.267   0.271  15.764  0.3197 -0.1056 -0.0344
 4191TIP3    H133988   1.341   0.309  15.812 -1.0289  1.2817  1.0662
 4191TIP3    H233989   1.215   0.228  15.832 -1.4158  1.5465 -0.2363
 4192TIP3   OH233990   0.618   5.381  13.726 -0.4578  0.4183 -0.1072
 4192TIP3    H133991   0.523   5.384  13.715 -0.3853  0.4521 -0.8008
 4192TIP3    H233992   0.633   5.306  13.783 -0.8362 -0.3258 -0.9537
 4193TIP3   OH233993   1.419   0.316   4.405  0.0087  0.4968  0.0049
 4193TIP3    H133994   1.476   0.260   4.352 -2.4054 -2.1627 -0.0673
 4193TIP3    H233995   1.405   0.266   4.485 -1.7256  1.3191  0.2553
 4194TIP3   OH233996   0.102   6.419  10.680 -0.2172 -0.2360 -0.0184
 4194TIP3    H133997   0.063   6.470  10.752  0.3137 -0.2659  0.2987
 4194TIP3    H233998   0.061   6.453  10.601 -0.4767  0.1138  0.2642
 4195TIP3   OH233999   0.023   6.148   2.883 -0.1569 -0.2806 -0.1618
 4195TIP3    H134000   0.034   6.092   2.959  1.4581  0.5457  0.2594
 4195TIP3    H234001   0.070   6.103   2.813  1.4814  0.6440  0.2721
 4196TIP3   OH234002   5.293   2.781  12.309  0.3949  0.4858  0.2216
 4196TIP3    H134003   5.361   2.790  12.243  0.1515 -0.9746 -0.2583
 4196TIP3    H234004   5.239   2.860  12.298  0.5988  0.4694 -1.0516
 4197TIP3   OH234005   6.572   5.513  13.490 -1.1188  0.8319  0.0659
 4197TIP3    H134006   6.543   5.567  13.416 -1.5068  1.6244  0.7791
 4197TIP3    H234007   6.644   5.562  13.529 -2.9607  2.0995  2.1514
 4198TIP3   OH234008   1.931   0.110   5.062  0.0826 -0.0280 -0.5562
 4198TIP3    H134009   1.901   0.173   5.128 -3.1095 -1.0966 -0.8565
 4198TIP3    H234010   1.924   0.157   4.979  3.8707  1.2343 -0.3518
 4199TIP3   OH234011   2.356   6.615  12.758  0.4945 -0.1666  0.1687
 4199TIP3    H134012   2.440   6.626  12.712  1.7064 -0.7569  2.1272
 4199TIP3    H234013   2.336   6.701  12.794  0.7686 -0.2502  0.5220
 4200TIP3   OH234014   4.169   1.602   0.381  0.3990 -0.0045 -0.5580
 4200TIP3    H134015   4.142   1.563   0.297  1.2281 -0.4250 -0.6409
 4200TIP3    H234016   4.242   1.548   0.410  0.5827  0.5775  0.0936
 4201TIP3   OH234017   0.289   0.412  15.628  0.1527  0.3119  0.7135
 4201TIP3    H134018   0.271   0.477  15.560 -1.4206  0.9301  1.6445
 4201TIP3    H234019   0.202   0.393  15.665  0.6866 -1.6960  1.0378
 4202TIP3   OH234020   5.355   4.208  16.672  0.8386  0.4197 -0.2139
 4202TIP3    H134021   5.262   4.213  16.693  0.3447 -1.9978 -1.4539
 4202TIP3    H234022   5.400   4.229  16.754 -0.7910  0.9084  0.5932
 4203TIP3   OH234023   5.422   2.965   4.525  0.6170  0.2926 -0.3542
 4203TIP3    H134024   5.385   2.878   4.508  1.1788 -0.2889  1.2413
 4203TIP3    H234025   5.515   2.949   4.542  1.1114  1.4391 -1.7075
 4204TIP3   OH234026   4.482   3.637   4.379 -0.4221 -0.1779  0.0198
 4204TIP3    H134027   4.543   3.621   4.451 -1.6740  0.3558  1.2426
 4204TIP3    H234028   4.463   3.731   4.383 -1.0306 -0.2612 -0.5912
 4205TIP3   OH234029   1.963   0.634   1.807  0.6595 -0.8155 -0.3025
 4205TIP3    H134030   2.031   0.618   1.741  1.4559  1.0177  0.0365
 4205TIP3    H234031   1.911   0.706   1.771  0.0546 -0.9417  0.3102
 4206TIP3   OH234032   1.637   6.388   5.722  0.1991 -0.3734  0.0537
 4206TIP3    H134033   1.726   6.411   5.746  0.1025 -0.5007  0.5579
 4206TIP3    H234034   1.632   6.293   5.736 -0.1910 -0.2762  0.6574
 4207TIP3   OH234035   1.317   6.162   0.183  0.1421  0.2042 -0.3471
 4207TIP3    H134036   1.345   6.211   0.261 -1.9994  1.0169 -0.0314
 4207TIP3    H234037   1.231   6.198   0.162  0.3990 -0.4376 -2.7453
 4208TIP3   OH234038   2.469   5.607  11.248  0.1878 -0.6015 -0.4624
 4208TIP3    H134039   2.482   5.556  11.168 -1.8481 -0.4430 -0.9611
 4208TIP3    H234040   2.509   5.555  11.317  0.8396 -1.3704 -1.3948
 4209TIP3   OH234041   0.848   5.313   2.870  0.1010 -0.1548 -0.0167
 4209TIP3    H134042   0.864   5.224   2.901  1.3135  0.3419  0.8621
 4209TIP3    H234043   0.857   5.368   2.949 -1.4711  0.6772 -0.3606
 4210TIP3   OH234044   5.081   4.962  15.209  0.0856  0.0150 -1.0285
 4210TIP3    H134045   5.034   5.044  15.194 -0.1690 -0.0923 -0.8359
 4210TIP3    H234046   5.063   4.942  15.301 -0.4518 -0.6335 -1.2706
 4211TIP3   OH234047   3.608   2.486   4.368 -0.2517  0.4256 -0.4556
 4211TIP3    H134048   3.525   2.467   4.412 -0.5367  1.1367 -0.6731
 4211TIP3    H234049   3.604   2.580   4.349  0.4841  0.4099 -0.7188
 4212TIP3   OH234050   3.850   4.844  12.685  0.5210 -0.1724 -0.6882
 4212TIP3    H134051   3.905   4.831  12.762  0.5970 -1.2947 -0.9134
 4212TIP3    H234052   3.763   4.865  12.721  0.3597 -1.4786 -0.2661
 4213TIP3   OH234053   3.969   5.901   2.945 -0.2202  0.7054  0.3169
 4213TIP3    H134054   3.921   5.881   2.864 -0.5542 -1.3804  0.9671
 4213TIP3    H234055   3.935   5.986   2.972 -1.3331  0.6731 -0.8573
 4214TIP3   OH234056   4.062   1.962  12.763  0.4157  0.0194  0.2646
 4214TIP3    H134057   3.994   1.895  12.758  0.6946 -0.2302 -0.3206
 4214TIP3    H234058   4.068   1.983  12.857  0.7810 -1.2647  0.5501
 4215TIP3   OH234059   2.836   1.365  12.517  0.2242  0.2760 -0.0720
 4215TIP3    H134060   2.828   1.443  12.572 -0.9745  0.8628 -1.0142
 4215TIP3    H234061   2.921   1.374  12.474  0.5218  0.5519  0.5616
 4216TIP3   OH234062   6.173   1.935  15.258 -0.4081 -0.3475  0.1391
 4216TIP3    H134063   6.190   1.956  15.350  1.0188  0.4263 -0.2695
 4216TIP3    H234064   6.108   2.000  15.231 -2.2363 -1.7058  1.0361
 4217TIP3   OH234065   3.345   0.534  14.522  0.4811 -0.4358  0.0046
 4217TIP3    H134066   3.291   0.459  14.496  2.2234 -1.9039  0.4536
 4217TIP3    H234067   3.282   0.606  14.532 -1.2134 -1.7475 -0.6897
 4218TIP3   OH234068   0.523   6.088  17.038 -0.2918 -0.2238 -0.5640
 4218TIP3    H134069   0.603   6.134  17.012 -0.8269  0.9103 -0.2699
 4218TIP3    H234070   0.534   6.073  17.132 -0.5026  0.0948 -0.4889
 4219TIP3   OH234071   2.522   0.371  15.081  0.3353  0.5342  0.1491
 4219TIP3    H134072   2.598   0.392  15.135  0.7077  0.4202 -0.3246
 4219TIP3    H234073   2.513   0.445  15.022 -1.3552  1.6676  1.7230
 4220TIP3   OH234074   1.767   5.848  14.568  0.2989 -0.0538 -0.4870
 4220TIP3    H134075   1.855   5.843  14.603  0.5024  0.5431 -0.8948
 4220TIP3    H234076   1.777   5.823  14.476 -0.0507 -0.5306 -0.4008
 4221TIP3   OH234077   1.301   5.910   6.120  0.6481 -0.1656  0.4695
 4221TIP3    H134078   1.238   5.865   6.177 -0.1547  0.9816  0.5252
 4221TIP3    H234079   1.291   5.868   6.035 -2.0250  1.5777 -0.1907
 4222TIP3   OH234080   5.376   0.702   4.371  0.1103  0.5111  0.3370
 4222TIP3    H134081   5.373   0.608   4.355  1.6086  0.7411 -1.6373
 4222TIP3    H234082   5.437   0.712   4.445  1.3680  0.0169 -0.6026
 4223TIP3   OH234083   2.820   2.959   1.299  0.2358  0.1117  0.3421
 4223TIP3    H134084   2.732   2.980   1.332  1.1722  2.1459  1.7063
 4223TIP3    H234085   2.833   3.019   1.226  1.9104  2.7616  2.6096
 4224TIP3   OH234086   4.568   6.541  10.628  0.5408 -0.0858  0.1625
 4224TIP3    H134087   4.504   6.605  10.597  0.7002  0.2129  0.4527
 4224TIP3    H234088   4.618   6.587  10.696  2.1761  0.2488 -1.1971
 4225TIP3   OH234089   2.928   5.930   3.992 -0.6300 -0.1329 -0.0985
 4225TIP3    H134090   2.907   6.019   3.966  0.4996  0.3160  0.4286
 4225TIP3    H234091   3.023   5.923   3.979 -0.5292 -0.9008  0.8733
 4226TIP3   OH234092   5.897   2.499   0.920  0.2793 -0.1790  0.0988
 4226TIP3    H134093   5.864   2.528   1.005  1.9915 -0.6252  0.9599
 4226TIP3    H234094   5.906   2.404   0.929  1.5283 -0.0970 -0.1781
 4227TIP3   OH234095   6.188   6.368   3.442 -0.2498 -0.0767 -0.4209
 4227TIP3    H134096   6.267   6.410   3.476 -1.6060  1.3675  1.1469
 4227TIP3    H234097   6.186   6.283   3.485  0.2206  0.0447 -0.1472
 4228TIP3   OH234098   0.075   6.604   2.797 -0.2202  0.4571  0.1080
 4228TIP3    H134099   0.160   6.571   2.828 -0.7819 -1.0648  0.1226
 4228TIP3    H234100   0.080   6.594   2.702 -0.8274 -0.8405  0.1917
 4229TIP3   OH234101   6.239   0.634   5.282 -0.6078 -0.7523 -0.7002
 4229TIP3    H134102   6.166   0.692   5.261  0.1479  0.0056 -1.3061
 4229TIP3    H234103   6.278   0.612   5.197  1.0331  0.4114 -0.2969
 4230TIP3   OH234104   3.990   5.629   1.912  0.4853  0.1414 -0.7418
 4230TIP3    H134105   3.961   5.598   1.998 -3.6537 -0.2568 -2.0746
 4230TIP3    H234106   4.018   5.549   1.866  1.4355  0.1730 -0.2383
 4231TIP3   OH234107   3.748   2.564   6.432  0.1080  0.1221  0.1887
 4231TIP3    H134108   3.735   2.656   6.451  0.6633  0.4035 -0.7265
 4231TIP3    H234109   3.670   2.520   6.467 -0.7016  1.0742 -0.3811
 4232TIP3   OH234110   5.993   4.581  14.771 -0.4266 -0.1493 -0.3328
 4232TIP3    H134111   5.992   4.675  14.792 -0.3065 -0.4695  1.2041
 4232TIP3    H234112   6.086   4.557  14.771 -0.4462 -0.2511 -0.8877
 4233TIP3   OH234113   3.499   1.483   1.214 -0.2953  0.1048 -0.2309
 4233TIP3    H134114   3.410   1.452   1.228  0.0760 -0.3557  1.3729
 4233TIP3    H234115   3.490   1.571   1.180 -1.3670  0.3635  0.6834
 4234TIP3   OH234116   3.949   0.415  16.451 -0.5305 -0.5865  0.7975
 4234TIP3    H134117   3.976   0.340  16.503  1.7191  0.4802  1.3213
 4234TIP3    H234118   3.933   0.484  16.515 -0.3813 -0.0205  0.2413
 4235TIP3   OH234119   3.008   5.036  14.356  0.0465 -0.6335  0.2034
 4235TIP3    H134120   2.976   5.115  14.401  0.3859 -0.6115  0.4051
 4235TIP3    H234121   3.067   5.069  14.289 -0.8046 -0.6346 -0.5754
 4236TIP3   OH234122   1.213   5.716  16.038 -0.0251  0.2387  0.3073
 4236TIP3    H134123   1.298   5.683  16.006  1.9504  2.4053  2.8887
 4236TIP3    H234124   1.206   5.681  16.127 -1.3533  0.9423  0.4993
 4237TIP3   OH234125   0.083   5.920  11.586  0.1031 -0.2453  0.4160
 4237TIP3    H134126   0.160   5.974  11.569  0.5129 -0.9340  0.0077
 4237TIP3    H234127   0.090   5.897  11.679  1.6582 -2.1490 -0.0927
 4238TIP3   OH234128   4.314   6.308   6.169  0.0214  0.0578 -0.0815
 4238TIP3    H134129   4.277   6.312   6.257 -0.7838  1.2668 -0.4520
 4238TIP3    H234130   4.408   6.304   6.182 -0.0677  0.7217  0.8254
 4239TIP3   OH234131   5.291   3.319  14.290  0.3041  0.2659  0.0146
 4239TIP3    H134132   5.250   3.238  14.261 -0.7267  1.2416 -1.4075
 4239TIP3    H234133   5.219   3.382  14.293  0.9744  0.9991  1.6776
 4240TIP3   OH234134   4.845   2.941   0.267  0.2294  0.2053  0.0046
 4240TIP3    H134135   4.940   2.927   0.268  0.3674  1.0690 -0.4182
 4240TIP3    H234136   4.811   2.879   0.332  0.8803 -1.5276 -1.2463
 4241TIP3   OH234137   4.777   0.719  14.564  0.2503  0.3605 -0.5506
 4241TIP3    H134138   4.767   0.780  14.638 -0.1919  0.1633 -0.4478
 4241TIP3    H234139   4.754   0.771  14.487 -1.6423 -0.0868 -0.3182
 4242TIP3   OH234140   0.311   6.688   3.001 -1.1873  0.1664 -0.3876
 4242TIP3    H134141   0.394   6.719   3.036 -3.0026  0.3277  4.4749
 4242TIP3    H234142   0.269   6.767   2.967 -0.1668  0.3779 -1.2361
 4243TIP3   OH234143   1.587   3.394  14.349  0.5605  0.1668  0.2309
 4243TIP3    H134144   1.659   3.358  14.298  0.5309 -0.0725  0.3583
 4243TIP3    H234145   1.563   3.475  14.302  1.0573  0.3700  0.3146
 4244TIP3   OH234146   6.711   5.583   2.594 -0.2176  0.2379  0.1415
 4244TIP3    H134147   6.770   5.531   2.540  0.1519  1.3446 -0.5597
 4244TIP3    H234148   6.667   5.519   2.650 -1.5234 -1.1196 -2.2684
 4245TIP3   OH234149   5.788   5.648   1.512 -0.2445 -0.1419  0.2325
 4245TIP3    H134150   5.740   5.621   1.591 -1.7122  0.1170 -0.5349
 4245TIP3    H234151   5.729   5.626   1.440  0.6341  0.5805 -0.7259
 4246TIP3   OH234152   5.782   1.137   3.297  0.3151  0.1605  0.2622
 4246TIP3    H134153   5.817   1.054   3.331  0.8271  0.5020  0.5865
 4246TIP3    H234154   5.860   1.191   3.282  0.1089  0.0254 -1.4636
 4247TIP3   OH234155   1.994   0.012   3.776  0.2219 -0.0493  0.4335
 4247TIP3    H134156   2.008  -0.049   3.848 -0.3438 -0.3962  0.2570
 4247TIP3    H234157   1.899   0.022   3.771  0.3352  1.7339  1.1928
 4248TIP3   OH234158   3.371   3.711   4.903 -0.0881 -0.0646 -0.1015
 4248TIP3    H134159   3.405   3.638   4.852 -1.0242 -0.4251 -0.2189
 4248TIP3    H234160   3.407   3.789   4.860  1.1518 -0.4425  0.2046
 4249TIP3   OH234161   5.902   4.018   3.050 -0.3102  0.1426 -0.0323
 4249TIP3    H134162   5.926   4.110   3.047 -0.3081  0.1525  0.2944
 4249TIP3    H234163   5.961   3.976   2.987 -0.8508  0.4823 -0.7802
 4250TIP3   OH234164   2.065   0.178   2.964 -0.5920 -0.2562 -0.2474
 4250TIP3    H134165   1.989   0.125   2.989 -2.3558  1.7989 -0.9289
 4250TIP3    H234166   2.050   0.263   3.005  2.3466 -0.2858  1.1734
 4251TIP3   OH234167   6.094   0.792  12.619 -0.3140 -0.1513 -0.0632
 4251TIP3    H134168   6.171   0.850  12.619  0.8327 -1.5858 -1.2022
 4251TIP3    H234169   6.123   0.714  12.571 -1.2589 -2.3528  2.6271
 4252TIP3   OH234170   4.595   0.659   4.180 -0.0022  0.0567  0.2736
 4252TIP3    H134171   4.513   0.625   4.217 -0.9324  2.0166  0.1511
 4252TIP3    H234172   4.576   0.751   4.162  1.8675  0.2580 -0.8896
 4253TIP3   OH234173   3.175   6.585  17.019 -0.0700  0.5118 -0.6107
 4253TIP3    H134174   3.198   6.523  17.089  1.4864  1.6580 -0.0524
 4253TIP3    H234175   3.249   6.580  16.958 -0.6501  0.7321 -1.3445
 4254TIP3   OH234176   2.973   4.845   1.911 -0.1581 -0.1584  0.1360
 4254TIP3    H134177   2.878   4.841   1.925 -0.1007 -0.1707  0.5138
 4254TIP3    H234178   3.009   4.784   1.975  0.1329  0.1254  0.2433
 4255TIP3   OH234179   5.388   3.320  16.090  0.3250  0.6699 -0.0713
 4255TIP3    H134180   5.351   3.403  16.120 -1.8472  0.3320 -1.5678
 4255TIP3    H234181   5.405   3.333  15.996  0.4272 -0.3996 -0.2238
 4256TIP3   OH234182   6.284   3.825   4.152 -0.3112  0.0603 -0.6824
 4256TIP3    H134183   6.244   3.830   4.065  1.6000 -1.6743 -1.7573
 4256TIP3    H234184   6.341   3.901   4.157 -2.2796  1.5743  0.1580
 4257TIP3   OH234185   3.452   1.719   1.107 -0.0439  0.4758  0.3467
 4257TIP3    H134186   3.503   1.792   1.142 -0.1594  0.7811 -0.1137
 4257TIP3    H234187   3.362   1.751   1.105  0.1826  1.0969 -1.8241
 4258TIP3   OH234188   2.139   3.017  13.283 -0.0181 -0.2274  0.3989
 4258TIP3    H134189   2.090   2.976  13.354 -0.7771  0.4172  0.2581
 4258TIP3    H234190   2.074   3.067  13.235  0.1755 -1.7646 -1.6182
 4259TIP3   OH234191   1.752   5.582  10.793 -0.0364 -0.1793  0.0037
 4259TIP3    H134192   1.732   5.510  10.853  3.3477 -1.8330 -0.5948
 4259TIP3    H234193   1.745   5.543  10.706  0.7194  0.4938 -0.3768
 4260TIP3   OH234194   3.472   2.317   0.492 -0.4899 -0.0560  0.0939
 4260TIP3    H134195   3.547   2.305   0.434 -1.3180  0.6655 -1.1740
 4260TIP3    H234196   3.465   2.235   0.540 -0.1070 -0.8942 -1.2447
 4261TIP3   OH234197   6.186   2.546  11.233  0.5607 -0.3229 -0.3793
 4261TIP3    H134198   6.213   2.470  11.181 -0.6165 -1.7512  1.0064
 4261TIP3    H234199   6.265   2.572  11.280  1.1327 -0.2556 -1.3408
 4262TIP3   OH234200   6.235   4.355  15.844 -0.0041 -0.3431  0.1296
 4262TIP3    H134201   6.311   4.352  15.786 -0.1791  0.7971 -0.1931
 4262TIP3    H234202   6.181   4.426  15.808 -1.3949 -1.3708  0.1281
 4263TIP3   OH234203   6.674   0.701   6.105  0.2259 -0.5495 -0.1079
 4263TIP3    H134204   6.657   0.714   6.198 -0.3570  0.0016 -0.2884
 4263TIP3    H234205   6.664   0.788   6.066  0.5098 -0.7668 -0.6837
 4264TIP3   OH234206   2.614   1.129  14.346  0.0697  0.3167 -0.0410
 4264TIP3    H134207   2.612   1.098  14.436 -0.1728 -0.1707 -0.2070
 4264TIP3    H234208   2.694   1.090  14.309  0.3032  0.7182  0.0273
 4265TIP3   OH234209   2.477   4.200   3.260  0.3724  0.1864  0.1324
 4265TIP3    H134210   2.460   4.266   3.193  0.2802  1.0174  0.9744
 4265TIP3    H234211   2.501   4.249   3.338 -0.0569 -0.7590  0.8764
 4266TIP3   OH234212   4.197   2.721  16.876  0.1486 -0.6826  0.3629
 4266TIP3    H134213   4.106   2.702  16.897 -0.0559  0.7701  0.9444
 4266TIP3    H234214   4.225   2.648  16.822 -0.7503 -2.1772  1.8128
 4267TIP3   OH234215   2.648   1.692  15.833 -0.5968  0.2868 -0.1972
 4267TIP3    H134216   2.600   1.611  15.854  1.7767 -0.7965  1.5684
 4267TIP3    H234217   2.656   1.691  15.738 -4.3916  0.8325 -0.6661
 4268TIP3   OH234218   0.803   3.980   1.308  0.2738  0.1681  0.7037
 4268TIP3    H134219   0.753   3.938   1.238  0.1348  0.8761  0.3698
 4268TIP3    H234220   0.825   3.908   1.368 -0.1469 -0.3405  0.2615
 4269TIP3   OH234221   4.352   1.870  12.730 -0.1826  0.8444 -0.1097
 4269TIP3    H134222   4.381   1.784  12.698  0.9588  1.6316 -1.2692
 4269TIP3    H234223   4.292   1.849  12.803  1.9012 -0.8931  1.2326
 4270TIP3   OH234224   3.303   6.709  14.362 -0.0751 -0.0549 -0.7779
 4270TIP3    H134225   3.327   6.775  14.297  1.5371 -2.3613 -2.7004
 4270TIP3    H234226   3.228   6.663  14.323  1.1240 -1.6922 -1.2375
 4271TIP3   OH234227   5.594   3.671   2.855 -0.0168  0.4983  0.1003
 4271TIP3    H134228   5.574   3.659   2.948 -0.8290  1.0611  0.0052
 4271TIP3    H234229   5.689   3.659   2.850 -0.1433 -1.0166  0.7574
 4272TIP3   OH234230   4.666   2.004   0.700 -0.1044  0.0701 -0.0837
 4272TIP3    H134231   4.596   1.949   0.667 -1.0925  1.6251 -0.6995
 4272TIP3    H234232   4.662   1.995   0.795 -1.2620  0.2567 -0.1062
 4273TIP3   OH234233   5.742   5.414   5.608 -0.1210 -0.1783 -0.3910
 4273TIP3    H134234   5.721   5.506   5.626 -0.8590 -0.2071 -0.9998
 4273TIP3    H234235   5.668   5.366   5.645  0.1028 -0.4963 -0.3632
 4274TIP3   OH234236   3.436   6.065  14.622  0.1553 -0.0603 -0.0554
 4274TIP3    H134237   3.344   6.066  14.595  0.0872  2.6678 -0.0302
 4274TIP3    H234238   3.444   6.142  14.680  2.2235 -0.8504  0.7791
 4275TIP3   OH234239   3.401   3.967   2.419  0.0973  0.0919 -0.3342
 4275TIP3    H134240   3.335   3.898   2.412 -0.6286  0.8429 -1.0538
 4275TIP3    H234241   3.366   4.027   2.484 -0.0625  0.6307 -0.9131
 4276TIP3   OH234242   1.124   3.098   3.981  0.0026 -0.2104  0.0895
 4276TIP3    H134243   1.181   3.057   3.916  1.3680  1.3638  0.2213
 4276TIP3    H234244   1.074   3.025   4.019  0.6639 -1.4114 -1.2611
 4277TIP3   OH234245   1.501   0.024  11.413 -0.0524  0.6415  0.1954
 4277TIP3    H134246   1.589   0.021  11.450 -0.5198 -1.3605  1.2383
 4277TIP3    H234247   1.507  -0.027  11.332 -0.4216 -0.1688  0.6735
 4278TIP3   OH234248   0.013   3.145   5.404  0.6210  0.0187 -0.1974
 4278TIP3    H134249  -0.079   3.127   5.383  0.7502 -1.5023  0.4089
 4278TIP3    H234250   0.055   3.159   5.319 -0.4829  2.6772 -0.4171
 4279TIP3   OH234251   4.596   5.702   0.046 -0.2938  0.3668  0.2487
 4279TIP3    H134252   4.593   5.776  -0.014  2.9529  1.0943  0.7996
 4279TIP3    H234253   4.620   5.628  -0.010  1.4185  0.7861  0.3713
 4280TIP3   OH234254   5.124   2.128   2.208  0.0042 -0.1877 -0.1088
 4280TIP3    H134255   5.179   2.128   2.131  0.0583  1.0763 -0.0851
 4280TIP3    H234256   5.165   2.065   2.268  2.0963  1.5540  0.3751
 4281TIP3   OH234257   4.787   5.179  17.125 -0.5725  0.2653 -0.5367
 4281TIP3    H134258   4.879   5.204  17.137 -0.6137 -0.5263  2.2409
 4281TIP3    H234259   4.753   5.241  17.062  1.7352  0.9115 -1.2475
 4282TIP3   OH234260   6.457   0.306   1.014 -0.5261  0.3599 -0.8390
 4282TIP3    H134261   6.475   0.314   0.920 -0.5572 -0.3993 -0.9134
 4282TIP3    H234262   6.513   0.372   1.054  0.2980 -0.0278 -1.3132
 4283TIP3   OH234263   4.966   2.411   3.427 -0.1819 -0.6850 -0.2425
 4283TIP3    H134264   4.992   2.401   3.335 -0.1668 -2.7058 -0.0562
 4283TIP3    H234265   5.028   2.358   3.476  0.4881  1.2289  1.1144
 4284TIP3   OH234266   4.030   1.450  14.005 -0.6678  0.5753 -0.0533
 4284TIP3    H134267   4.057   1.539  13.983 -1.4912  1.2437  1.4902
 4284TIP3    H234268   4.084   1.426  14.080 -0.4200 -0.2545 -0.4843
 4285TIP3   OH234269   5.017   3.002  16.617  0.4186  0.4115 -0.0198
 4285TIP3    H134270   5.027   2.955  16.700 -0.1911  0.2867 -0.0150
 4285TIP3    H234271   5.079   3.075  16.624  1.5141 -0.4740 -0.1020
 4286TIP3   OH234272   0.475   0.906  16.128 -0.5224  0.5023  0.4758
 4286TIP3    H134273   0.453   0.963  16.054 -0.2325  1.6272  1.2175
 4286TIP3    H234274   0.393   0.899  16.177 -0.7212 -0.2645  0.0378
 4287TIP3   OH234275   1.883   0.273  15.846  0.4661 -0.0056  0.4210
 4287TIP3    H134276   1.864   0.234  15.761 -1.5440 -0.2146  0.9004
 4287TIP3    H234277   1.915   0.201  15.900 -1.1363 -0.5631  0.6748
 4288TIP3   OH234278   1.991   0.268  13.950  0.2518  0.3619  0.0057
 4288TIP3    H134279   2.029   0.350  13.918  0.2841  0.3195 -0.0636
 4288TIP3    H234280   1.966   0.287  14.040  4.9639 -0.9849  1.9302
 4289TIP3   OH234281   5.762   3.725  12.654 -0.5455 -0.1963 -0.4547
 4289TIP3    H134282   5.711   3.682  12.586  0.3330  0.9280 -1.8974
 4289TIP3    H234283   5.730   3.815  12.655  0.8971  0.3701 -0.9649
 4290TIP3   OH234284   0.607   1.637   0.798 -0.1548  0.0046 -0.2651
 4290TIP3    H134285   0.699   1.622   0.820 -0.8840 -0.9145  2.6992
 4290TIP3    H234286   0.569   1.550   0.789 -1.2225  0.2548  1.2674
 4291TIP3   OH234287   3.232   2.285  11.754 -0.0313 -0.0001 -0.2891
 4291TIP3    H134288   3.304   2.248  11.703 -0.6168 -2.3794  0.4848
 4291TIP3    H234289   3.273   2.350  11.811  1.5240 -1.2532  0.0877
 4292TIP3   OH234290   4.582   0.012  15.976 -0.3512  0.0091  0.0129
 4292TIP3    H134291   4.657  -0.002  16.033 -0.3253  2.4112  0.6593
 4292TIP3    H234292   4.510   0.032  16.035 -1.1255 -0.6103 -0.6846
 4293TIP3   OH234293   0.079   5.508  11.029  0.3184  0.2506  0.6678
 4293TIP3    H134294   0.110   5.572  10.965 -0.5416 -0.9335 -0.9918
 4293TIP3    H234295   0.128   5.428  11.009 -0.6582 -0.4107  0.8474
 4294TIP3   OH234296   2.857   2.184  17.032 -0.1245 -0.5380 -0.0663
 4294TIP3    H134297   2.929   2.218  17.085 -0.2196  1.0295 -0.8934
 4294TIP3    H234298   2.881   2.207  16.942 -0.6239 -1.9437 -0.5806
 4295TIP3   OH234299   2.566   0.762  14.294  0.0207 -0.6013 -0.0059
 4295TIP3    H134300   2.576   0.839  14.350  0.1045 -1.0317  0.5771
 4295TIP3    H234301   2.480   0.726  14.317 -0.2058 -0.4421 -0.5838
 4296TIP3   OH234302   2.082   5.712  15.770 -0.5213  0.6131  0.2356
 4296TIP3    H134303   2.088   5.680  15.860  2.2223  0.9467  0.2557
 4296TIP3    H234304   1.989   5.728  15.756 -1.0803  0.0077  2.8172
 4297TIP3   OH234305   4.284   2.039   3.117 -0.3470 -0.0753 -0.7690
 4297TIP3    H134306   4.354   2.099   3.091 -0.0096 -0.3243 -0.4469
 4297TIP3    H234307   4.206   2.095   3.126  0.1996  0.5117  0.6053
 4298TIP3   OH234308   0.287   0.785  15.064  0.0164  0.5309  0.0340
 4298TIP3    H134309   0.356   0.727  15.097 -0.7901  0.1909  1.1901
 4298TIP3    H234310   0.279   0.853  15.131 -2.1081 -0.5430  0.9752
 4299TIP3   OH234311   3.601   2.339  13.104  0.0405  0.6713 -0.2558
 4299TIP3    H134312   3.575   2.321  13.014  1.9500 -0.4494 -0.6608
 4299TIP3    H234313   3.635   2.429  13.102  1.0489  0.2948 -0.9312
 4300TIP3   OH234314   3.983   1.531   5.100 -0.6153 -0.4804  0.4399
 4300TIP3    H134315   3.923   1.566   5.034  0.8126 -0.2111 -0.7746
 4300TIP3    H234316   4.054   1.492   5.050  0.9849  0.5208  1.7972
 4301TIP3   OH234317   3.460   4.017   6.271 -0.4365 -0.3144  0.0981
 4301TIP3    H134318   3.450   4.109   6.299  0.4678  0.0952 -0.8508
 4301TIP3    H234319   3.554   4.007   6.258 -0.5103 -1.4599  0.3939
 4302TIP3   OH234320   2.411   5.017   4.626  0.4554 -0.2709  0.0074
 4302TIP3    H134321   2.336   5.076   4.637  0.9413  0.6811 -1.5588
 4302TIP3    H234322   2.371   4.933   4.602 -0.2382 -0.6737  2.2609
 4303TIP3   OH234323   0.667   1.237  11.156 -0.5385  0.3190 -0.0299
 4303TIP3    H134324   0.600   1.191  11.107 -0.3245 -0.5357  0.4509
 4303TIP3    H234325   0.629   1.323  11.174 -1.6738 -0.2761  0.5630
 4304TIP3   OH234326   2.934   3.999   4.158  0.2686  0.1347 -0.2032
 4304TIP3    H134327   2.925   4.041   4.072  1.0803  0.2520 -0.2480
 4304TIP3    H234328   2.924   4.071   4.220  2.1988  0.5424 -0.2971
 4305TIP3   OH234329   1.229   0.791   2.665  0.4169 -0.2767  0.0519
 4305TIP3    H134330   1.214   0.782   2.760  0.4814  0.6568  0.1562
 4305TIP3    H234331   1.237   0.885   2.651 -0.2532 -0.3646 -0.9918
 4306TIP3   OH234332   4.829   6.320   6.075  0.5168 -0.1193 -0.1224
 4306TIP3    H134333   4.836   6.231   6.110  1.0604 -0.1238 -0.2400
 4306TIP3    H234334   4.836   6.377   6.151  0.8699 -0.1568 -0.1250
 4307TIP3   OH234335   0.238   5.643  16.796  0.6874 -0.1181  0.4988
 4307TIP3    H134336   0.288   5.631  16.877 -0.1355  0.5334  1.1190
 4307TIP3    H234337   0.215   5.736  16.796 -1.4229 -0.5929  0.7987
 4308TIP3   OH234338   2.406   2.315   1.065 -0.3440  0.4748  0.5611
 4308TIP3    H134339   2.434   2.368   0.991  2.0634 -2.1381 -0.5878
 4308TIP3    H234340   2.474   2.328   1.132  1.3563 -2.3177 -0.4387
 4309TIP3   OH234341   6.090   1.929  14.111 -0.1044 -0.1338  0.0665
 4309TIP3    H134342   6.048   1.900  14.029  0.6839 -1.0834 -0.0262
 4309TIP3    H234343   6.172   1.969  14.083 -1.2478  2.4720  0.1839
 4310TIP3   OH234344   1.741   2.790   1.392  0.0286  0.5450 -0.5328
 4310TIP3    H134345   1.774   2.816   1.306  0.1373 -0.6950 -0.8803
 4310TIP3    H234346   1.649   2.818   1.391  0.7658  3.3113  0.1522
 4311TIP3   OH234347   3.869   0.137  15.174  0.0281  0.4788 -0.2105
 4311TIP3    H134348   3.940   0.197  15.195  0.0425  0.7563 -0.9885
 4311TIP3    H234349   3.895   0.053  15.210  1.8800 -0.0133 -2.4747
 4312TIP3   OH234350   2.370   5.752   0.297  0.2772 -0.0377 -0.7781
 4312TIP3    H134351   2.425   5.675   0.282 -3.1371 -2.3820 -2.4728
 4312TIP3    H234352   2.403   5.817   0.236  2.0854 -0.7397 -0.6294
 4313TIP3   OH234353   3.064   0.440  11.767  0.0789 -0.3464 -0.4260
 4313TIP3    H134354   3.151   0.469  11.795 -0.3290  1.1514 -0.6145
 4313TIP3    H234355   3.038   0.503  11.701 -0.7005 -1.4429 -1.1980
 4314TIP3   OH234356   0.623   1.682   6.355  0.0802 -0.5342 -0.1008
 4314TIP3    H134357   0.619   1.739   6.278  0.8113  2.1514  1.7135
 4314TIP3    H234358   0.535   1.646   6.362 -0.2557 -0.0991 -1.6381
 4315TIP3   OH234359   1.185   6.465  12.887 -0.3869  0.7118 -0.1784
 4315TIP3    H134360   1.135   6.531  12.838 -3.0135 -0.4077  0.8067
 4315TIP3    H234361   1.153   6.472  12.977  2.0420  0.6021  0.7463
 4316TIP3   OH234362   3.565   5.671  17.000  0.4169 -0.2122 -0.0062
 4316TIP3    H134363   3.508   5.746  16.980  0.2890 -0.6590 -1.4963
 4316TIP3    H234364   3.605   5.649  16.915 -0.4602 -2.5559  0.1173
 4317TIP3   OH234365   4.424   0.543  15.727 -0.2558  0.2542  0.0766
 4317TIP3    H134366   4.403   0.461  15.682 -2.4223  0.5335  0.4643
 4317TIP3    H234367   4.517   0.557  15.709  0.2867 -2.4714  0.3081
 4318TIP3   OH234368   0.986   0.331  16.039  1.0385  0.3398  0.3680
 4318TIP3    H134369   0.953   0.404  15.987 -1.4852  0.4192  1.8689
 4318TIP3    H234370   1.009   0.264  15.975  3.6623  2.4118 -1.0766
 4319TIP3   OH234371   2.279   5.246   4.228  0.0854 -0.1011  0.3567
 4319TIP3    H134372   2.231   5.277   4.304 -0.2318  2.0839 -0.6541
 4319TIP3    H234373   2.212   5.206   4.172  0.0237 -0.1289  0.4511
 4320TIP3   OH234374   5.084   6.699   1.805  0.1366 -0.1617 -1.0538
 4320TIP3    H134375   5.142   6.672   1.734  0.2995  1.2337 -1.5001
 4320TIP3    H234376   4.996   6.676   1.774  0.3151 -0.7576 -1.1202
 4321TIP3   OH234377   6.218   2.455   2.023  0.2050  0.4381 -0.3826
 4321TIP3    H134378   6.148   2.513   1.994 -2.4482 -1.9231  0.8163
 4321TIP3    H234379   6.221   2.467   2.118 -0.2248 -1.1061 -0.1455
 4322TIP3   OH234380   0.285   2.991   6.126 -0.2589 -0.2999  0.3866
 4322TIP3    H134381   0.195   2.970   6.102 -0.1616  0.6185 -0.9192
 4322TIP3    H234382   0.277   3.057   6.195 -0.6160  0.2503 -0.1664
 4323TIP3   OH234383   3.235   0.632   1.843  0.5733 -0.5433 -0.4306
 4323TIP3    H134384   3.284   0.702   1.800  0.0811 -0.0021 -0.1176
 4323TIP3    H234385   3.169   0.677   1.895  0.4195 -1.2335 -0.0187
 4324TIP3   OH234386   3.091   1.632  13.942  0.8196  0.5237  0.3230
 4324TIP3    H134387   3.078   1.540  13.920  3.4632  0.0803  0.3031
 4324TIP3    H234388   3.134   1.631  14.028 -2.2700  1.9472  2.0887
 4325TIP3   OH234389   5.025   4.586  12.755  0.2307  0.4507 -0.0954
 4325TIP3    H134390   4.936   4.615  12.775  0.2283  0.6134 -0.3418
 4325TIP3    H234391   5.078   4.621  12.826  0.0361  0.0017  0.2795
 4326TIP3   OH234392   2.429   3.091   4.424  0.0599  0.0400  0.1033
 4326TIP3    H134393   2.435   3.186   4.422  2.1203  0.0418  2.1375
 4326TIP3    H234394   2.466   3.063   4.340 -1.5658  0.9978 -0.9811
 4327TIP3   OH234395   6.321   0.639   0.741  0.4580  0.3922  0.1347
 4327TIP3    H134396   6.247   0.586   0.715 -0.3765  1.1720  0.8486
 4327TIP3    H234397   6.355   0.676   0.660  0.7479 -0.8224 -0.3084
 4328TIP3   OH234398   0.645   5.780   0.804  0.2472  0.2672  0.7517
 4328TIP3    H134399   0.738   5.759   0.798  0.4828  1.2355  0.9241
 4328TIP3    H234400   0.617   5.741   0.887  1.2021  2.4786  2.1992
 4329TIP3   OH234401   1.283   1.621  13.219 -0.1721 -0.1177  0.4489
 4329TIP3    H134402   1.219   1.593  13.284 -0.3165 -0.0456  0.3393
 4329TIP3    H234403   1.303   1.712  13.243  1.1206 -0.6371  1.4701
 4330TIP3   OH234404   3.365   6.175   0.950  0.0082 -0.4689 -0.1112
 4330TIP3    H134405   3.446   6.144   0.911  1.4901  3.5167 -0.6493
 4330TIP3    H234406   3.298   6.156   0.884  1.2632 -0.1850 -1.5150
 4331TIP3   OH234407   4.971   6.680   4.871  0.0836  0.0619 -0.5372
 4331TIP3    H134408   4.926   6.596   4.866 -0.8704  0.3525  1.7517
 4331TIP3    H234409   4.913   6.735   4.923  1.0132  1.9188 -1.3876
 4332TIP3   OH234410   5.719   4.717   1.681  0.8570 -0.3925 -0.2358
 4332TIP3    H134411   5.717   4.766   1.599  0.0408 -0.8427 -0.4934
 4332TIP3    H234412   5.757   4.632   1.657  0.3471 -0.6319 -0.2207
 4333TIP3   OH234413   5.320   2.411  11.591  0.1350 -0.0835  0.1620
 4333TIP3    H134414   5.402   2.392  11.635 -0.7092 -1.8675  1.0887
 4333TIP3    H234415   5.324   2.361  11.509 -0.4147 -1.0394  0.6949
 4334TIP3   OH234416   4.690   4.311  15.239 -1.0076 -0.1173 -0.2902
 4334TIP3    H134417   4.720   4.221  15.222  0.1927  0.7685 -3.6734
 4334TIP3    H234418   4.745   4.341  15.312  1.5410 -0.8522 -1.7830
 4335TIP3   OH234419   0.280   1.796  14.500  0.0903 -0.7362  0.2820
 4335TIP3    H134420   0.201   1.742  14.502  0.6089 -1.4828  1.6235
 4335TIP3    H234421   0.293   1.823  14.591  0.4053  0.8554 -0.1978
 4336TIP3   OH234422   0.653   3.267  16.424  0.2226  0.1596  0.2016
 4336TIP3    H134423   0.654   3.356  16.458 -2.3596  0.7533 -1.0833
 4336TIP3    H234424   0.593   3.219  16.481 -1.8285  0.4306 -1.5829
 4337TIP3   OH234425   2.750   1.400   1.684 -0.5715  0.2521  0.4028
 4337TIP3    H134426   2.675   1.363   1.731 -1.3192 -0.2550 -1.1240
 4337TIP3    H234427   2.714   1.477   1.640 -0.2041  0.0152 -0.3203
 4338TIP3   OH234428   4.837   2.055   3.804  0.8423 -0.0495  0.2515
 4338TIP3    H134429   4.815   2.078   3.894  0.0744 -0.6003  0.2164
 4338TIP3    H234430   4.778   1.983   3.782 -0.8400  1.7401 -1.5423
 4339TIP3   OH234431   1.061   4.770   3.076  0.1040  0.1849 -0.3413
 4339TIP3    H134432   1.011   4.800   3.151  0.5349 -1.8902  0.8531
 4339TIP3    H234433   1.153   4.782   3.101  0.2529 -0.5278 -0.5147
 4340TIP3   OH234434   2.103   2.638  12.212  0.3839 -0.0842  0.0338
 4340TIP3    H134435   2.073   2.548  12.218  0.6809 -0.2194 -0.4132
 4340TIP3    H234436   2.025   2.691  12.226  0.3837 -0.3894  1.2814
 4341TIP3   OH234437   0.978   1.346   1.323  0.3522 -0.1942  0.5135
 4341TIP3    H134438   0.946   1.346   1.413  1.0745  1.1389  0.7994
 4341TIP3    H234439   1.042   1.275   1.321 -0.5957 -1.0727  0.6830
 4342TIP3   OH234440   1.656   3.654   0.138 -0.5124  0.0478  0.0560
 4342TIP3    H134441   1.634   3.641   0.231  1.0230 -0.7893  0.3403
 4342TIP3    H234442   1.571   3.667   0.095 -1.2884  0.0563  1.5165
 4343TIP3   OH234443   6.484   4.473  13.419  0.1914 -0.1625  0.2182
 4343TIP3    H134444   6.546   4.418  13.466  2.8945  2.2518 -0.2720
 4343TIP3    H234445   6.432   4.515  13.488  0.8477 -0.2835  0.7948
 4344TIP3   OH234446   2.223   4.271  14.063  0.0187 -0.0141  0.7473
 4344TIP3    H134447   2.171   4.234  13.991  1.2419  1.7869 -1.2005
 4344TIP3    H234448   2.217   4.365  14.050  2.6515  0.2803  1.2404
 4345TIP3   OH234449   6.660   0.810   2.120  0.2545 -0.4335 -0.8275
 4345TIP3    H134450   6.614   0.862   2.186 -0.9220 -0.7085 -1.4077
 4345TIP3    H234451   6.752   0.830   2.134 -0.0800  0.6705 -0.0800
 4346TIP3   OH234452   4.461   1.492   2.449  0.4157  0.7241 -0.2544
 4346TIP3    H134453   4.513   1.569   2.472  2.4088 -0.5328 -0.3340
 4346TIP3    H234454   4.447   1.446   2.532 -2.1191  1.8954  0.0445
 4347TIP3   OH234455   4.820   1.412   0.124  0.2777 -0.2883 -0.5817
 4347TIP3    H134456   4.832   1.500   0.089 -0.6164  0.6834  1.3901
 4347TIP3    H234457   4.837   1.354   0.050 -1.6722  1.6240 -2.6652
 4348TIP3   OH234458   2.480   5.831   2.028  0.1532 -0.1462  0.6083
 4348TIP3    H134459   2.449   5.881   1.953 -0.3155  1.1677  1.6495
 4348TIP3    H234460   2.412   5.765   2.042  0.5428 -0.8127 -0.4714
 4349TIP3   OH234461   2.801   5.223   4.738  0.1822  0.7432 -0.0112
 4349TIP3    H134462   2.717   5.260   4.767 -0.4781 -1.8254  1.6523
 4349TIP3    H234463   2.844   5.195   4.819  1.2734 -0.7848 -1.0717
 4350TIP3   OH234464   0.234   2.853   0.366  0.5191  0.2046  0.3027
 4350TIP3    H134465   0.155   2.862   0.420  0.2497  0.4996 -0.1370
 4350TIP3    H234466   0.256   2.942   0.340  0.1992  0.0004 -0.7081
 4351TIP3   OH234467   3.965   2.411   3.859  0.0627  0.4220  0.0130
 4351TIP3    H134468   3.878   2.417   3.897  0.9982  1.4559  2.1384
 4351TIP3    H234469   3.992   2.320   3.874  0.4766  0.8383  2.1380
 4352TIP3   OH234470   0.523   4.232   1.103 -0.1836  0.4036  0.2040
 4352TIP3    H134471   0.616   4.233   1.127 -0.0328  2.2828 -0.3019
 4352TIP3    H234472   0.523   4.228   1.008 -0.7051 -1.8149  0.2390
 4353TIP3   OH234473   3.592   5.280  12.061  0.1967  0.3411 -0.0173
 4353TIP3    H134474   3.588   5.216  11.991  1.8602 -1.8922  1.7692
 4353TIP3    H234475   3.501   5.305  12.076 -0.3533 -0.4806 -1.7156
 4354TIP3   OH234476   4.489   0.965   0.846  0.2406 -0.1102  0.3747
 4354TIP3    H134477   4.407   0.975   0.798  0.5047  2.0096  0.2499
 4354TIP3    H234478   4.508   0.871   0.843 -0.2029 -0.2009 -2.8707
 4355TIP3   OH234479   1.454   5.346  14.568  0.3753 -0.4459 -0.2803
 4355TIP3    H134480   1.495   5.333  14.653  0.7063  2.3626  0.0909
 4355TIP3    H234481   1.362   5.363  14.588 -0.6520 -4.2302 -0.9355
 4356TIP3   OH234482   4.570   4.168  11.982  0.0345  0.1904  0.2785
 4356TIP3    H134483   4.555   4.088  12.034  0.2547  0.4233  0.7052
 4356TIP3    H234484   4.492   4.221  11.997  1.0172  1.1998  2.1268
 4357TIP3   OH234485   2.192   5.811   2.134  0.1823 -0.1491 -0.2631
 4357TIP3    H134486   2.130   5.746   2.101  0.7297 -1.0848  0.5049
 4357TIP3    H234487   2.224   5.775   2.216  2.2341 -0.0027 -0.9383
 4358TIP3   OH234488   4.099   2.108   0.967  0.5163 -0.1628 -0.0701
 4358TIP3    H134489   4.110   2.197   1.000  0.1861 -0.1318 -0.0404
 4358TIP3    H234490   4.012   2.083   0.996  0.3814 -0.2853 -0.5736
 4359TIP3   OH234491   1.817   0.518  15.417 -0.0664 -0.4981  0.1256
 4359TIP3    H134492   1.874   0.451  15.455  0.9027  0.1994 -0.0584
 4359TIP3    H234493   1.872   0.564  15.354 -0.4359  1.0141  0.8451
 4360TIP3   OH234494   4.702   6.406   1.690  0.2172 -0.1829  0.3435
 4360TIP3    H134495   4.646   6.416   1.766 -0.8472  0.7059 -0.5177
 4360TIP3    H234496   4.649   6.439   1.617  1.3952 -0.5176 -0.6956
 4361TIP3   OH234497   2.419   1.506  11.019 -0.3206 -0.5329 -0.6124
 4361TIP3    H134498   2.372   1.582  11.054 -0.0557 -0.3180 -0.7176
 4361TIP3    H234499   2.455   1.536  10.935  0.6673 -0.4393 -0.1751
 4362TIP3   OH234500   0.913   5.138  17.077  0.5371  0.2016  0.8818
 4362TIP3    H134501   0.946   5.053  17.049 -1.1567  0.0794 -0.9707
 4362TIP3    H234502   0.896   5.128  17.171  2.1207 -0.8619  1.0930
 4363TIP3   OH234503   4.151   5.138   3.071  0.4385  0.0717 -0.6047
 4363TIP3    H134504   4.196   5.223   3.074 -0.4714  0.5551  0.3018
 4363TIP3    H234505   4.120   5.130   2.981 -0.5784  1.3465 -0.4071
 4364TIP3   OH234506   3.314   1.527   5.505 -0.0078 -0.2976 -0.4351
 4364TIP3    H134507   3.241   1.468   5.486 -1.6631  0.6263  2.3795
 4364TIP3    H234508   3.284   1.613   5.475 -0.6134  0.2715  1.6230
 4365TIP3   OH234509   4.675   5.924  14.582 -0.0978  0.4044  0.3178
 4365TIP3    H134510   4.658   5.857  14.647  0.5631 -0.7601 -0.6685
 4365TIP3    H234511   4.589   5.959  14.560 -0.3610  0.5590  1.5096
 4366TIP3   OH234512   4.589   6.200   4.981  0.0677 -0.0044 -0.0134
 4366TIP3    H134513   4.600   6.169   5.071 -1.1419  1.0266  0.5296
 4366TIP3    H234514   4.560   6.123   4.932 -0.1560 -0.3712  0.6794
 4367TIP3   OH234515   2.175   1.947  13.332 -0.3071  0.0702 -0.3103
 4367TIP3    H134516   2.176   1.856  13.301  0.0848 -0.8504  2.1524
 4367TIP3    H234517   2.265   1.964  13.359 -0.7405  0.5205  0.9309
 4368TIP3   OH234518   6.648   2.355  13.278  0.3551 -0.1569 -0.0632
 4368TIP3    H134519   6.648   2.281  13.216 -1.4267 -0.3381  0.0813
 4368TIP3    H234520   6.657   2.432  13.222  2.7174 -0.4470 -0.1808
 4369TIP3   OH234521   2.129   2.148   2.562 -1.1260 -0.2201 -0.0831
 4369TIP3    H134522   2.147   2.240   2.579  0.0817 -0.1976 -1.2679
 4369TIP3    H234523   2.200   2.101   2.606 -0.7052 -0.4488 -0.9807
 4370TIP3   OH234524   1.787   6.667  15.288  0.8536  0.9064  0.0787
 4370TIP3    H134525   1.692   6.661  15.299  0.9017 -1.1774 -0.3287
 4370TIP3    H234526   1.802   6.649  15.196  1.6048  2.2001 -0.0726
 4371TIP3   OH234527   1.610   5.110  16.204 -0.4042  0.1349  0.5507
 4371TIP3    H134528   1.576   5.074  16.286  0.0599 -1.4561  0.0828
 4371TIP3    H234529   1.538   5.102  16.142 -0.1637 -0.4486  0.3335
 4372TIP3   OH234530   1.452   3.828  16.051 -0.4691  0.0562  0.4181
 4372TIP3    H134531   1.434   3.782  15.969 -3.2448 -0.6401  1.2851
 4372TIP3    H234532   1.465   3.919  16.025 -0.8128 -0.2327 -0.8531
 4373TIP3   OH234533   1.639   5.739   2.879  0.3370 -0.5791  0.2775
 4373TIP3    H134534   1.699   5.812   2.894 -0.1641  0.3740 -1.8943
 4373TIP3    H234535   1.589   5.732   2.960  0.2896  1.6142  0.5065
 4374TIP3   OH234536   3.042   1.441  14.855  0.3568 -0.9114  0.0921
 4374TIP3    H134537   2.991   1.375  14.902  0.7493 -1.2935 -0.0157
 4374TIP3    H234538   3.115   1.393  14.817  0.4469 -0.4765 -0.2952
 4375TIP3   OH234539   5.222   3.912  15.366  0.2051  0.2923  0.0416
 4375TIP3    H134540   5.252   3.989  15.413 -1.3537  0.9395  0.0441
 4375TIP3    H234541   5.230   3.936  15.274 -3.0520  1.7084  0.0004
 4376TIP3   OH234542   1.298   0.085   1.980  0.1066 -0.4869  0.1928
 4376TIP3    H134543   1.293   0.040   2.065  0.3075 -1.3360 -0.2321
 4376TIP3    H234544   1.210   0.075   1.943  0.2341 -0.8055 -0.0317
 4377TIP3   OH234545   1.075   0.563   3.110  0.3324  0.4672  0.2033
 4377TIP3    H134546   0.986   0.590   3.131 -0.0410 -0.1943 -0.4787
 4377TIP3    H234547   1.070   0.467   3.106  0.9196  0.4646 -0.5100
 4378TIP3   OH234548   4.713   3.554   2.855 -0.2095 -0.0416  0.0135
 4378TIP3    H134549   4.674   3.484   2.803  0.8772  0.6883 -1.8669
 4378TIP3    H234550   4.807   3.547   2.839 -0.0729  1.8271 -0.2233
 4379TIP3   OH234551   3.124   4.927   3.557  0.4974 -0.4868  0.6777
 4379TIP3    H134552   3.157   5.009   3.521  1.6308 -0.5178  1.5681
 4379TIP3    H234553   3.167   4.920   3.642  1.9818 -2.9447 -0.1716
 4380TIP3   OH234554   6.164   4.994   1.980  0.4861 -0.3211 -0.2606
 4380TIP3    H134555   6.241   5.050   1.982  1.5241 -1.7060  0.2507
 4380TIP3    H234556   6.182   4.926   2.046  0.1891 -2.4069 -2.2140
 4381TIP3   OH234557   1.070   4.902   6.606 -0.0631 -0.1248 -0.2735
 4381TIP3    H134558   1.033   4.949   6.681  1.6403  2.9381 -1.2007
 4381TIP3    H234559   1.007   4.913   6.536 -0.2073 -0.2580 -0.1653
 4382TIP3   OH234560   1.165   4.469  15.330 -0.2209 -0.4529  0.1303
 4382TIP3    H134561   1.242   4.479  15.387 -0.7734  1.4790  0.6083
 4382TIP3    H234562   1.103   4.418  15.383 -0.0738 -0.1715  0.5811
 4383TIP3   OH234563   6.740   1.192   1.879 -0.6451  0.4244  0.4165
 4383TIP3    H134564   6.645   1.193   1.891 -0.7813 -0.5424 -0.4772
 4383TIP3    H234565   6.760   1.103   1.849  0.5241  0.6703  0.4076
 4384TIP3   OH234566   3.935   6.539  14.228  0.2531 -0.2424 -0.0480
 4384TIP3    H134567   4.005   6.544  14.292  0.9379  2.3907 -0.8632
 4384TIP3    H234568   3.860   6.580  14.271 -0.1549 -1.0896  0.0620
 4385TIP3   OH234569   6.218   6.528   1.663  0.2659  0.9474  0.2397
 4385TIP3    H134570   6.236   6.605   1.716 -0.0568  0.5573  0.9227
 4385TIP3    H234571   6.134   6.546   1.620  0.6586  1.3764 -0.3631
 4386TIP3   OH234572   4.676   1.893  14.706  0.1730  0.0825 -0.0995
 4386TIP3    H134573   4.670   1.833  14.781  2.2376 -2.0482 -1.4993
 4386TIP3    H234574   4.618   1.856  14.640  0.0922  0.6686 -0.3644
 4387TIP3   OH234575   2.395   5.525   1.689  0.2353  0.2191 -0.3560
 4387TIP3    H134576   2.363   5.525   1.778  0.7851  1.0278 -0.1478
 4387TIP3    H234577   2.353   5.449   1.648 -0.8652  0.4721  0.2685
 4388TIP3   OH234578   0.743   3.943   1.922  0.7473 -0.0540  0.6368
 4388TIP3    H134579   0.684   3.928   1.848 -0.7049  0.7139  1.5973
 4388TIP3    H234580   0.764   4.036   1.916  2.1277 -0.3729  0.1474
 4389TIP3   OH234581   0.829   3.087  12.808  0.0033 -0.1660 -0.6572
 4389TIP3    H134582   0.774   3.154  12.767  0.0911 -0.0800 -0.6352
 4389TIP3    H234583   0.779   3.006  12.800 -0.2607 -0.0312 -0.3644
 4390TIP3   OH234584   1.283   1.123  12.235  0.3034  0.1471 -0.0321
 4390TIP3    H134585   1.313   1.032  12.236  1.8623  0.5685  3.0118
 4390TIP3    H234586   1.213   1.125  12.300 -1.5495  0.6858 -1.9376
 4391TIP3   OH234587   0.921   3.586   4.973 -0.2657 -0.7231 -0.6596
 4391TIP3    H134588   0.983   3.568   5.044 -2.1662  2.4067  2.1032
 4391TIP3    H234589   0.838   3.601   5.017 -1.5017  1.8070 -3.4824
 4392TIP3   OH234590   3.571   5.986  16.656  0.4679  0.4689  0.6163
 4392TIP3    H134591   3.558   6.080  16.658  0.7901  0.5365 -0.0666
 4392TIP3    H234592   3.507   5.954  16.592  0.9592  0.3355  0.1854
 4393TIP3   OH234593   0.366   3.730  12.310 -0.5281  0.0032  0.1356
 4393TIP3    H134594   0.297   3.664  12.316 -0.2686 -0.2072  0.8781
 4393TIP3    H234595   0.349   3.789  12.384  0.8670 -0.8203  1.1685
 4394TIP3   OH234596   1.844   0.618  16.362 -0.1422 -0.0718  0.6813
 4394TIP3    H134597   1.825   0.528  16.387  1.2659 -0.4931  0.3617
 4394TIP3    H234598   1.937   0.629  16.382  0.2852  0.5768 -1.4055
 4395TIP3   OH234599   0.278   1.798  15.748 -0.8337 -0.0587 -0.0345
 4395TIP3    H134600   0.211   1.834  15.690  1.2942  4.0362 -0.3203
 4395TIP3    H234601   0.359   1.803  15.697  0.2743 -1.6697  1.4439
 4396TIP3   OH234602   1.438   4.933   5.449  0.4412 -0.0535 -0.0819
 4396TIP3    H134603   1.397   4.847   5.441  0.8106 -0.1911 -0.5121
 4396TIP3    H234604   1.465   4.938   5.541 -1.3559  0.4200  0.4801
 4397TIP3   OH234605   5.979   1.689  13.452 -0.3852 -0.4352 -0.3152
 4397TIP3    H134606   5.896   1.688  13.404 -0.9638 -0.9171  0.6561
 4397TIP3    H234607   6.015   1.601  13.439 -0.2218 -0.3537 -0.4121
 4398TIP3   OH234608   0.740   3.317   4.103  0.0230 -0.3579  0.5755
 4398TIP3    H134609   0.791   3.398   4.102 -0.2933 -0.1332  1.5901
 4398TIP3    H234610   0.649   3.347   4.105 -0.3431 -0.7259 -3.4931
 4399TIP3   OH234611   3.032   1.482   3.849  0.2430 -0.0449  0.5524
 4399TIP3    H134612   3.108   1.432   3.881  1.0866 -0.4093 -1.8299
 4399TIP3    H234613   2.993   1.426   3.783 -1.1980  0.8191  0.6470
 4400TIP3   OH234614   3.422   2.395  11.277  0.1114 -0.4069  0.0709
 4400TIP3    H134615   3.372   2.407  11.358 -0.4723  0.2971 -0.3793
 4400TIP3    H234616   3.494   2.459  11.284 -2.1272  2.5870 -1.6362
 4401TIP3   OH234617   2.421   2.176   3.737  0.0649 -0.4649 -0.1507
 4401TIP3    H134618   2.428   2.261   3.693  1.2037  0.5062  1.7734
 4401TIP3    H234619   2.496   2.126   3.705  1.0273  0.3216  0.8166
 4402TIP3   OH234620   1.837   2.777   5.588 -0.4793  0.9178 -0.4190
 4402TIP3    H134621   1.798   2.819   5.511 -2.1879  1.2326  0.5765
 4402TIP3    H234622   1.911   2.833   5.611  1.0663  0.0031 -2.6828
 4403TIP3   OH234623   5.713   4.427  11.527  0.0869 -0.8571  0.5884
 4403TIP3    H134624   5.694   4.342  11.487  0.6765 -0.5149 -0.4639
 4403TIP3    H234625   5.680   4.419  11.616  1.9530 -2.9148  1.1847
 4404TIP3   OH234626   4.639   4.382  14.961 -0.3196 -0.0312  0.2809
 4404TIP3    H134627   4.715   4.332  14.932 -0.9349 -0.1121 -1.2912
 4404TIP3    H234628   4.642   4.378  15.057  1.4883 -0.2474  0.2418
 4405TIP3   OH234629   6.634   5.744   0.497 -0.6293  0.0765  0.1966
 4405TIP3    H134630   6.729   5.755   0.509 -0.0407 -1.6765 -2.0166
 4405TIP3    H234631   6.627   5.670   0.437 -3.4239  0.4335 -0.0238
 4406TIP3   OH234632   2.891   4.176  14.497  0.2295 -0.0017  0.8695
 4406TIP3    H134633   2.884   4.084  14.524  0.8583 -0.3992 -0.2624
 4406TIP3    H234634   2.975   4.181  14.452  0.4735  1.2775  1.4241
 4407TIP3   OH234635   4.670   6.541   1.391 -0.2336 -0.7206  0.0894
 4407TIP3    H134636   4.658   6.636   1.393 -0.2112 -0.7040 -0.5807
 4407TIP3    H234637   4.582   6.505   1.403 -0.4836 -0.6076 -1.3136
 4408TIP3   OH234638   5.308   1.672   5.974  0.3630 -0.1780  0.0800
 4408TIP3    H134639   5.307   1.760   6.012  1.7765 -0.3313  0.5261
 4408TIP3    H234640   5.260   1.617   6.036  0.6860  0.0137  0.5016
 4409TIP3   OH234641   1.280   1.352   1.165 -0.6251 -0.5624 -0.0297
 4409TIP3    H134642   1.212   1.338   1.231 -0.8420 -0.8158 -0.3018
 4409TIP3    H234643   1.280   1.271   1.114  1.5725 -1.6054  1.4646
 4410TIP3   OH234644   4.654   5.620   4.351  0.3975 -0.0925 -0.3266
 4410TIP3    H134645   4.628   5.672   4.275 -1.6816  0.4389  0.7020
 4410TIP3    H234646   4.717   5.557   4.315  1.9202  2.1599 -1.8642
 4411TIP3   OH234647   6.627   0.649  13.244  0.1273 -0.3402 -0.0464
 4411TIP3    H134648   6.659   0.600  13.320 -0.4232 -1.6330 -0.6246
 4411TIP3    H234649   6.601   0.582  13.181 -1.5088  0.6807 -0.5089
 4412TIP3   OH234650   1.916   5.526  17.353  0.3718  0.3220  0.1141
 4412TIP3    H134651   1.871   5.593  17.301  0.0920 -0.7681 -1.1093
 4412TIP3    H234652   1.993   5.571  17.388 -1.1130  1.9600  1.4674
 4413TIP3   OH234653   6.010   4.972   5.279  0.4606  0.0555 -0.0691
 4413TIP3    H134654   6.047   4.907   5.339  1.1350  0.1488 -0.3761
 4413TIP3    H234655   5.975   5.040   5.336  0.4976 -0.1755  0.2338
 4414TIP3   OH234656   5.228   3.692  16.858  0.5565 -0.3272 -0.0822
 4414TIP3    H134657   5.244   3.627  16.789 -0.2760 -0.2701 -0.3411
 4414TIP3    H234658   5.136   3.715  16.848  0.2551 -0.7812  1.4548
 4415TIP3   OH234659   5.150   4.893   3.107  0.2893  0.4621 -0.4669
 4415TIP3    H134660   5.167   4.966   3.166  0.1629  1.6503 -1.8284
 4415TIP3    H234661   5.232   4.846   3.102 -0.0976 -0.5724  1.7886
 4416TIP3   OH234662   3.644   4.581   2.248  0.3474  0.0060  0.1803
 4416TIP3    H134663   3.604   4.532   2.177  3.0125 -1.9456 -0.1611
 4416TIP3    H234664   3.649   4.519   2.321  1.1766  0.6961  0.7405
 4417TIP3   OH234665   3.882   5.315  14.680 -0.2684 -0.0106  0.0442
 4417TIP3    H134666   3.871   5.320  14.775 -1.2471  1.6131 -0.1046
 4417TIP3    H234667   3.942   5.387  14.660 -2.4044  1.6804 -0.7961
 4418TIP3   OH234668   6.736   2.918   3.742  0.7153  0.1005 -0.9618
 4418TIP3    H134669   6.815   2.865   3.736  0.5902  0.0058 -1.8838
 4418TIP3    H234670   6.769   3.007   3.756  0.9085 -0.3465  2.3259
 4419TIP3   OH234671   1.550   0.527   3.365 -0.1260 -0.2828  0.8826
 4419TIP3    H134672   1.555   0.565   3.453 -0.3398 -1.2018  1.3077
 4419TIP3    H234673   1.639   0.498   3.346  0.0034  0.2876  0.6275
 4420TIP3   OH234674   6.489   3.599   4.067 -1.1586 -0.0857 -0.1297
 4420TIP3    H134675   6.466   3.507   4.061 -0.1520 -0.4038  0.5563
 4420TIP3    H234676   6.446   3.630   4.147  0.7344 -0.6961  1.1878
 4421TIP3   OH234677   1.756   1.952   1.005  0.0707  0.0481 -0.6193
 4421TIP3    H134678   1.757   2.048   1.007 -0.0346  0.1281 -2.5995
 4421TIP3    H234679   1.845   1.927   1.030  0.2144  0.6773 -0.4837
 4422TIP3   OH234680   6.081   6.574   0.191 -0.0469  0.2421  0.3098
 4422TIP3    H134681   6.127   6.492   0.179  0.1427  0.5878 -1.6681
 4422TIP3    H234682   6.044   6.568   0.279  2.6035 -0.5914  1.4699
 4423TIP3   OH234683   6.049   5.773   5.938 -0.6081 -0.5478  0.0727
 4423TIP3    H134684   6.027   5.763   5.845 -0.0481  1.1260 -0.2595
 4423TIP3    H234685   6.106   5.699   5.957  2.1811  0.9215 -1.8784
 4424TIP3   OH234686   2.022   5.050  12.361 -0.9254 -0.0405 -0.9356
 4424TIP3    H134687   1.929   5.072  12.358 -1.2934 -1.2561  0.6254
 4424TIP3    H234688   2.028   4.965  12.317 -0.8130 -0.6872  0.2946
 4425TIP3   OH234689   0.785   1.406   5.659 -0.2369  0.2482 -0.3968
 4425TIP3    H134690   0.870   1.441   5.634 -0.1455 -0.6091 -1.3621
 4425TIP3    H234691   0.804   1.319   5.694 -0.7072  0.0755 -0.5603
 4426TIP3   OH234692   2.715   4.359   2.041 -0.4613  0.1028 -0.0781
 4426TIP3    H134693   2.725   4.455   2.043  1.5902 -0.0641  0.1818
 4426TIP3    H234694   2.805   4.326   2.030 -1.3722 -1.7389 -3.3721
 4427TIP3   OH234695   3.681   2.031  12.793 -0.5380 -0.7314 -0.2390
 4427TIP3    H134696   3.752   1.978  12.755 -1.8887 -0.2959 -3.7275
 4427TIP3    H234697   3.717   2.063  12.876  2.5645 -2.1306 -0.8902
 4428TIP3   OH234698   5.937   1.418   5.573 -0.0858  0.1632  0.6938
 4428TIP3    H134699   5.893   1.486   5.624 -0.3398 -0.1418  0.8804
 4428TIP3    H234700   5.869   1.381   5.517 -0.1390 -0.5022  1.1868
 4429TIP3   OH234701   2.704   5.965   6.146 -0.4372 -0.1271  0.1204
 4429TIP3    H134702   2.694   6.047   6.097 -0.0426  1.2112  2.1501
 4429TIP3    H234703   2.799   5.952   6.151 -0.4824 -0.3953  0.2965
 4430TIP3   OH234704   0.780   5.242  16.190  0.1343 -0.3330  0.5735
 4430TIP3    H134705   0.746   5.280  16.271  0.4985 -1.4868  1.2805
 4430TIP3    H234706   0.868   5.211  16.213 -0.6115 -2.7673  0.3955
 4431TIP3   OH234707   4.168   1.632  14.390 -0.1190 -0.0994  0.5510
 4431TIP3    H134708   4.120   1.605  14.312 -1.5438 -1.5123  1.8583
 4431TIP3    H234709   4.256   1.597  14.377 -0.5179 -0.8697 -0.1342
 4432TIP3   OH234710   1.562   1.640  11.141  0.0211 -0.3489  0.1257
 4432TIP3    H134711   1.468   1.634  11.121  0.1927 -0.2016 -0.7209
 4432TIP3    H234712   1.597   1.703  11.078  0.9806 -1.5679 -0.6057
 4433TIP3   OH234713   1.286   2.391  13.885 -0.3062 -0.8389 -0.3583
 4433TIP3    H134714   1.261   2.424  13.971  0.5330 -0.4895 -0.2377
 4433TIP3    H234715   1.233   2.443  13.824  0.0113 -0.2143 -0.1072
 4434TIP3   OH234716   0.009   5.230  12.999  0.0307  0.0742 -0.1181
 4434TIP3    H134717  -0.032   5.153  13.039  1.1245  0.4283  1.8072
 4434TIP3    H234718   0.102   5.209  12.996  0.4536  1.5617  1.1331
 4435TIP3   OH234719   3.553   3.157  13.414  0.0833 -0.1907 -0.6789
 4435TIP3    H134720   3.474   3.115  13.448 -0.1696  0.9536  0.2081
 4435TIP3    H234721   3.555   3.132  13.322 -0.8356 -0.9404 -0.5183
 4436TIP3   OH234722   1.470   0.265  16.185  0.1334  0.3534  1.0579
 4436TIP3    H134723   1.530   0.197  16.156  1.4969  2.6067 -1.8274
 4436TIP3    H234724   1.399   0.216  16.228  1.4514 -2.7975 -0.0045
 4437TIP3   OH234725   5.162   5.126   5.432  0.2760  1.0464 -0.1119
 4437TIP3    H134726   5.250   5.107   5.400 -0.5707 -0.7815 -1.6471
 4437TIP3    H234727   5.116   5.162   5.356 -1.2360 -1.4231 -0.4840
 4438TIP3   OH234728   4.858   1.281   5.332  0.0890  0.4496  0.3497
 4438TIP3    H134729   4.814   1.217   5.389 -0.4597 -1.2755 -1.8720
 4438TIP3    H234730   4.857   1.240   5.245  0.0178  3.3576 -1.1367
 4439TIP3   OH234731   1.779   5.775   3.928  0.2352 -0.9529 -0.0154
 4439TIP3    H134732   1.799   5.741   3.841  0.1736  0.8845 -0.7939
 4439TIP3    H234733   1.862   5.811   3.960 -0.2522  0.6091 -0.4028
 4440TIP3   OH234734   5.432   1.163   5.258 -0.0191 -0.3734 -0.4156
 4440TIP3    H134735   5.521   1.186   5.285  0.1175  0.1897 -1.2951
 4440TIP3    H234736   5.442   1.125   5.171 -0.6022 -0.6599 -0.3664
 4441TIP3   OH234737   5.041   3.031   1.533  0.4974  0.2879 -0.6343
 4441TIP3    H134738   4.971   2.966   1.528 -0.3488  1.2287 -1.4569
 4441TIP3    H234739   5.089   3.008   1.612 -0.1596 -0.9532 -0.5656
 4442TIP3   OH234740   6.547   5.557  12.031 -0.5598  0.5583  0.9310
 4442TIP3    H134741   6.544   5.650  12.006  0.8595  0.6288  0.9252
 4442TIP3    H234742   6.614   5.519  11.974 -1.1426 -0.4848  0.9249
 4443TIP3   OH234743   5.640   1.087   3.055 -0.0815 -0.6200  0.2762
 4443TIP3    H134744   5.650   0.995   3.079 -0.2892 -0.2057  2.0650
 4443TIP3    H234745   5.689   1.135   3.121  1.0809  0.5340 -1.3492
 4444TIP3   OH234746   5.290   5.831   2.753  0.3921  0.9822  0.5081
 4444TIP3    H134747   5.292   5.757   2.693  2.7951  1.2206  0.2149
 4444TIP3    H234748   5.307   5.908   2.698  1.5802  1.3194  1.3168
 4445TIP3   OH234749   5.725   1.433  11.998 -0.7276 -0.1294  0.4549
 4445TIP3    H134750   5.800   1.374  11.995  0.5461  1.3049  1.9803
 4445TIP3    H234751   5.658   1.389  11.947  0.9992 -1.6700 -0.6056
 4446TIP3   OH234752   4.575   1.783   4.066  0.4806 -0.1072  0.5736
 4446TIP3    H134753   4.648   1.746   4.017 -0.3742 -1.3208  0.1615
 4446TIP3    H234754   4.535   1.707   4.110 -0.9074  0.4150  0.2725
 4447TIP3   OH234755   3.333   1.583  10.909  0.0226  0.3834  0.7766
 4447TIP3    H134756   3.269   1.654  10.905 -0.8880 -0.4270  0.5721
 4447TIP3    H234757   3.371   1.580  10.821 -0.7454 -0.0960  0.4523
 4448TIP3   OH234758   5.641   2.001  13.792  0.1535 -0.2762  0.5386
 4448TIP3    H134759   5.559   1.958  13.766  0.3715 -0.1181 -0.4657
 4448TIP3    H234760   5.706   1.968  13.730 -0.1706  3.3495 -2.0350
 4449TIP3   OH234761   1.552   6.031   4.980 -0.0973  0.2344 -0.0757
 4449TIP3    H134762   1.585   6.011   4.892  0.5980 -0.2955  0.2907
 4449TIP3    H234763   1.471   5.980   4.987 -0.5371  0.8382 -0.6598
 4450TIP3   OH234764   0.230   2.125   5.390 -0.1352  0.3188 -0.7966
 4450TIP3    H134765   0.134   2.127   5.388 -0.1527  1.0869  0.1756
 4450TIP3    H234766   0.251   2.092   5.477  0.4530  2.9707  0.1628
 4451TIP3   OH234767   1.314   5.380  16.927 -0.3931 -0.1328 -0.0374
 4451TIP3    H134768   1.296   5.460  16.878  0.8626  0.2546  0.1103
 4451TIP3    H234769   1.230   5.358  16.968 -0.5508  1.6355  0.6828
 4452TIP3   OH234770   0.996   6.773  13.725  0.1973  0.4303  1.0525
 4452TIP3    H134771   0.948   6.690  13.722  1.9802 -0.6450  0.3768
 4452TIP3    H234772   0.960   6.825  13.653  1.9348 -1.5062 -1.3799
 4453TIP3   OH234773   2.634   5.622  12.793 -0.1524 -0.2336 -0.9472
 4453TIP3    H134774   2.600   5.566  12.723 -0.5294 -1.3515  0.0850
 4453TIP3    H234775   2.556   5.666  12.827 -0.2087 -0.8499 -0.2558
 4454TIP3   OH234776   5.240   3.815  11.242  0.6910  0.4947  0.1951
 4454TIP3    H134777   5.296   3.782  11.172  0.1811 -1.1623  0.5274
 4454TIP3    H234778   5.288   3.890  11.277  1.1479  1.0962 -1.6193
 4455TIP3   OH234779   3.301   3.714  17.200 -0.5005 -0.5674  0.0164
 4455TIP3    H134780   3.317   3.728  17.106 -0.8834 -0.0535  0.0251
 4455TIP3    H234781   3.387   3.694  17.236 -0.3415 -0.7241 -0.4361
 4456TIP3   OH234782   2.224   1.476   0.718  0.2295 -0.0050 -0.5172
 4456TIP3    H134783   2.258   1.389   0.739 -0.2463  0.4354  2.5870
 4456TIP3    H234784   2.130   1.463   0.710  0.3027  0.0193 -1.5871
 4457TIP3   OH234785   0.903   3.707  13.726 -0.1616 -0.7238  0.6139
 4457TIP3    H134786   0.857   3.624  13.737  0.1901 -1.2650 -1.4993
 4457TIP3    H234787   0.849   3.757  13.665  1.7388 -1.2495 -1.6889
 4458TIP3   OH234788   5.281   0.144  16.020 -0.5433 -0.1429  0.3274
 4458TIP3    H134789   5.314   0.176  16.104  0.0375  0.6795 -0.2024
 4458TIP3    H234790   5.357   0.104  15.977 -0.8590 -0.6526  0.2227
 4459TIP3   OH234791   3.339   1.160  16.475  0.8534  0.4496 -0.2668
 4459TIP3    H134792   3.259   1.201  16.442  2.2305  2.6880 -1.0754
 4459TIP3    H234793   3.361   1.210  16.553  2.1501  0.7805 -0.8115
 4460TIP3   OH234794   0.255   1.644  13.237  0.7323  0.1887  0.1795
 4460TIP3    H134795   0.265   1.737  13.258  0.3955 -0.0284  1.3813
 4460TIP3    H234796   0.259   1.600  13.322  1.6644 -0.9755 -0.4359
 4461TIP3   OH234797   2.416   3.021   6.388  0.2142 -0.0915  0.2430
 4461TIP3    H134798   2.419   3.022   6.484 -1.4488 -1.9308  0.3935
 4461TIP3    H234799   2.436   2.930   6.365  0.2182  0.2404 -1.1451
 4462TIP3   OH234800   6.185   4.229   0.301 -0.1009 -0.0733 -0.0527
 4462TIP3    H134801   6.256   4.280   0.338  1.5747 -0.7167 -2.1443
 4462TIP3    H234802   6.109   4.248   0.356  0.7241  3.6286  0.0377
 4463TIP3   OH234803   4.833   2.005   4.570 -0.0315  0.2701 -0.2008
 4463TIP3    H134804   4.773   1.941   4.607 -0.1636  1.0488  1.0013
 4463TIP3    H234805   4.810   2.087   4.614  2.8421  0.3340  1.3879
 4464TIP3   OH234806   2.925   3.056  12.394 -0.2324 -0.2930  0.0334
 4464TIP3    H134807   2.937   3.113  12.469 -1.3127 -1.7931  1.4242
 4464TIP3    H234808   2.893   3.113  12.325 -1.2497  0.7942  1.3589
 4465TIP3   OH234809   6.224   2.520  16.961 -0.5930 -0.1243  0.1153
 4465TIP3    H134810   6.197   2.467  17.036 -2.1643  2.2727  1.3814
 4465TIP3    H234811   6.144   2.562  16.932  0.5323  1.3645 -0.9767
 4466TIP3   OH234812   4.709   5.429   6.471 -0.0152  0.2784 -0.2307
 4466TIP3    H134813   4.704   5.520   6.440  2.2476  0.2707 -0.7349
 4466TIP3    H234814   4.779   5.429   6.536  0.6441 -1.2869 -0.9036
 4467TIP3   OH234815   1.271   1.470  16.076 -0.4021 -0.1564  0.0679
 4467TIP3    H134816   1.249   1.420  15.997 -1.9565  0.7568 -0.1154
 4467TIP3    H234817   1.192   1.464  16.130 -0.8929  2.5289 -0.2127
 4468TIP3   OH234818   0.134   2.505  16.571 -0.0396  0.0740 -0.3841
 4468TIP3    H134819   0.092   2.574  16.621  0.8987 -0.4453  1.1961
 4468TIP3    H234820   0.064   2.468  16.517 -0.9776  0.9818  0.1871
 4469TIP3   OH234821   4.264   5.341  13.670 -0.6797  0.6602  0.0303
 4469TIP3    H134822   4.270   5.421  13.618  0.3241  1.4236  1.2578
 4469TIP3    H234823   4.334   5.350  13.735 -0.3736 -1.3492  0.0257
 4470TIP3   OH234824   5.391   6.124  11.545  0.4570  0.1132  0.0053
 4470TIP3    H134825   5.417   6.035  11.568 -0.8689 -0.5446 -0.9603
 4470TIP3    H234826   5.323   6.114  11.478  0.4626  1.8545 -0.3201
 4471TIP3   OH234827   5.599   3.302  16.282  0.3177 -0.0217 -0.3735
 4471TIP3    H134828   5.546   3.313  16.203 -1.2970  0.4204  0.7149
 4471TIP3    H234829   5.575   3.376  16.337  2.5481  0.5130 -0.0514
 4472TIP3   OH234830   5.742   3.993   3.956 -0.1820 -0.1766  0.0681
 4472TIP3    H134831   5.714   3.964   3.869  3.0856 -0.5898 -0.9885
 4472TIP3    H234832   5.669   3.970   4.013 -1.9586 -1.0150 -2.3459
 4473TIP3   OH234833   4.059   3.151   0.079  0.5231 -0.0056  0.0290
 4473TIP3    H134834   4.086   3.237   0.046  0.3596  0.3912  0.9017
 4473TIP3    H234835   3.974   3.167   0.121 -0.8381 -1.1243 -2.1370
 4474TIP3   OH234836   3.605   1.195  17.120  0.0167 -0.2339  0.7664
 4474TIP3    H134837   3.681   1.189  17.178 -0.8718 -2.3561  1.8187
 4474TIP3    H234838   3.530   1.192  17.179 -0.9272  1.1822 -0.2967
 4475TIP3   OH234839   3.643   3.431   0.280 -0.4128 -0.1907  0.2251
 4475TIP3    H134840   3.551   3.436   0.253  0.4348 -1.3755 -3.5217
 4475TIP3    H234841   3.678   3.518   0.260 -0.1433 -0.5958 -1.1855
 4476TIP3   OH234842   3.948   3.746  12.341  0.3571  0.2088 -0.1830
 4476TIP3    H134843   3.991   3.782  12.418  0.6934  0.0146 -0.2781
 4476TIP3    H234844   3.979   3.799  12.268 -0.1286  0.5318 -0.1633
 4477TIP3   OH234845   2.500   2.607  14.784 -0.4134  0.0626 -0.6349
 4477TIP3    H134846   2.444   2.531  14.803 -0.0024 -0.5397 -1.7030
 4477TIP3    H234847   2.570   2.602  14.849 -2.4724  1.8541  1.8966
 4478TIP3   OH234848   4.687   0.961   3.140  0.0308 -0.7943  0.2418
 4478TIP3    H134849   4.732   0.908   3.075 -0.2077  0.1439 -0.7106
 4478TIP3    H234850   4.673   0.902   3.214 -3.3886 -3.2136 -2.0434
 4479TIP3   OH234851   0.018   1.603  12.481 -0.8249 -0.2132  0.4379
 4479TIP3    H134852   0.002   1.692  12.513  1.6205  0.2395  0.6686
 4479TIP3    H234853   0.038   1.614  12.388 -0.4923 -0.5029  0.4723
 4480TIP3   OH234854   6.608   1.197  14.041 -0.1372 -0.2281  0.4738
 4480TIP3    H134855   6.578   1.287  14.026 -0.3342 -0.0392  1.8668
 4480TIP3    H234856   6.698   1.196  14.007 -1.0746 -0.3266 -2.1597
 4481TIP3   OH234857   2.329   0.582   2.484 -0.1319 -0.3686  0.4620
 4481TIP3    H134858   2.257   0.639   2.456  1.7291  1.9368  0.0245
 4481TIP3    H234859   2.292   0.494   2.483 -2.2782  0.4404 -2.0156
 4482TIP3   OH234860   1.000   2.540   1.588  0.0080 -0.1199 -0.1577
 4482TIP3    H134861   0.940   2.555   1.661  0.8247 -1.4883  0.8484
 4482TIP3    H234862   1.055   2.466   1.616  0.8678 -0.1860 -1.8405
 4483TIP3   OH234863   1.578   3.103   5.707 -0.0049  0.0638 -0.3030
 4483TIP3    H134864   1.499   3.064   5.670 -1.9801  0.4247  3.0810
 4483TIP3    H234865   1.632   3.029   5.733 -1.2355 -0.3612  1.1718
 4484TIP3   OH234866   2.949   6.705  17.225  0.4491  0.5568  0.5115
 4484TIP3    H134867   2.972   6.788  17.268 -0.8760  0.0888  2.2220
 4484TIP3    H234868   2.859   6.717  17.196 -0.2621 -0.6992  2.0171
 4485TIP3   OH234869   3.392   6.688   4.675 -0.2941 -0.2633  0.0917
 4485TIP3    H134870   3.380   6.782   4.672 -0.0099 -0.2434 -0.5283
 4485TIP3    H234871   3.486   6.675   4.666 -0.3941 -0.6295 -0.4470
 4486TIP3   OH234872   2.881   0.716   1.449 -0.4968  0.3526 -0.3008
 4486TIP3    H134873   2.843   0.649   1.393 -0.2460 -0.7002  0.7508
 4486TIP3    H234874   2.966   0.681   1.475 -0.8354  0.5426  1.1752
 4487TIP3   OH234875   6.742   3.775   4.062  0.2680  0.0177  0.2368
 4487TIP3    H134876   6.801   3.699   4.060  0.7067  0.3289  0.8732
 4487TIP3    H234877   6.801   3.850   4.063 -0.1495  0.4509 -1.9149
 4488TIP3   OH234878   3.648   6.524  12.610 -0.5688  0.2304 -0.4906
 4488TIP3    H134879   3.661   6.452  12.671 -0.4369  0.8849  0.2619
 4488TIP3    H234880   3.581   6.492  12.549 -1.7507  0.0813  0.8436
 4489TIP3   OH234881   4.142   4.741   1.783 -0.4974  0.2581  0.0907
 4489TIP3    H134882   4.099   4.801   1.844 -1.7774 -0.3865 -0.1413
 4489TIP3    H234883   4.075   4.721   1.718 -0.4085 -2.0931  0.6339
 4490TIP3   OH234884   3.011   3.516   4.862  0.3327  0.9428  0.1063
 4490TIP3    H134885   3.060   3.508   4.944  0.8588  1.2423 -0.1759
 4490TIP3    H234886   2.964   3.433   4.854 -2.2653  2.0424  2.3155
 4491TIP3   OH234887   1.471   5.566   4.502 -0.0738 -0.7287  0.2135
 4491TIP3    H134888   1.500   5.517   4.425  0.4671  0.9151 -0.6764
 4491TIP3    H234889   1.376   5.554   4.503 -0.0463 -1.0926 -0.4904
 4492TIP3   OH234890   3.488   1.357   4.793  0.4340 -0.1293 -0.1158
 4492TIP3    H134891   3.439   1.433   4.762 -0.7943 -0.7687  0.1830
 4492TIP3    H234892   3.432   1.282   4.770  0.5136 -0.7747  1.6283
 4493TIP3   OH234893   4.669   4.138   5.337 -1.0080  0.0044 -0.6308
 4493TIP3    H134894   4.614   4.205   5.296 -1.1822 -0.4461 -1.1428
 4493TIP3    H234895   4.639   4.056   5.299 -0.5192 -0.3276 -0.3115
 4494TIP3   OH234896   5.823   1.842   4.894  0.1103 -0.7565 -0.1779
 4494TIP3    H134897   5.775   1.809   4.818 -0.8464  0.4702 -0.1418
 4494TIP3    H234898   5.890   1.900   4.857 -0.9450  0.5757 -0.0961
 4495TIP3   OH234899   1.561   1.909  17.042  0.2791 -0.1872 -0.1354
 4495TIP3    H134900   1.517   1.960  17.110 -1.3593 -1.0545 -0.5151
 4495TIP3    H234901   1.610   1.842  17.090  2.8776  1.9020  0.4088
 4496TIP3   OH234902   5.446   6.027   1.544 -0.0207  0.1652  0.1561
 4496TIP3    H134903   5.449   6.101   1.484  0.1468 -0.7130 -0.9465
 4496TIP3    H234904   5.503   5.961   1.505 -1.7981 -1.3562 -0.0304
 4497TIP3   OH234905   1.436   5.288   0.185 -0.0494 -0.0106 -0.4820
 4497TIP3    H134906   1.352   5.317   0.152 -1.1200 -3.7736 -1.5494
 4497TIP3    H234907   1.500   5.324   0.124 -1.4448 -1.4287 -2.9275
 4498TIP3   OH234908   3.973   3.725   6.231 -0.4740  0.5805 -0.1176
 4498TIP3    H134909   3.948   3.646   6.278 -1.1882  1.3846  0.9046
 4498TIP3    H234910   4.040   3.696   6.169 -0.1920 -0.6872  0.7403
 4499TIP3   OH234911   2.281   6.049   2.656  0.6106 -0.1232 -0.0198
 4499TIP3    H134912   2.328   6.058   2.739  0.7798  2.4660 -0.3090
 4499TIP3    H234913   2.341   6.082   2.590 -0.7817  1.2173 -0.6781
 4500TIP3   OH234914   4.164   0.800  14.371 -0.5770  0.3955  0.4031
 4500TIP3    H134915   4.080   0.840  14.350 -1.3898 -1.6108 -0.4162
 4500TIP3    H234916   4.148   0.706  14.365  2.0769 -0.0655 -1.3739
 4501TIP3   OH234917   6.447   2.719  16.015  0.3391 -0.0660 -0.2049
 4501TIP3    H134918   6.405   2.718  16.101  1.5408 -0.2740  0.4066
 4501TIP3    H234919   6.419   2.637  15.973  0.8320 -0.6329  0.5498
 4502TIP3   OH234920   0.806   3.412  11.876 -0.3965  0.0402  0.3529
 4502TIP3    H134921   0.869   3.369  11.933 -0.3142 -0.1128  0.1477
 4502TIP3    H234922   0.842   3.499  11.861  0.0731 -0.2505 -0.2520
 4503TIP3   OH234923   6.345   5.039  12.247 -0.6478  0.3001 -0.3509
 4503TIP3    H134924   6.343   4.949  12.280 -2.5081  0.3965 -0.1066
 4503TIP3    H234925   6.356   5.093  12.326 -1.4216  0.3639 -0.2818
 4504TIP3   OH234926   0.470   0.324   4.094 -0.2387 -0.7424  0.7176
 4504TIP3    H134927   0.379   0.314   4.065 -0.8995  2.8708  1.0704
 4504TIP3    H234928   0.522   0.319   4.013 -0.9181 -1.3711  0.3130
 4505TIP3   OH234929   1.664   0.740   3.853  0.1885  0.0987 -0.6839
 4505TIP3    H134930   1.737   0.766   3.798  0.3843 -0.6181 -0.7719
 4505TIP3    H234931   1.704   0.692   3.926 -0.0340  1.3156  0.2749
 4506TIP3   OH234932   5.651   0.688  12.168  0.4190  0.5948  0.1152
 4506TIP3    H134933   5.579   0.643  12.124  0.8931  1.1456 -1.2483
 4506TIP3    H234934   5.725   0.628  12.161  0.5048  0.6951  0.1630
 4507TIP3   OH234935   4.987   4.754   5.820 -0.0935  0.7917 -0.5178
 4507TIP3    H134936   4.947   4.711   5.895  0.5939 -0.1213 -0.6454
 4507TIP3    H234937   5.048   4.688   5.785 -0.4028  1.1887 -1.8669
 4508TIP3   OH234938   4.703   6.296  16.726 -0.1963  0.0206 -0.6575
 4508TIP3    H134939   4.788   6.252  16.725  0.0507  0.5066 -0.9676
 4508TIP3    H234940   4.666   6.278  16.639 -0.3967 -0.1510 -0.5399
 4509TIP3   OH234941   2.665   5.033  12.329  0.0910 -0.2491  0.0234
 4509TIP3    H134942   2.604   5.066  12.264 -0.8360  0.2680  1.1143
 4509TIP3    H234943   2.706   4.957  12.288  1.2134  1.3676 -2.0144
 4510TIP3   OH234944   5.814   3.463  15.534  0.0717 -0.0422  0.2418
 4510TIP3    H134945   5.814   3.483  15.628  1.1479 -2.3423  0.8183
 4510TIP3    H234946   5.906   3.459  15.511 -0.1391 -1.1561 -0.4848
 4511TIP3   OH234947   5.816   2.758   1.668 -0.5203  0.1807 -0.3319
 4511TIP3    H134948   5.721   2.752   1.658 -0.5694  0.0804  0.1551
 4511TIP3    H234949   5.847   2.669   1.651 -0.2562  0.6865 -2.8950
 4512TIP3   OH234950   4.236   1.011   5.519 -0.6050 -0.1165  0.2650
 4512TIP3    H134951   4.172   0.947   5.549 -1.4634  0.6955  0.2132
 4512TIP3    H234952   4.217   1.022   5.426  0.3447 -0.6813 -0.0152
 4513TIP3   OH234953   6.479   3.611  16.734 -0.0730 -0.2116  0.1875
 4513TIP3    H134954   6.437   3.673  16.675  1.2028 -0.5392 -1.1280
 4513TIP3    H234955   6.481   3.655  16.819 -2.0097  0.2491  0.0479
 4514TIP3   OH234956   4.833   2.959  17.207 -0.3946 -0.4041  0.1899
 4514TIP3    H134957   4.744   2.958  17.172  0.2357  1.6626 -1.6938
 4514TIP3    H234958   4.831   3.022  17.279 -0.5492 -0.7246  0.4681
 4515TIP3   OH234959   4.737   2.435   6.179 -0.1928  0.0448 -0.2846
 4515TIP3    H134960   4.785   2.355   6.201 -0.9540 -0.6669 -1.1271
 4515TIP3    H234961   4.757   2.495   6.250  1.3817 -0.4648 -0.2663
 4516TIP3   OH234962   1.600   1.364  16.306 -1.0079 -0.0928 -0.7167
 4516TIP3    H134963   1.687   1.327  16.294 -0.6247  1.3413 -2.9952
 4516TIP3    H234964   1.544   1.288  16.322  0.3027 -1.2971 -1.5785
 4517TIP3   OH234965   2.902   5.773   1.661 -0.1622  0.0479 -0.0115
 4517TIP3    H134966   2.904   5.864   1.631  1.7417 -0.5345 -1.9862
 4517TIP3    H234967   2.929   5.722   1.584 -1.9502 -2.2928  0.7812
 4518TIP3   OH234968   0.328   2.392   5.531  0.5539 -0.2572 -0.0242
 4518TIP3    H134969   0.375   2.328   5.584  1.9474  0.4183 -0.4031
 4518TIP3    H234970   0.383   2.470   5.532  0.9984 -0.3971 -2.9428
 4519TIP3   OH234971   2.150   2.911   5.982 -0.3108  0.3593 -0.1170
 4519TIP3    H134972   2.134   2.826   6.024  2.4030 -0.5392 -0.7215
 4519TIP3    H234973   2.134   2.975   6.051 -0.7798 -0.7462  0.8394
 4520TIP3   OH234974   6.758   5.122   5.559  0.1036 -0.4824 -0.5701
 4520TIP3    H134975   6.670   5.153   5.541  0.9956  2.8160  0.1576
 4520TIP3    H234976   6.764   5.118   5.654  0.7976 -0.5581 -0.6099
 4521TIP3   OH234977   6.270   1.091  17.386 -0.7730 -0.1524  0.1599
 4521TIP3    H134978   6.261   0.998  17.365  0.3552 -0.2623  0.1012
 4521TIP3    H234979   6.350   1.119  17.339 -0.1018  0.4151  1.5839
 4522TIP3   OH234980   4.180   6.365   6.465 -0.1602  0.2767 -0.2128
 4522TIP3    H134981   4.257   6.336   6.515 -1.1348  1.1325  1.8961
 4522TIP3    H234982   4.142   6.435   6.518 -2.2580  0.0581 -1.3415
 4523TIP3   OH234983   2.460   2.878  16.189 -1.1068  0.1765 -0.1515
 4523TIP3    H134984   2.471   2.783  16.178 -1.6814  0.0582  0.2794
 4523TIP3    H234985   2.549   2.912  16.184 -0.6667 -0.6035  1.6963
 4524TIP3   OH234986   5.799   6.200  12.029  0.5084  0.5033 -0.1155
 4524TIP3    H134987   5.891   6.224  12.017  0.1214  1.4570 -1.3590
 4524TIP3    H234988   5.751   6.261  11.973 -0.7859 -0.9010 -0.5865
 4525TIP3   OH234989   3.771   0.644  14.817 -0.3365 -0.0204 -0.7246
 4525TIP3    H134990   3.831   0.704  14.773 -0.3166  0.5357  0.0491
 4525TIP3    H234991   3.689   0.653  14.769 -0.2222  0.3337 -0.8581
 4526TIP3   OH234992   3.933   5.538  15.989  0.0520  0.2727 -0.5815
 4526TIP3    H134993   3.956   5.488  15.911 -0.9056  0.2110 -0.8361
 4526TIP3    H234994   3.929   5.629  15.959  0.8995  0.4066 -0.3191
 4527TIP3   OH234995   3.828   3.031   3.408 -0.6472  0.0919 -0.6622
 4527TIP3    H134996   3.798   2.941   3.415  0.1989 -0.1100  0.5729
 4527TIP3    H234997   3.904   3.027   3.349 -1.3109  0.1922 -1.5475
 4528TIP3   OH234998   3.747   2.926  13.847 -0.2101 -0.0950  0.2014
 4528TIP3    H134999   3.708   2.896  13.765 -1.3101  1.5054  0.0701
 4528TIP3    H235000   3.671   2.945  13.903  0.5195 -1.7292  1.8401
 4529TIP3   OH235001   4.531   2.550   5.421  0.3254 -0.4694 -0.0903
 4529TIP3    H135002   4.496   2.634   5.391  0.1393 -0.8493 -0.9577
 4529TIP3    H235003   4.481   2.531   5.501 -0.3753 -0.2525 -0.4649
 4530TIP3   OH235004   5.227   4.879   1.371 -0.2859 -0.1709  0.7411
 4530TIP3    H135005   5.277   4.906   1.448  0.3436  1.5737 -0.2388
 4530TIP3    H235006   5.245   4.786   1.362  1.2500  0.0269  1.5305
 4531TIP3   OH235007   4.073   6.411   3.683 -0.9681  0.2017 -0.3387
 4531TIP3    H135008   4.096   6.489   3.733 -0.8081  1.1611 -1.8519
 4531TIP3    H235009   4.141   6.404   3.616 -0.7769 -1.4585 -0.0203
 4532TIP3   OH235010   2.721   4.157   6.300 -0.0776  0.2866  0.3145
 4532TIP3    H135011   2.799   4.132   6.250 -0.1754  0.5647  0.0140
 4532TIP3    H235012   2.691   4.076   6.341  0.8240  0.3211  1.0737
 4533TIP3   OH235013   3.676   1.703  12.315 -0.2754  0.2052 -0.3115
 4533TIP3    H135014   3.758   1.674  12.274 -0.5368  1.3257 -1.7120
 4533TIP3    H235015   3.656   1.635  12.379  2.0011  0.1455  0.4260
 4534TIP3   OH235016   0.147   5.014  13.669  0.3449 -0.0775 -0.4494
 4534TIP3    H135017   0.091   4.983  13.740  0.8457 -0.0336 -0.0279
 4534TIP3    H235018   0.191   5.091  13.706  0.2187  0.2500 -0.9835
 4535TIP3   OH235019   6.616   5.011  11.131  0.1449  0.1681 -0.3104
 4535TIP3    H135020   6.556   5.079  11.164 -1.0758 -1.4200  0.9083
 4535TIP3    H235021   6.690   5.014  11.191 -1.2272 -1.4504  1.6018
 4536TIP3   OH235022   5.012   1.809   3.546 -0.4914 -0.0359 -0.1472
 4536TIP3    H135023   5.083   1.772   3.493 -0.2444  0.1499  0.0478
 4536TIP3    H235024   4.934   1.801   3.491  0.1792  2.4367 -1.5987
 4537TIP3   OH235025   3.562   3.422   2.286 -0.2025  0.2703 -0.1255
 4537TIP3    H135026   3.518   3.490   2.337  1.8782  1.0229  0.7706
 4537TIP3    H235027   3.574   3.460   2.199 -1.5346 -0.0705 -0.4864
 4538TIP3   OH235028   3.604   6.088  12.638  0.4291 -0.1817 -0.2396
 4538TIP3    H135029   3.653   6.105  12.558  2.1542  0.1582  0.8263
 4538TIP3    H235030   3.579   6.175  12.670  1.1794 -0.1991  0.4226
 4539TIP3   OH235031   6.713   2.864   4.909 -0.0691 -0.4870  0.1893
 4539TIP3    H135032   6.721   2.960   4.912 -0.7191 -0.4430  0.8145
 4539TIP3    H235033   6.739   2.835   4.996 -0.5303 -0.8170  0.2237
 4540TIP3   OH235034   0.797   6.441  15.786  0.3922  0.0324 -0.4384
 4540TIP3    H135035   0.816   6.430  15.880  0.4164  2.6042 -0.0769
 4540TIP3    H235036   0.879   6.475  15.749  0.3277 -0.8135 -1.3957
 4541TIP3   OH235037   5.298   2.521  11.111 -0.4905 -0.3433 -0.1925
 4541TIP3    H135038   5.271   2.569  11.190  0.7852  1.1510 -0.6224
 4541TIP3    H235039   5.262   2.573  11.038  2.2030  0.9299 -0.7279
 4542TIP3   OH235040   0.669   3.027   2.540  0.2863  0.4330 -0.5310
 4542TIP3    H135041   0.690   3.086   2.613  1.4502 -1.4358  0.7477
 4542TIP3    H235042   0.734   2.957   2.547 -0.6536 -0.6959 -2.3525
 4543TIP3   OH235043   3.982   5.957  14.075  0.2043  0.4126  0.9660
 4543TIP3    H135044   3.952   5.882  14.127 -0.1051 -1.0719 -1.2391
 4543TIP3    H235045   4.075   5.942  14.063  0.3665  0.9998  1.4478
 4544TIP3   OH235046   5.462   3.869   0.318  0.2539 -0.4707  0.0407
 4544TIP3    H135047   5.475   3.829   0.405 -1.9271 -1.9035 -0.1926
 4544TIP3    H235048   5.442   3.794   0.261 -0.3376  0.6493 -1.2573
 4545TIP3   OH235049   3.294   2.200   5.347  0.2319 -0.6656  0.1794
 4545TIP3    H135050   3.312   2.244   5.431  1.4172  1.1351 -0.9407
 4545TIP3    H235051   3.350   2.122   5.349  3.2647  1.2893 -0.3699
 4546TIP3   OH235052   1.983   4.187  12.790 -0.2978 -0.1614  0.4882
 4546TIP3    H135053   2.044   4.237  12.736 -1.0137 -0.9333 -1.0861
 4546TIP3    H235054   1.930   4.254  12.834 -0.2499  0.4863 -0.4071
 4547TIP3   OH235055   6.528   3.953  15.112 -0.4869  0.4458 -0.2666
 4547TIP3    H135056   6.580   4.021  15.155  0.0173  1.5190 -2.4102
 4547TIP3    H235057   6.580   3.874  15.120 -0.8563  0.3599  1.8474
 4548TIP3   OH235058   4.991   4.142  17.279  0.4367  0.1251  0.0294
 4548TIP3    H135059   5.067   4.170  17.229  0.3262 -1.5202 -1.1269
 4548TIP3    H235060   4.927   4.213  17.267  0.2903 -0.3440 -2.4648
 4549TIP3   OH235061   3.876   6.726   0.689  0.0100  0.3513 -0.7661
 4549TIP3    H135062   3.943   6.785   0.655  1.1539  0.0685  0.8922
 4549TIP3    H235063   3.916   6.639   0.685 -1.4714 -0.3172 -2.7252
 4550TIP3   OH235064   4.988   1.116  12.687  0.4502  0.1915  0.1328
 4550TIP3    H135065   4.985   1.044  12.750  0.8864  2.0783  2.4315
 4550TIP3    H235066   4.911   1.169  12.706  0.2791  0.5285 -1.3394
 4551TIP3   OH235067   2.772   5.355  12.822 -0.0449  0.3830  0.1564
 4551TIP3    H135068   2.722   5.436  12.817 -1.0119 -0.2517 -2.7915
 4551TIP3    H235069   2.708   5.287  12.843  0.6729  0.2689  2.1468
 4552TIP3   OH235070   5.493   1.505  16.095  0.5259  0.2796 -0.5660
 4552TIP3    H135071   5.557   1.559  16.049 -0.1299  2.1145  0.5678
 4552TIP3    H235072   5.516   1.513  16.187  0.7710 -1.9244 -0.3863
 4553TIP3   OH235073   3.063   4.415  17.119  0.1230  0.2585 -0.1851
 4553TIP3    H135074   3.132   4.469  17.156 -0.8443  2.6873 -1.6929
 4553TIP3    H235075   2.985   4.436  17.170 -0.2398  0.2388 -0.7177
 4554TIP3   OH235076   4.606   2.992  13.368 -0.4380  0.0940 -0.5026
 4554TIP3    H135077   4.609   2.898  13.347 -0.6289  0.2854 -1.4112
 4554TIP3    H235078   4.641   3.035  13.290  0.4629  0.7470  0.2434
 4555TIP3   OH235079   0.042   1.732   0.116 -0.3674 -0.2416  0.2066
 4555TIP3    H135080  -0.010   1.652   0.123 -0.7459 -0.0518 -0.3033
 4555TIP3    H235081   0.129   1.708   0.149 -0.3285 -1.0027 -0.4253
 4556TIP3   OH235082   5.648   0.943  14.938  0.5203 -0.2035  0.2360
 4556TIP3    H135083   5.623   1.029  14.973  0.6014  0.2430 -0.7643
 4556TIP3    H235084   5.690   0.899  15.012  1.5116  1.0508  0.4669
 4557TIP3   OH235085   4.403   4.042  17.221  0.5348 -0.6886  0.2366
 4557TIP3    H135086   4.420   4.136  17.227  0.9206 -0.5234 -2.3366
 4557TIP3    H235087   4.432   4.018  17.133  0.2346 -3.1905  0.7493
 4558TIP3   OH235088   6.467   6.217   2.148  0.2059  0.2076 -0.1051
 4558TIP3    H135089   6.446   6.168   2.069  0.9222 -0.3747  0.0500
 4558TIP3    H235090   6.424   6.169   2.218 -0.0117  0.4363 -0.0823
 4559TIP3   OH235091   5.942   3.865   2.175 -0.3620 -0.0083  0.3761
 4559TIP3    H135092   5.867   3.921   2.157 -0.6388 -0.6248 -0.4724
 4559TIP3    H235093   5.913   3.809   2.247 -0.6231 -0.0654  0.2280
 4560TIP3   OH235094   6.523   1.917   5.219 -0.3295  0.0331  0.1617
 4560TIP3    H135095   6.509   1.999   5.266 -1.1152 -0.4992  0.8982
 4560TIP3    H235096   6.452   1.915   5.154 -0.7358 -0.3686  0.6048
 4561TIP3   OH235097   0.198   0.610  15.461 -0.7204 -0.3986  0.1981
 4561TIP3    H135098   0.112   0.602  15.420 -1.0393 -0.7015  0.9231
 4561TIP3    H235099   0.260   0.593  15.389 -1.2093  1.4080 -0.7070
 4562TIP3   OH235100   3.287   4.871   4.008  0.2226 -0.3628 -0.8037
 4562TIP3    H135101   3.224   4.903   3.943 -0.2697  1.5653  0.5425
 4562TIP3    H235102   3.234   4.823   4.072  0.1010  1.1520  0.2626
 4563TIP3   OH235103   5.339   4.481   3.337 -0.1877  1.0401 -0.3195
 4563TIP3    H135104   5.250   4.515   3.324 -0.9129 -1.1286 -1.4449
 4563TIP3    H235105   5.327   4.390   3.364  1.6859  0.4491 -1.2737
 4564TIP3   OH235106   6.024   2.175  11.868 -0.8028  0.3052 -0.3718
 4564TIP3    H135107   5.950   2.115  11.862  0.4837 -1.5598  1.0212
 4564TIP3    H235108   6.068   2.168  11.784 -0.8942 -0.4256 -0.3669
 4565TIP3   OH235109   6.118   3.385  13.118 -0.1216  0.6469 -0.9940
 4565TIP3    H135110   6.070   3.303  13.100 -1.7621  1.0731  0.9969
 4565TIP3    H235111   6.194   3.381  13.061 -0.1338 -2.2883 -0.9732
 4566TIP3   OH235112   1.610   5.568  15.075 -0.1601 -0.7568  0.1142
 4566TIP3    H135113   1.531   5.537  15.120 -0.5839  1.0752  0.6872
 4566TIP3    H235114   1.588   5.656  15.045  2.5371  0.9750  2.6910
 4567TIP3   OH235115   4.982   1.333  16.061  0.3670 -0.0674 -0.0387
 4567TIP3    H135116   5.057   1.372  16.107 -0.1220  1.5120 -0.4929
 4567TIP3    H235117   4.906   1.361  16.111 -0.0433  0.0277 -0.7041
 4568TIP3   OH235118   2.726   0.886  16.303  0.5707 -0.2166 -0.2866
 4568TIP3    H135119   2.754   0.795  16.293 -1.3067 -0.8342 -0.2222
 4568TIP3    H235120   2.724   0.900  16.398 -1.3031 -0.8559 -0.2001
 4569TIP3   OH235121   5.362   3.932  16.194 -0.3168  0.0730  0.0722
 4569TIP3    H135122   5.358   3.873  16.269 -0.9205 -0.0844 -0.0833
 4569TIP3    H235123   5.315   4.011  16.222 -1.9200 -0.5846 -0.6716
 4570TIP3   OH235124   2.718   2.272  12.164  0.0948  0.3530 -0.7123
 4570TIP3    H135125   2.639   2.263  12.110 -0.1321 -2.8126  0.0047
 4570TIP3    H235126   2.732   2.186  12.202  2.5218  1.4600  1.1919
 4571TIP3   OH235127   0.920   5.415   1.612 -0.3132  0.1819  0.2546
 4571TIP3    H135128   0.920   5.362   1.691 -0.9912  1.1424  0.9231
 4571TIP3    H235129   0.957   5.499   1.639 -0.3261  0.4439 -0.5026
 4572TIP3   OH235130   5.520   5.319   1.373 -0.3892 -0.6904 -0.0253
 4572TIP3    H135131   5.447   5.263   1.346 -1.0604  0.0741  0.1672
 4572TIP3    H235132   5.585   5.258   1.408 -0.1169 -1.5713 -1.9664
 4573TIP3   OH235133   6.545   6.098  13.537  0.0444 -0.4089  0.0268
 4573TIP3    H135134   6.630   6.128  13.569  0.6357 -0.9610 -0.9558
 4573TIP3    H235135   6.539   6.131  13.448  0.8292 -3.2309 -1.1969
 4574TIP3   OH235136   0.272   6.772   6.309 -0.2035 -0.4369  0.1229
 4574TIP3    H135137   0.248   6.692   6.262 -0.2188 -0.4875  0.2161
 4574TIP3    H235138   0.193   6.794   6.360 -0.2071 -0.3497  0.0791
 4575TIP3   OH235139   5.923   5.889   1.580 -0.1544 -0.1401 -0.2715
 4575TIP3    H135140   5.850   5.934   1.622  1.1816  1.7390  0.1422
 4575TIP3    H235141   5.884   5.809   1.544 -1.9755 -0.2376  1.7317
 4576TIP3   OH235142   5.151   3.309   0.494  0.2543 -0.1924  0.3925
 4576TIP3    H135143   5.069   3.263   0.478  0.1240 -0.7967  2.5284
 4576TIP3    H235144   5.129   3.377   0.556  1.3089 -0.1407  0.7243
 4577TIP3   OH235145   4.516   2.890   5.624 -0.2025 -0.7378 -0.0358
 4577TIP3    H135146   4.476   2.969   5.587  0.1729  1.9171  4.4390
 4577TIP3    H235147   4.446   2.824   5.621 -1.7564  0.8490 -0.7201
 4578TIP3   OH235148   6.588   5.368  15.006 -0.1985 -0.5074  0.4894
 4578TIP3    H135149   6.618   5.431  15.071 -1.9700  0.7212  0.1911
 4578TIP3    H235150   6.612   5.282  15.042  1.0107  0.2615  1.5648
 4579TIP3   OH235151   1.981   6.740   2.742  0.1162  0.1132  0.6125
 4579TIP3    H135152   2.015   6.717   2.829  0.2305  0.7792  0.7520
 4579TIP3    H235153   2.058   6.767   2.692  0.2633 -1.6638 -0.1815
 4580TIP3   OH235154   4.450   1.743   5.013 -0.5818  0.1946  0.4187
 4580TIP3    H135155   4.504   1.764   5.089 -1.8781  3.1219  0.6576
 4580TIP3    H235156   4.488   1.662   4.978  4.5319  2.4338 -0.0132
 4581TIP3   OH235157   0.897   0.981   0.346 -0.5204 -0.4036 -0.5059
 4581TIP3    H135158   0.902   1.077   0.344 -0.0570 -0.3915  0.6909
 4581TIP3    H235159   0.837   0.959   0.275  0.4970  0.6917 -1.7610
 4582TIP3   OH235160   1.438   1.125  15.745  0.2088 -0.3459 -0.4699
 4582TIP3    H135161   1.467   1.213  15.725 -1.5260 -0.0823 -2.1160
 4582TIP3    H235162   1.353   1.137  15.789  0.1778 -1.1837 -0.2763
 4583TIP3   OH235163   2.203   4.677  16.745 -0.0370 -0.1517 -0.0779
 4583TIP3    H135164   2.129   4.656  16.802  0.2866  0.5159  0.6189
 4583TIP3    H235165   2.265   4.605  16.758 -0.3743 -0.4864 -0.3233
 4584TIP3   OH235166   1.407   3.454  12.013 -0.4877 -0.2047 -0.1492
 4584TIP3    H135167   1.334   3.453  11.952 -0.3845  2.2102 -0.4183
 4584TIP3    H235168   1.405   3.542  12.051  2.4325  0.0682 -0.4014
 4585TIP3   OH235169   6.660   5.270  13.389 -0.1289 -0.7793 -0.0998
 4585TIP3    H135170   6.598   5.211  13.345 -1.1140 -0.3976  0.7421
 4585TIP3    H235171   6.605   5.333  13.434  0.8883 -0.3193  0.5251
 4586TIP3   OH235172   6.248   0.019  13.888 -0.1841  0.3043  0.5851
 4586TIP3    H135173   6.159  -0.009  13.865 -0.0305 -0.6921  1.1323
 4586TIP3    H235174   6.297  -0.063  13.895  0.7750  0.8459  0.3191
 4587TIP3   OH235175   4.151   1.846   4.724  0.1671 -0.8189  0.1634
 4587TIP3    H135176   4.086   1.903   4.683 -0.4946 -1.4331  0.3460
 4587TIP3    H235177   4.167   1.885   4.810 -0.6108 -1.1275  0.4632
 4588TIP3   OH235178   3.415   4.810   3.299 -0.4335  0.1406 -0.1000
 4588TIP3    H135179   3.495   4.836   3.254  0.5865 -0.5064  1.2676
 4588TIP3    H235180   3.399   4.720   3.272 -0.8478  0.3459 -0.5556
 4589TIP3   OH235181   0.540   2.206   2.717  0.2155 -0.4766 -0.2500
 4589TIP3    H135182   0.495   2.215   2.633  1.0658  0.0106 -0.6608
 4589TIP3    H235183   0.508   2.122   2.752 -2.5112  0.7132  0.4057
 4590TIP3   OH235184   0.835   3.458  11.242 -0.7200  0.0979  0.4481
 4590TIP3    H135185   0.857   3.365  11.249 -1.4840 -0.2338 -1.1080
 4590TIP3    H235186   0.818   3.471  11.148 -1.5839  1.5845  0.7935
 4591TIP3   OH235187   4.644   6.274  10.666  0.5977  0.0258 -0.2713
 4591TIP3    H135188   4.733   6.258  10.635  0.4849 -0.1767 -0.4927
 4591TIP3    H235189   4.634   6.369  10.662  0.6454  0.0134 -0.6890
 4592TIP3   OH235190   2.979   5.659   5.760 -0.2362  0.2538  0.1732
 4592TIP3    H135191   2.928   5.695   5.687 -0.1736 -0.6766 -0.3397
 4592TIP3    H235192   3.040   5.728   5.783  0.3322  0.2428 -1.2348
 4593TIP3   OH235193   5.341   3.735   5.480 -0.1149  0.9718 -0.1390
 4593TIP3    H135194   5.256   3.692   5.486 -0.6370  1.9885  0.0869
 4593TIP3    H235195   5.404   3.664   5.478 -0.8672  0.2124  1.4110
 4594TIP3   OH235196   0.447   2.100  16.956  0.3992  0.4042 -0.2643
 4594TIP3    H135197   0.527   2.056  16.927  1.3734  1.7349  0.3380
 4594TIP3    H235198   0.387   2.090  16.882  2.2036  2.1757 -2.0976
 4595TIP3   OH235199   5.785   5.677  11.434  0.1401  0.0087  0.3436
 4595TIP3    H135200   5.866   5.727  11.439 -0.1639  0.6998 -1.0436
 4595TIP3    H235201   5.755   5.688  11.343 -1.2413 -0.6350  0.6831
 4596TIP3   OH235202   6.699   1.864  12.544  0.0363 -0.1335  0.3072
 4596TIP3    H135203   6.667   1.952  12.564 -0.2431  0.3026 -1.7491
 4596TIP3    H235204   6.650   1.806  12.602 -3.0691  0.7109 -1.2319
 4597TIP3   OH235205   3.981   2.766  10.735  0.4645 -0.5103  0.0096
 4597TIP3    H135206   4.040   2.810  10.797 -0.7780 -0.1258  0.9717
 4597TIP3    H235207   3.904   2.822  10.731  1.1097  0.2944 -3.1593
 4598TIP3   OH235208   1.130   1.397   5.344 -0.1107  0.0132 -0.7251
 4598TIP3    H135209   1.171   1.333   5.402  0.8734  0.0726 -1.3117
 4598TIP3    H235210   1.054   1.429   5.392  0.8548  0.3029  0.6708
 4599TIP3   OH235211   3.171   5.222  15.944  0.2004 -0.0984  0.0112
 4599TIP3    H135212   3.218   5.293  15.989  0.8365 -0.3576 -0.2342
 4599TIP3    H235213   3.130   5.172  16.015  1.1827 -0.4964  0.3054
 4600TIP3   OH235214   6.728   4.409   2.357 -0.2668 -0.0946  0.2936
 4600TIP3    H135215   6.806   4.444   2.400 -0.8631 -0.1440  1.4586
 4600TIP3    H235216   6.736   4.315   2.366  0.7344 -0.2585 -1.7715
 4601TIP3   OH235217   3.739   3.735   3.962 -0.3419  0.2197 -0.3161
 4601TIP3    H135218   3.743   3.725   4.057 -0.6761  1.3270 -0.1674
 4601TIP3    H235219   3.725   3.647   3.929  2.0771 -0.5415  0.5102
 4602TIP3   OH235220   0.961   5.096   5.220  0.2618  0.1958 -0.4644
 4602TIP3    H135221   0.977   5.187   5.193 -0.0986 -0.6256 -4.0196
 4602TIP3    H235222   1.045   5.052   5.206 -0.1146 -0.4170 -0.8450
 4603TIP3   OH235223   2.252   0.956  13.087  0.8289  0.0485  0.4511
 4603TIP3    H135224   2.270   1.045  13.059  0.1674 -0.0204 -0.2358
 4603TIP3    H235225   2.169   0.962  13.135 -0.0826 -0.4094 -0.9778
 4604TIP3   OH235226   4.862   4.172   5.975 -0.1637 -0.3378  0.5168
 4604TIP3    H135227   4.793   4.237   5.966  1.3666  1.4598  1.1303
 4604TIP3    H235228   4.830   4.096   5.927 -2.4216  0.5263  0.5512
 4605TIP3   OH235229   1.934   1.544   4.786 -0.1493  0.3641 -0.6301
 4605TIP3    H135230   1.939   1.472   4.849 -0.5934 -0.0891 -1.0976
 4605TIP3    H235231   2.017   1.591   4.796  0.2242 -0.3209 -0.4435
 4606TIP3   OH235232   1.036   6.543  15.119  0.2890 -0.5221  0.2259
 4606TIP3    H135233   0.963   6.605  15.129  0.0286 -0.9241  0.8666
 4606TIP3    H235234   1.003   6.478  15.056 -0.0363 -0.8831  0.7594
 4607TIP3   OH235235   5.941   3.192  15.064 -0.0470  0.1409  0.4923
 4607TIP3    H135236   6.024   3.152  15.039 -0.3339 -0.5181  0.5721
 4607TIP3    H235237   5.922   3.255  14.994 -0.7158 -1.4914 -0.8496
 4608TIP3   OH235238   2.118   0.607  10.983  0.3749  0.0652 -0.3472
 4608TIP3    H135239   2.062   0.638  11.054  0.4372 -0.7577  0.0732
 4608TIP3    H235240   2.181   0.678  10.970  1.5960 -0.5644  1.7730
 4609TIP3   OH235241   0.872   3.476  15.377  0.7244  0.0854  0.0641
 4609TIP3    H135242   0.910   3.462  15.464  1.8665  1.9339 -0.0872
 4609TIP3    H235243   0.947   3.476  15.318  0.0735 -0.0144 -0.7733
 4610TIP3   OH235244   2.706   5.975   3.572  0.0798  0.3689 -0.1280
 4610TIP3    H135245   2.610   5.971   3.569 -0.0209  0.2072  1.7162
 4610TIP3    H235246   2.733   5.885   3.589  0.4323  0.6449  0.8931
 4611TIP3   OH235247   4.521   0.709  11.547  0.2565 -0.1146 -0.1554
 4611TIP3    H135248   4.565   0.786  11.512  0.8608 -0.5529 -0.3644
 4611TIP3    H235249   4.460   0.683  11.478  0.9404 -0.5575 -0.6001
 4612TIP3   OH235250   5.002   1.921  15.489 -0.2186 -0.1445 -0.2038
 4612TIP3    H135251   4.914   1.899  15.518  0.0559 -1.6236 -0.3904
 4612TIP3    H235252   5.059   1.884  15.556  0.2987 -0.6348 -0.8918
 4613TIP3   OH235253   4.560   0.262  16.719  0.4179  0.3637  0.2420
 4613TIP3    H135254   4.548   0.184  16.666  2.5141 -0.8177  1.3747
 4613TIP3    H235255   4.605   0.324  16.661  0.7590 -0.1046 -0.0003
 4614TIP3   OH235256   3.135   5.591   6.547 -0.6136  0.0150 -0.4200
 4614TIP3    H135257   3.174   5.541   6.619 -1.7411  0.0315  0.2282
 4614TIP3    H235258   3.146   5.682   6.573  1.3338  0.1381 -1.5441
 4615TIP3   OH235259   3.251   1.192   0.352  0.1429 -0.2615  0.3692
 4615TIP3    H135260   3.190   1.245   0.402 -1.1584 -2.3586  1.1606
 4615TIP3    H235261   3.276   1.122   0.412  2.2948 -0.2238 -0.3990
 4616TIP3   OH235262   5.323   4.167   3.348 -0.2568 -0.0283 -0.3280
 4616TIP3    H135263   5.315   4.192   3.440 -0.1048  0.5102 -0.4628
 4616TIP3    H235264   5.274   4.085   3.342 -1.2153  0.5071 -0.0009
 4617TIP3   OH235265   4.980   3.746  15.419  0.1851  0.3907  0.1383
 4617TIP3    H135266   5.060   3.788  15.388 -0.4142 -0.1659 -2.4416
 4617TIP3    H235267   4.943   3.706  15.341 -1.8768 -0.6160  1.5423
 4618TIP3   OH235268   2.803   4.092   0.523  0.4550  0.1931  0.3344
 4618TIP3    H135269   2.759   4.047   0.596 -0.9714 -3.2293 -2.3214
 4618TIP3    H235270   2.892   4.058   0.524  0.4358  0.1457  0.4694
 4619TIP3   OH235271   6.524   0.582   0.942  0.1042 -0.0913  0.2330
 4619TIP3    H135272   6.617   0.602   0.938  0.0780 -0.1219 -1.1210
 4619TIP3    H235273   6.488   0.616   0.860 -0.9202 -0.8446  0.3417
 4620TIP3   OH235274   1.160   4.278   4.434  0.2390 -0.0802 -0.4158
 4620TIP3    H135275   1.137   4.283   4.342 -0.6680  0.3611 -0.1755
 4620TIP3    H235276   1.129   4.192   4.462  2.6729 -1.2571 -1.0630
 4621TIP3   OH235277   1.094   6.128   1.434 -0.5847  0.3402 -0.2273
 4621TIP3    H135278   1.171   6.186   1.434 -1.5195  1.6457  0.5342
 4621TIP3    H235279   1.037   6.165   1.501 -0.1245 -3.0507  2.2510
 4622TIP3   OH235280   2.585   3.097   3.044 -0.6849  0.0563  0.1931
 4622TIP3    H135281   2.678   3.092   3.021  0.0328 -1.4296  3.0173
 4622TIP3    H235282   2.540   3.058   2.969  1.2009 -1.7854 -0.0895
 4623TIP3   OH235283   3.267   3.608   5.411 -0.2590 -0.3897  0.1250
 4623TIP3    H135284   3.253   3.538   5.348  0.2151  0.2016 -0.6626
 4623TIP3    H235285   3.362   3.617   5.416 -0.2927 -0.3818  0.8798
 4624TIP3   OH235286   6.171   1.481  15.183 -0.5227 -0.5996 -0.8716
 4624TIP3    H135287   6.163   1.441  15.270  0.8003 -1.1561 -0.9816
 4624TIP3    H235288   6.179   1.407  15.123  1.7115 -0.2290 -1.1055
 4625TIP3   OH235289   2.060   6.370  13.966 -0.4392 -0.2314 -0.3396
 4625TIP3    H135290   1.990   6.386  13.902  0.0595  2.3330 -0.3330
 4625TIP3    H235291   2.097   6.286  13.939 -1.8318 -0.4138 -1.9179
 4626TIP3   OH235292   5.997   5.075  14.437  0.5090 -0.0062 -0.0167
 4626TIP3    H135293   6.070   5.096  14.379  0.6568  0.8573  0.4747
 4626TIP3    H235294   5.945   5.155  14.441 -1.4366 -1.0673 -1.7078
 4627TIP3   OH235295   5.025   2.633  12.340 -0.2183 -0.1006 -0.4034
 4627TIP3    H135296   5.014   2.542  12.369 -1.0372  0.0729 -0.1287
 4627TIP3    H235297   5.113   2.656  12.366 -1.2209  0.4005  3.0019
 4628TIP3   OH235298   2.626   1.966  12.290 -0.3595  0.0214  0.2572
 4628TIP3    H135299   2.657   1.936  12.205 -0.0780 -0.2403  0.4513
 4628TIP3    H235300   2.698   2.017  12.326  0.4095 -1.6922  1.2886
 4629TIP3   OH235301   0.405   4.268  11.686  0.0167  0.7743 -0.2418
 4629TIP3    H135302   0.389   4.234  11.598 -0.7386 -1.0301  0.5454
 4629TIP3    H235303   0.345   4.342  11.694 -1.9272 -0.6955 -0.3485
 4630TIP3   OH235304   4.410   5.371   0.427  0.2336 -0.8090  0.5686
 4630TIP3    H135305   4.332   5.316   0.434 -1.8496  1.8274 -0.0850
 4630TIP3    H235306   4.436   5.363   0.336 -0.5208 -0.1835  0.2868
 4631TIP3   OH235307   3.079   2.677   5.928  0.1267 -0.2288  0.1596
 4631TIP3    H135308   3.073   2.773   5.924 -2.3575 -0.3312 -0.5300
 4631TIP3    H235309   3.021   2.647   5.858 -1.7870 -2.2149  2.4245
 4632TIP3   OH235310   5.047   1.057  16.034 -0.3217 -0.0874  0.0684
 4632TIP3    H135311   4.978   0.993  16.019 -0.5767  0.3525 -0.7038
 4632TIP3    H235312   5.008   1.140  16.006 -0.1504  0.4898  1.4371
 4633TIP3   OH235313   1.101   0.864  16.769 -0.2727  0.3339 -0.9404
 4633TIP3    H135314   1.190   0.886  16.741 -1.3524  0.9624 -4.3868
 4633TIP3    H235315   1.061   0.948  16.792 -0.2421  0.1387 -0.1322
 4634TIP3   OH235316   0.003   1.939  16.305  0.0892  0.1052  0.2472
 4634TIP3    H135317  -0.001   1.974  16.394  1.1845 -0.9042  0.7143
 4634TIP3    H235318   0.094   1.915  16.292 -0.4254 -1.7311 -0.3546
 4635TIP3   OH235319   5.008   3.862  16.565  0.4821 -0.3685 -0.3485
 4635TIP3    H135320   5.102   3.873  16.549  0.3577  1.2083 -0.1508
 4635TIP3    H235321   4.967   3.878  16.480  0.3904 -1.3053 -0.4928
 4636TIP3   OH235322   3.053   4.770  15.201  0.1070 -0.2571  0.6558
 4636TIP3    H135323   3.042   4.865  15.192 -1.9190 -0.4913  0.1298
 4636TIP3    H235324   3.007   4.749  15.282 -0.1983 -0.8956  0.3167
 4637TIP3   OH235325   0.777   1.448  16.685 -0.2294 -0.4279 -0.6367
 4637TIP3    H135326   0.839   1.518  16.704  1.3020 -1.7933 -0.2996
 4637TIP3    H235327   0.775   1.443  16.590 -1.2390  0.7954 -0.6972
 4638TIP3   OH235328   6.157   1.875   4.357 -0.6593 -0.4947 -0.2082
 4638TIP3    H135329   6.182   1.785   4.337 -0.3015 -0.5398  0.4323
 4638TIP3    H235330   6.147   1.917   4.271  1.1475 -0.5988 -0.5028
 4639TIP3   OH235331   6.575   2.515   2.027  0.4932 -0.6049  0.1533
 4639TIP3    H135332   6.481   2.520   2.010  0.6794  2.5748 -0.5004
 4639TIP3    H235333   6.610   2.467   1.951 -0.4374 -0.5165 -0.3423
 4640TIP3   OH235334   0.998   6.533  16.753  0.6330  0.1443  0.4981
 4640TIP3    H135335   0.999   6.500  16.663 -0.3010  2.1684 -0.3024
 4640TIP3    H235336   1.064   6.480  16.798  1.9948 -0.1216 -1.6653
 4641TIP3   OH235337   5.678   2.993   1.698 -0.2480 -0.5016  0.6562
 4641TIP3    H135338   5.772   2.976   1.689 -0.2689  0.0360 -0.7387
 4641TIP3    H235339   5.639   2.952   1.621 -0.8386  1.5613 -0.2008
 4642TIP3   OH235340   2.647   2.202   0.751  0.5886  0.1692 -0.7776
 4642TIP3    H135341   2.600   2.141   0.807 -0.0198  1.6943  0.4269
 4642TIP3    H235342   2.708   2.147   0.701  1.0967 -1.2672  1.3130
 4643TIP3   OH235343   2.398   5.293   5.372  0.2040  0.4680  0.0330
 4643TIP3    H135344   2.401   5.371   5.428  2.3154 -0.9036  2.0279
 4643TIP3    H235345   2.433   5.223   5.427 -1.8068 -1.9791 -1.6160
 4644TIP3   OH235346   4.004   4.915   2.953 -0.2688 -0.5666 -0.2481
 4644TIP3    H135347   3.933   4.948   2.897 -0.4235 -0.3531  0.0755
 4644TIP3    H235348   4.072   4.888   2.891  0.0179  0.6883 -0.5053
 4645TIP3   OH235349   3.147   6.387  13.325  0.0579  0.5485  0.2359
 4645TIP3    H135350   3.171   6.462  13.380 -0.8407  0.7592  0.3611
 4645TIP3    H235351   3.204   6.317  13.354  0.2399  0.9218  0.7948
 4646TIP3   OH235352   2.579   3.686  15.227 -0.0640 -0.2258  0.1996
 4646TIP3    H135353   2.587   3.591  15.225 -0.4838 -0.2508 -0.5241
 4646TIP3    H235354   2.577   3.713  15.136 -0.8566  0.3924  0.3844
 4647TIP3   OH235355   4.199   0.984  16.564  0.0506 -0.0064  0.3961
 4647TIP3    H135356   4.227   0.894  16.577  0.2518 -0.0207 -0.1039
 4647TIP3    H235357   4.172   1.014  16.651 -0.2168 -0.6132  0.5274
 4648TIP3   OH235358   3.066   5.923   2.703  0.2174 -0.2924  0.5593
 4648TIP3    H135359   3.091   5.979   2.629 -0.3768  0.6657  1.0585
 4648TIP3    H235360   3.149   5.897   2.742  0.5103  1.0789  0.9067
 4649TIP3   OH235361   5.702   5.224   4.024  0.5259 -0.2093  0.6965
 4649TIP3    H135362   5.692   5.225   4.119  0.8008  2.1122  0.7575
 4649TIP3    H235363   5.797   5.220   4.010  0.5428  0.5536  0.5554
 4650TIP3   OH235364   0.646   4.736  12.575 -0.4145  0.2807 -0.0683
 4650TIP3    H135365   0.640   4.817  12.625  0.7393  0.8152 -0.7634
 4650TIP3    H235366   0.706   4.681  12.626 -0.8950  0.0020  0.2053
 4651TIP3   OH235367   6.400   6.308   2.538 -0.2091  0.1492 -0.1895
 4651TIP3    H135368   6.342   6.256   2.593 -2.4248  2.2598 -0.3651
 4651TIP3    H235369   6.456   6.355   2.600 -0.1385 -0.2853  0.0818
 4652TIP3   OH235370   2.706   4.120   4.352 -0.5526  0.8164  0.0270
 4652TIP3    H135371   2.673   4.141   4.265 -0.6318 -2.9642 -1.0443
 4652TIP3    H235372   2.649   4.050   4.383 -0.2201  1.7089  2.9798
 4653TIP3   OH235373   4.044   5.309   4.299 -0.1447 -0.5746  0.3343
 4653TIP3    H135374   4.107   5.373   4.267 -0.6861  0.6244  1.5862
 4653TIP3    H235375   3.959   5.345   4.275 -0.4588 -0.7707  1.1418
 4654TIP3   OH235376   3.918   4.225   5.589  0.2767 -0.0802  0.5855
 4654TIP3    H135377   4.006   4.257   5.571  0.7896 -0.8342  1.6392
 4654TIP3    H235378   3.900   4.255   5.678 -0.3542 -0.3263  0.5453
 4655TIP3   OH235379   1.496   3.341   1.369  0.0646  0.1682  0.3146
 4655TIP3    H135380   1.588   3.354   1.390 -0.4061  1.3867  1.8632
 4655TIP3    H235381   1.454   3.422   1.397 -1.5949 -0.6674  0.3638
 4656TIP3   OH235382   3.130   3.132   4.570  0.2962  0.2843 -0.6373
 4656TIP3    H135383   3.040   3.121   4.537  0.4667 -0.1670 -0.9704
 4656TIP3    H235384   3.184   3.129   4.491  0.5728  0.9807 -0.4761
 4657TIP3   OH235385   5.942   2.410   1.422 -0.3491  0.4223  0.4243
 4657TIP3    H135386   5.954   2.394   1.516  1.5518  1.6728  0.4416
 4657TIP3    H235387   5.955   2.505   1.412 -0.5623  0.3117 -1.1017
 4658TIP3   OH235388   5.786   0.795  17.292 -0.1073  0.1796  0.3126
 4658TIP3    H135389   5.712   0.738  17.274 -0.9213  1.7672 -1.7565
 4658TIP3    H235390   5.863   0.740  17.278 -0.8738 -0.6644 -0.7070
 4659TIP3   OH235391   0.295   0.678  13.331  0.0381 -0.1096 -0.1759
 4659TIP3    H135392   0.313   0.747  13.266  0.2728 -0.2969 -0.3102
 4659TIP3    H235393   0.359   0.694  13.400  0.8641 -0.8898 -0.7392
 4660TIP3   OH235394   2.185   0.395  15.152 -0.4681  0.0017 -0.0015
 4660TIP3    H135395   2.234   0.476  15.164 -0.4886  0.0253 -0.0771
 4660TIP3    H235396   2.233   0.329  15.202 -1.0325  0.2872  0.9404
 4661TIP3   OH235397   1.405   0.125   4.021  0.0577 -0.3871  0.0125
 4661TIP3    H135398   1.445   0.175   3.950 -0.0113 -0.3237  0.0185
 4661TIP3    H235399   1.381   0.041   3.981 -1.6951  0.3332 -0.5268
 4662TIP3   OH235400   5.193   0.220   5.713  0.3399 -0.0319  0.6250
 4662TIP3    H135401   5.278   0.254   5.739  0.1905 -0.3374  1.5666
 4662TIP3    H235402   5.152   0.194   5.795 -1.2391  1.4220  0.3608
 4663TIP3   OH235403   4.178   0.641  13.437 -0.7362 -0.0698  0.1878
 4663TIP3    H135404   4.215   0.670  13.521 -2.6957 -0.2691  1.1779
 4663TIP3    H235405   4.187   0.546  13.439 -1.8396 -0.1831  0.7482
 4664TIP3   OH235406   1.417   4.833  12.377 -0.1353 -0.1725 -0.5057
 4664TIP3    H135407   1.388   4.759  12.322  0.4170 -1.2509  0.6033
 4664TIP3    H235408   1.401   4.804  12.466 -1.3826  1.7124 -0.0600
 4665TIP3   OH235409   3.397   4.326  17.354 -0.4768 -0.0847 -0.0279
 4665TIP3    H135410   3.455   4.394  17.390  0.3451 -1.7436  1.9864
 4665TIP3    H235411   3.313   4.341  17.398  0.1711 -1.3158  1.7551
 4666TIP3   OH235412   4.620   4.545   5.512  0.3949 -0.5389 -0.2053
 4666TIP3    H135413   4.613   4.499   5.595 -1.6589  0.0124 -0.0200
 4666TIP3    H235414   4.542   4.600   5.508 -0.0378 -1.2068 -2.8820
 4667TIP3   OH235415   0.643   6.411   4.344  0.7041 -0.1064  0.5919
 4667TIP3    H135416   0.558   6.436   4.308  0.9406  0.6614  0.5567
 4667TIP3    H235417   0.627   6.326   4.386 -0.2262  0.3484  1.1748
 4668TIP3   OH235418   1.742   3.134   1.443  0.1199  0.5049  0.1360
 4668TIP3    H135419   1.690   3.070   1.394  0.2703  0.5257 -0.0572
 4668TIP3    H235420   1.774   3.195   1.376  0.5052  0.4118  0.2292
 4669TIP3   OH235421   5.471   3.571   1.116  0.1673 -0.6710 -0.3108
 4669TIP3    H135422   5.395   3.522   1.148  0.9546 -1.5775  0.2037
 4669TIP3    H235423   5.516   3.600   1.195  0.6605 -0.6135 -0.6072
 4670TIP3   OH235424   3.414   1.699   0.530 -0.0324 -0.1502 -0.0327
 4670TIP3    H135425   3.416   1.604   0.513  1.0640  0.0638 -1.2503
 4670TIP3    H235426   3.343   1.731   0.474 -1.3645 -0.3981  1.4338
 4671TIP3   OH235427   3.215   5.876   1.365 -0.1358 -0.2420  0.0916
 4671TIP3    H135428   3.139   5.917   1.407  0.9118  1.4750  0.3776
 4671TIP3    H235429   3.218   5.916   1.278  0.7471  0.1053  0.2786
 4672TIP3   OH235430   6.682   1.514  11.393 -0.6274  0.1711  0.2484
 4672TIP3    H135431   6.766   1.537  11.432 -1.1703  1.8984  0.4704
 4672TIP3    H235432   6.627   1.590  11.408 -2.3244 -1.0097  0.3232
 4673TIP3   OH235433   4.724   2.810  14.685  0.6077  0.2822 -0.2022
 4673TIP3    H135434   4.629   2.817  14.674  0.5069  0.2579  0.5898
 4673TIP3    H235435   4.758   2.893  14.650  0.4982 -0.5669 -2.4639
 4674TIP3   OH235436   6.315   6.161   5.373  0.6657 -0.2606 -0.3703
 4674TIP3    H135437   6.290   6.174   5.464 -1.2560 -0.7761 -0.7762
 4674TIP3    H235438   6.322   6.249   5.336 -0.5012 -0.0663 -0.1818
 4675TIP3   OH235439   6.473   6.495   2.026  0.4096  0.4839  0.2013
 4675TIP3    H135440   6.402   6.557   2.043 -1.3981 -0.6260 -2.5245
 4675TIP3    H235441   6.454   6.419   2.082  0.0450  0.6090  0.2441
 4676TIP3   OH235442   4.035   4.096  12.543  0.4881 -0.2051 -0.0121
 4676TIP3    H135443   4.118   4.055  12.516 -0.1928 -1.5519 -0.1266
 4676TIP3    H235444   4.010   4.151  12.468  1.0338 -0.1627 -0.1679
 4677TIP3   OH235445   4.025   2.453  16.020 -0.2895  0.1384 -0.2999
 4677TIP3    H135446   4.033   2.517  16.091 -0.6745  1.0184 -1.0366
 4677TIP3    H235447   4.089   2.385  16.042 -0.3850  0.4140  0.8711
 4678TIP3   OH235448   0.224   2.939  17.361  0.7955 -0.2705  0.1529
 4678TIP3    H135449   0.249   3.022  17.401  1.5714  0.0573 -0.9700
 4678TIP3    H235450   0.303   2.909  17.315 -0.0332 -0.6460 -1.0914
 4679TIP3   OH235451   6.234   1.467   1.268  0.0019  0.4558  0.3687
 4679TIP3    H135452   6.323   1.458   1.234 -0.3753 -1.6942 -0.1468
 4679TIP3    H235453   6.181   1.487   1.191 -0.5152 -2.2066 -0.0361
 4680TIP3   OH235454   0.447   1.865  11.074  0.4139 -0.1703  0.2972
 4680TIP3    H135455   0.520   1.922  11.050  0.3887 -0.7140 -1.1700
 4680TIP3    H235456   0.453   1.791  11.014  0.4575 -1.7664  2.1661
 4681TIP3   OH235457   1.538   5.104  17.013  0.0981 -0.0222  0.5061
 4681TIP3    H135458   1.542   5.121  16.919 -0.3502  0.1567  0.5147
 4681TIP3    H235459   1.517   5.011  17.019 -3.2325  0.5825  0.3427
 4682TIP3   OH235460   6.348   0.122   0.746  0.0481 -0.4095 -0.4713
 4682TIP3    H135461   6.390   0.036   0.747 -1.6334 -1.3245 -2.1650
 4682TIP3    H235462   6.417   0.182   0.717  0.8990 -1.4070 -0.5653
 4683TIP3   OH235463   3.266   4.867  12.055 -0.0979  0.2630 -0.0728
 4683TIP3    H135464   3.326   4.796  12.033  0.5408  0.6480  0.3855
 4683TIP3    H235465   3.318   4.926  12.110 -0.7318  0.8888 -0.1316
 4684TIP3   OH235466   5.257   2.973  16.340 -0.2279  0.3908 -0.5941
 4684TIP3    H135467   5.321   3.042  16.360  0.4301 -0.1790 -0.7444
 4684TIP3    H235468   5.253   2.971  16.245  0.1518 -0.1488 -0.5981
 4685TIP3   OH235469   6.387   3.483   2.039 -0.5983  0.1223 -0.4943
 4685TIP3    H135470   6.436   3.563   2.020  3.1188 -1.7097  0.6110
 4685TIP3    H235471   6.423   3.418   1.979 -2.0318 -1.2496  0.0642
 4686TIP3   OH235472   2.548   1.475   4.486  0.2154 -0.8330 -0.2518
 4686TIP3    H135473   2.581   1.465   4.575  0.5027 -0.6446 -0.3362
 4686TIP3    H235474   2.611   1.534   4.443 -0.0587 -0.7206 -0.5033
 4687TIP3   OH235475   5.868   6.260   1.471  0.9405 -0.7425 -0.3477
 4687TIP3    H135476   5.825   6.182   1.437 -0.7884  0.3355 -0.7497
 4687TIP3    H235477   5.961   6.242   1.461  0.6023 -2.7803 -0.3361
 4688TIP3   OH235478   5.720   6.204   2.937  0.0412 -0.1845  0.0491
 4688TIP3    H135479   5.665   6.274   2.901  0.4480 -0.7493 -1.7439
 4688TIP3    H235480   5.718   6.135   2.871  3.2352 -0.0617 -0.3297
 4689TIP3   OH235481   4.338   1.420  12.963  0.4545 -0.5689  0.0256
 4689TIP3    H135482   4.266   1.483  12.963  1.4665  0.6275 -1.1081
 4689TIP3    H235483   4.382   1.433  13.047  1.1553  0.8662 -0.5344
 4690TIP3   OH235484   6.404   2.184  12.423  0.7523 -0.2304  0.0968
 4690TIP3    H135485   6.406   2.158  12.331 -0.8815  0.3822 -0.1391
 4690TIP3    H235486   6.463   2.260  12.427  0.2067  0.2474 -0.6265
 4691TIP3   OH235487   5.753   0.801  14.003  0.4093 -0.0781 -0.2967
 4691TIP3    H135488   5.838   0.842  13.986 -1.3301  3.6675 -0.9414
 4691TIP3    H235489   5.729   0.833  14.090 -1.5717  1.4338 -1.3387
 4692TIP3   OH235490   0.095   5.526  16.370 -0.6051  0.0184  0.3700
 4692TIP3    H135491   0.040   5.463  16.324 -0.9083 -0.2249  1.0676
 4692TIP3    H235492   0.090   5.502  16.462 -1.0412  1.2805  0.7064
 4693TIP3   OH235493   5.962   5.947   0.421  0.0275 -0.3808 -0.2536
 4693TIP3    H135494   6.021   5.997   0.366 -0.2246 -1.0858 -1.1955
 4693TIP3    H235495   5.984   5.855   0.403 -0.9893 -0.6461 -0.2470
 4694TIP3   OH235496   1.058   3.573  13.186 -0.9231 -0.0707  0.7074
 4694TIP3    H135497   1.151   3.595  13.182 -1.2613  1.3685 -0.4577
 4694TIP3    H235498   1.055   3.488  13.229  1.0025 -0.5862 -0.0544
 4695TIP3   OH235499   5.993   2.379   3.373  0.2795 -0.4488  0.0382
 4695TIP3    H135500   6.048   2.321   3.426 -0.7056 -0.6131  0.9142
 4695TIP3    H235501   6.055   2.426   3.316  1.4345  0.0436  1.6341
 4696TIP3   OH235502   5.712   4.251  17.164  0.3521  0.4990 -0.5783
 4696TIP3    H135503   5.687   4.323  17.106  2.4320  2.5530  0.8957
 4696TIP3    H235504   5.799   4.225  17.134 -0.9788 -2.6828 -2.1381
 4697TIP3   OH235505   3.835   3.550  12.540 -0.6110  0.2482  0.0986
 4697TIP3    H135506   3.833   3.472  12.484  1.1225  0.7464 -0.7060
 4697TIP3    H235507   3.865   3.620  12.483 -1.8426  1.4711  0.8941
 4698TIP3   OH235508   1.019   2.193   2.462 -0.4822  0.0538  0.2636
 4698TIP3    H135509   1.002   2.224   2.551 -0.8076 -0.0619  0.2438
 4698TIP3    H235510   0.937   2.211   2.414 -0.0638  0.7727 -0.1953
 4699TIP3   OH235511   1.298   0.641   0.046  0.2524 -0.2071 -0.2408
 4699TIP3    H135512   1.326   0.703  -0.021 -0.6821  0.0710 -0.3910
 4699TIP3    H235513   1.254   0.571  -0.003  0.6721 -0.6434 -0.0109
 4700TIP3   OH235514   2.201   3.092   1.041  0.3060  0.2604  0.1042
 4700TIP3    H135515   2.271   3.053   1.095 -0.0336  1.1429  1.2168
 4700TIP3    H235516   2.242   3.170   1.003  0.8032 -0.7913 -1.6506
 4701TIP3   OH235517   3.359   4.950   1.886 -0.2598  0.4260  0.4899
 4701TIP3    H135518   3.322   4.876   1.838  0.6742 -0.2457  0.7902
 4701TIP3    H235519   3.444   4.965   1.846  0.3850  0.0859  1.6846
 4702TIP3   OH235520   3.601   4.795   1.224 -0.9818  0.0407  0.1554
 4702TIP3    H135521   3.656   4.728   1.265  1.1379 -0.1611 -2.7584
 4702TIP3    H235522   3.559   4.750   1.151 -0.6022  1.5301 -1.0175
 4703TIP3   OH235523   4.527   2.030  15.556  0.2539  0.4840  0.3274
 4703TIP3    H135524   4.532   1.951  15.502  0.2820  1.2390 -0.8070
 4703TIP3    H235525   4.618   2.053  15.574  0.3045  1.0731 -0.5986
 4704TIP3   OH235526   3.453   0.795   5.905  0.1188 -0.0075  0.2951
 4704TIP3    H135527   3.459   0.840   5.989 -1.3242 -0.5903  0.7402
 4704TIP3    H235528   3.517   0.723   5.911 -1.0713 -1.0154  1.5460
 4705TIP3   OH235529   1.439   1.400  15.674 -0.4544 -0.2580 -1.0940
 4705TIP3    H135530   1.464   1.486  15.706 -2.0269 -0.1078 -0.1986
 4705TIP3    H235531   1.367   1.417  15.613 -1.9547 -1.0361  0.4050
 4706TIP3   OH235532   3.836   5.705   5.714 -0.3019 -0.0561  0.2238
 4706TIP3    H135533   3.779   5.739   5.782 -1.1268 -0.7990 -0.0754
 4706TIP3    H235534   3.788   5.631   5.677 -0.6436  1.3061 -2.2903
 4707TIP3   OH235535   4.769   3.064  16.053 -0.2458  0.1665 -0.4226
 4707TIP3    H135536   4.761   2.986  15.999  0.6953 -0.6157  0.5216
 4707TIP3    H235537   4.683   3.074  16.093  0.1045 -1.5009  0.8793
 4708TIP3   OH235538   5.326   4.636  14.507  0.0747 -0.1013 -0.2485
 4708TIP3    H135539   5.314   4.558  14.561  0.6863 -0.6512 -0.8786
 4708TIP3    H235540   5.392   4.611  14.443 -0.6091  0.5399 -1.2431
 4709TIP3   OH235541   0.853   2.112  13.807 -0.7691 -0.0985 -0.4252
 4709TIP3    H135542   0.915   2.062  13.861 -0.7383 -0.5518 -0.8735
 4709TIP3    H235543   0.781   2.132  13.866 -0.9806 -1.0483 -0.3485
 4710TIP3   OH235544   3.091   3.161   0.850  0.2552  0.0497  0.3155
 4710TIP3    H135545   3.172   3.128   0.812  0.7476  0.8389  0.6512
 4710TIP3    H235546   3.033   3.085   0.855  1.5880 -0.9218  1.7150
 4711TIP3   OH235547   5.986   5.775  16.167 -0.1684  0.1568  0.3899
 4711TIP3    H135548   5.899   5.746  16.141  0.1416 -0.4278 -0.0326
 4711TIP3    H235549   6.009   5.842  16.103 -0.8798  1.3686  1.3620
 4712TIP3   OH235550   4.787   0.285   2.063  0.5054  0.0721 -0.5694
 4712TIP3    H135551   4.695   0.305   2.044  0.4622 -0.1483 -0.5935
 4712TIP3    H235552   4.827   0.274   1.977  0.1443 -1.6709 -0.5339
 4713TIP3   OH235553   5.467   1.449   4.530 -0.7346  0.0533 -0.0450
 4713TIP3    H135554   5.407   1.395   4.581 -1.8029 -0.4341 -1.7338
 4713TIP3    H235555   5.447   1.539   4.556 -1.4233 -0.1752  0.2302
 4714TIP3   OH235556   3.795   5.093   4.669 -0.0872 -0.1627  0.2853
 4714TIP3    H135557   3.873   5.075   4.618 -0.4767 -0.8593 -0.0785
 4714TIP3    H235558   3.815   5.061   4.757  0.6888  1.2925  0.6713
 4715TIP3   OH235559   2.625   4.401   6.456 -0.0247 -1.2102  0.0730
 4715TIP3    H135560   2.575   4.358   6.386 -0.2128 -2.4672  0.9454
 4715TIP3    H235561   2.570   4.390   6.534 -1.0186  2.3498  0.0212
 4716TIP3   OH235562   4.426   5.951  16.606  0.4297 -0.1256  0.3602
 4716TIP3    H135563   4.370   5.984  16.535  0.5824  0.0617  0.3270
 4716TIP3    H235564   4.508   5.998  16.595  1.0934 -1.4049 -0.4593
 4717TIP3   OH235565   4.818   4.880  15.917 -0.5360  0.3268 -0.0789
 4717TIP3    H135566   4.873   4.956  15.932  1.2579 -0.7883 -0.6278
 4717TIP3    H235567   4.731   4.915  15.902  0.2755  2.2730 -0.4898
 4718TIP3   OH235568   0.931   4.330   2.859  0.6485  0.3306  0.2287
 4718TIP3    H135569   1.004   4.387   2.884  0.9470  1.0253 -1.9957
 4718TIP3    H235570   0.870   4.336   2.932  1.5649  1.9960  0.9073
 4719TIP3   OH235571   3.778   2.012  13.256 -0.1504 -0.2376 -0.1382
 4719TIP3    H135572   3.773   1.929  13.208 -0.7174 -0.9769  1.1596
 4719TIP3    H235573   3.820   1.990  13.339 -2.3167  0.2789  1.1900
 4720TIP3   OH235574   4.658   4.515  12.354  0.3132  0.0151 -0.5973
 4720TIP3    H135575   4.733   4.573  12.368 -0.0007  0.7359 -1.7597
 4720TIP3    H235576   4.691   4.448  12.294  0.5636 -0.8225  0.4384
 4721TIP3   OH235577   2.359   6.539  16.193  0.3740  0.8554  0.3705
 4721TIP3    H135578   2.384   6.470  16.132  1.7491  1.4001  0.2904
 4721TIP3    H235579   2.394   6.620  16.154 -0.2386  1.4461  1.0144
 4722TIP3   OH235580   6.755   3.152   4.854 -0.5103 -0.7187  0.4043
 4722TIP3    H135581   6.803   3.222   4.810 -0.2067  0.2211  2.1557
 4722TIP3    H235582   6.664   3.165   4.827 -0.5898  0.8953  1.3231
 4723TIP3   OH235583   5.943   2.827   0.798 -0.4339 -0.7775  0.6370
 4723TIP3    H135584   5.959   2.868   0.882  1.4905 -0.2960  0.0777
 4723TIP3    H235585   5.876   2.881   0.757  1.0227  1.0173  0.5091
 4724TIP3   OH235586   3.119   5.999  11.799  0.5730  0.5426 -0.5185
 4724TIP3    H135587   3.130   5.905  11.814  1.5441  0.6455 -0.5203
 4724TIP3    H235588   3.159   6.041  11.876 -0.2271  0.9488 -0.3174
 4725TIP3   OH235589   1.861   4.452  11.139 -0.2821 -0.2910  0.3133
 4725TIP3    H135590   1.884   4.372  11.093 -0.7198 -0.6547  0.7110
 4725TIP3    H235591   1.837   4.423  11.227 -1.2941  0.1738  0.2053
 4726TIP3   OH235592   2.612   0.904   3.694 -0.1760  0.4475  0.1688
 4726TIP3    H135593   2.549   0.933   3.628  0.2052  1.5209  0.2428
 4726TIP3    H235594   2.691   0.882   3.644 -0.8399 -1.7065 -0.0074
 4727TIP3   OH235595   0.513   0.387   0.306 -0.1850  0.0250  0.2492
 4727TIP3    H135596   0.502   0.297   0.335  0.7569  0.1024  0.9041
 4727TIP3    H235597   0.428   0.412   0.270  0.1294 -1.8282 -2.0126
 4728TIP3   OH235598   4.606   6.609   2.448 -0.0540  0.1592  0.4005
 4728TIP3    H135599   4.510   6.611   2.450 -0.1059  0.8783 -1.0192
 4728TIP3    H235600   4.631   6.699   2.427  1.0552  0.4611  2.7301
 4729TIP3   OH235601   1.858   0.044  13.616 -0.2598  0.3757 -0.1628
 4729TIP3    H135602   1.804   0.101  13.561 -0.8245  1.4541  1.4399
 4729TIP3    H235603   1.846  -0.043  13.579 -2.2462  0.7519 -0.5178
 4730TIP3   OH235604   1.830   2.644  16.050  0.0352 -0.1854 -0.0754
 4730TIP3    H135605   1.835   2.735  16.020  1.8563 -0.3424 -0.4095
 4730TIP3    H235606   1.741   2.633  16.083 -0.7701  1.2001 -1.6699
 4731TIP3   OH235607   0.846   3.227   5.054 -0.4785  0.1105 -0.2920
 4731TIP3    H135608   0.877   3.137   5.067  2.4692  0.8321 -1.4115
 4731TIP3    H235609   0.892   3.257   4.976 -0.7154  2.8402  0.5072
 4732TIP3   OH235610   2.349   3.140   0.752 -0.0012  0.4699 -0.6123
 4732TIP3    H135611   2.283   3.207   0.739 -0.9129 -0.7978 -3.3141
 4732TIP3    H235612   2.387   3.126   0.665  2.9939  0.2532  0.5861
 4733TIP3   OH235613   4.041   1.711  13.927 -0.4253  0.8985  0.0118
 4733TIP3    H135614   4.000   1.723  13.842  1.6873 -0.9718 -1.3808
 4733TIP3    H235615   4.125   1.755  13.920  1.9840 -3.3179 -0.8238
 4734TIP3   OH235616   4.908   0.534  15.816 -0.1959 -0.1606 -0.3820
 4734TIP3    H135617   4.841   0.510  15.752  1.1632 -2.3743 -1.0885
 4734TIP3    H235618   4.974   0.581  15.766  0.3245 -0.8984 -0.4131
 4735TIP3   OH235619   3.859   4.772   0.545  0.8160  0.2571 -0.5595
 4735TIP3    H135620   3.832   4.792   0.635  0.7303 -1.9570 -0.0357
 4735TIP3    H235621   3.821   4.842   0.492 -0.2980  0.8634  0.9732
 4736TIP3   OH235622   5.153   6.069  12.177  0.1457 -0.4455 -0.4418
 4736TIP3    H135623   5.194   6.043  12.094  0.4427 -3.9161  0.6244
 4736TIP3    H235624   5.060   6.077  12.155  0.0743 -2.2721 -1.0095
 4737TIP3   OH235625   5.133   2.485   2.002 -0.0022 -0.2520 -0.1704
 4737TIP3    H135626   5.166   2.405   1.961  0.5108 -0.2441  0.2123
 4737TIP3    H235627   5.130   2.464   2.095  0.8261  0.3954  0.0203
 4738TIP3   OH235628   6.640   2.845   5.472 -0.1599  0.4136 -1.1170
 4738TIP3    H135629   6.649   2.918   5.412  1.1876  0.0796 -1.3683
 4738TIP3    H235630   6.638   2.767   5.416 -1.2208  0.2158 -0.8351
 4739TIP3   OH235631   2.310   3.572  11.201  0.1454  0.3163 -0.2621
 4739TIP3    H135632   2.305   3.477  11.213  2.4354  0.0973 -0.5340
 4739TIP3    H235633   2.275   3.587  11.114 -0.0921 -0.2987 -0.2795
 4740TIP3   OH235634   6.548   2.190  15.116  0.5768  0.0806  0.4531
 4740TIP3    H135635   6.469   2.147  15.083  1.2884 -1.2875  0.4793
 4740TIP3    H235636   6.529   2.283  15.107 -0.7741 -0.2220 -0.1670
 4741TIP3   OH235637   5.872   0.174   2.446 -0.6299  0.1391  0.3589
 4741TIP3    H135638   5.849   0.158   2.538 -1.8089  2.8185  0.6124
 4741TIP3    H235639   5.967   0.186   2.448 -0.5426 -0.5456  1.0859
 4742TIP3   OH235640   1.698   0.396   5.767 -0.0126  0.3010  0.0925
 4742TIP3    H135641   1.778   0.436   5.732  0.5019 -0.8882 -0.1441
 4742TIP3    H235642   1.672   0.454   5.839  0.8615  0.9024 -0.0552
 4743TIP3   OH235643   0.245   0.073  15.721  0.0209  0.0351  0.0168
 4743TIP3    H135644   0.199   0.098  15.801 -0.0277  0.5570 -0.1697
 4743TIP3    H235645   0.193   0.113  15.651  0.3671  0.0343 -0.2401
 4744TIP3   OH235646   6.647   2.505   3.589 -0.2521  0.1268  0.7336
 4744TIP3    H135647   6.736   2.509   3.625  0.0440 -0.3583  0.0688
 4744TIP3    H235648   6.630   2.594   3.558  0.4468 -0.0368 -0.1645
 4745TIP3   OH235649   1.288   1.250   1.646 -0.4714  0.0335 -0.2856
 4745TIP3    H135650   1.310   1.184   1.711 -0.9030 -0.4305 -0.6043
 4745TIP3    H235651   1.372   1.275   1.607 -0.2034  0.3444  0.4638
 4746TIP3   OH235652   1.899   1.575   4.158 -0.0252 -0.2603 -0.0582
 4746TIP3    H135653   1.928   1.664   4.177  0.7957 -0.1449 -1.6032
 4746TIP3    H235654   1.804   1.577   4.165  0.1096  0.0552  2.4781
 4747TIP3   OH235655   4.579   0.135   2.378 -0.1892 -0.6091  0.2488
 4747TIP3    H135656   4.616   0.186   2.306  1.3146 -0.4693  1.0790
 4747TIP3    H235657   4.491   0.113   2.349  0.4113 -0.6588 -1.6977
 4748TIP3   OH235658   5.433   6.238  14.439 -0.3269  0.1377  0.6346
 4748TIP3    H135659   5.452   6.314  14.384  0.8354 -0.4919  0.1280
 4748TIP3    H235660   5.360   6.266  14.494 -1.7387  0.6829 -1.4221
 4749TIP3   OH235661   6.739   1.981   5.764 -0.1526 -0.0169  0.0622
 4749TIP3    H135662   6.733   2.016   5.675  0.2459  0.0426  0.0592
 4749TIP3    H235663   6.648   1.980   5.795 -0.3662 -0.5991 -0.5589
 4750TIP3   OH235664   0.519   1.600  10.961  0.0542 -0.4232 -0.1940
 4750TIP3    H135665   0.524   1.549  11.042 -0.3246 -1.6469 -0.9123
 4750TIP3    H235666   0.551   1.540  10.894 -1.0989  0.0358 -1.1774
 4751TIP3   OH235667   4.155   2.551   2.186 -0.0218  0.0911 -0.3294
 4751TIP3    H135668   4.074   2.576   2.142  0.0487 -0.6961 -0.9338
 4751TIP3    H235669   4.218   2.618   2.160 -0.5378  0.8726  0.3760
 4752TIP3   OH235670   0.278   0.783   4.414  0.0459  0.6207  0.5666
 4752TIP3    H135671   0.343   0.817   4.353  0.8618 -2.1910 -0.2854
 4752TIP3    H235672   0.320   0.787   4.500  0.3440  1.1507  0.3959
 4753TIP3   OH235673   3.369   0.428   1.263 -0.0846  0.2781 -0.4003
 4753TIP3    H135674   3.429   0.479   1.318 -0.7776  2.7853 -1.8706
 4753TIP3    H235675   3.353   0.348   1.314  3.5089  0.0094  0.5941
 4754TIP3   OH235676   5.293   4.150  15.482  0.0526 -0.0327 -0.7781
 4754TIP3    H135677   5.297   4.200  15.400  0.9804  1.7105  0.2840
 4754TIP3    H235678   5.369   4.179  15.532  0.3429 -2.1758  0.1189
 4755TIP3   OH235679   1.031   6.731   4.637 -0.3734  0.2834  0.3043
 4755TIP3    H135680   0.972   6.692   4.573  0.2296  1.5634 -1.0888
 4755TIP3    H235681   0.995   6.706   4.722 -1.7243 -0.6788 -0.5276
 4756TIP3   OH235682   6.602   6.726   3.702  0.0844 -0.3959  0.6089
 4756TIP3    H135683   6.572   6.664   3.769 -0.7752  0.1961  0.8020
 4756TIP3    H235684   6.628   6.804   3.752 -3.4471  1.2585  0.2349
 4757TIP3   OH235685   5.391   1.350  15.360  0.1066 -0.0743  0.5569
 4757TIP3    H135686   5.352   1.280  15.413 -2.8733  0.0543 -1.2061
 4757TIP3    H235687   5.321   1.415  15.351  1.2905  1.0200 -1.4717
 4758TIP3   OH235688   2.844   6.658  11.523 -0.3996 -0.1565  0.5143
 4758TIP3    H135689   2.821   6.667  11.615 -0.6719  0.8193  0.3611
 4758TIP3    H235690   2.925   6.607  11.523 -0.1283  0.2627  1.3208
 4759TIP3   OH235691   1.851   5.756  13.607  0.0526 -0.1194 -0.0590
 4759TIP3    H135692   1.785   5.728  13.670 -0.4960 -0.9873 -0.9885
 4759TIP3    H235693   1.861   5.849  13.623  0.1800 -0.3682  1.5323
 4760TIP3   OH235694   6.694   3.880  12.527  0.4311  0.2263 -0.0246
 4760TIP3    H135695   6.661   3.969  12.516 -0.8880 -0.3248 -0.8109
 4760TIP3    H235696   6.691   3.865  12.621 -2.8326 -0.1789 -0.0552
 4761TIP3   OH235697   6.105   2.871  16.677  0.1971 -0.1978 -0.2141
 4761TIP3    H135698   6.118   2.940  16.742  1.4557  0.0324 -0.6669
 4761TIP3    H235699   6.104   2.790  16.728  0.4838  0.0289  0.1589
 4762TIP3   OH235700   1.247   0.343   2.053 -0.1477 -0.0583  0.8036
 4762TIP3    H135701   1.334   0.384   2.058 -0.5213  0.9816 -0.5158
 4762TIP3    H235702   1.265   0.252   2.030  0.5957  0.3681 -0.4450
 4763TIP3   OH235703   2.193   5.805   5.758 -0.0260 -0.5509 -0.3220
 4763TIP3    H135704   2.278   5.816   5.801 -0.3733 -0.0065  0.2459
 4763TIP3    H235705   2.156   5.893   5.754 -0.3440 -0.7107 -1.0396
 4764TIP3   OH235706   0.480   4.271  14.780 -0.5019  0.4870 -0.3919
 4764TIP3    H135707   0.390   4.302  14.784 -0.2755  1.1160  0.0114
 4764TIP3    H235708   0.485   4.223  14.697 -0.9374  1.3177 -0.9258
 4765TIP3   OH235709   2.254   5.086   1.224  0.2408  0.2965 -0.3479
 4765TIP3    H135710   2.332   5.141   1.231  0.3383  0.4472 -2.2121
 4765TIP3    H235711   2.202   5.109   1.301  1.4344  1.1503  0.2322
 4766TIP3   OH235712   3.638   3.219   0.772 -0.5648 -0.0426 -0.1335
 4766TIP3    H135713   3.640   3.315   0.777 -1.0642 -0.0622  0.6200
 4766TIP3    H235714   3.575   3.199   0.703 -0.5758  0.1720 -0.1862
 4767TIP3   OH235715   4.297   5.865  14.789  0.5400  0.9693  0.1453
 4767TIP3    H135716   4.331   5.884  14.876  1.1546  0.7889 -0.0537
 4767TIP3    H235717   4.283   5.951  14.750 -0.7153  1.0759  0.7844
 4768TIP3   OH235718   3.429   2.188   5.972 -0.1315 -0.0240 -0.0920
 4768TIP3    H135719   3.493   2.225   5.911 -1.6328  1.7888 -0.6758
 4768TIP3    H235720   3.481   2.160   6.047  1.7701 -2.2096 -2.0713
 4769TIP3   OH235721   1.548   6.713   4.675  0.2432  0.4450 -0.1972
 4769TIP3    H135722   1.486   6.686   4.607  1.5060  0.1534 -1.2788
 4769TIP3    H235723   1.503   6.783   4.721 -1.9048 -1.4428  0.7424
 4770TIP3   OH235724   2.343   6.048  15.935 -0.4831 -0.4209 -0.0255
 4770TIP3    H135725   2.423   6.000  15.958  0.6820  0.9423 -1.0368
 4770TIP3    H235726   2.311   6.081  16.019  0.1529 -0.7882  0.3754
 4771TIP3   OH235727   4.569   1.550   2.196 -0.0962  0.8104 -0.1359
 4771TIP3    H135728   4.509   1.546   2.269 -0.1903  2.3125 -0.1002
 4771TIP3    H235729   4.629   1.622   2.217  2.1212 -0.9797  0.1137
 4772TIP3   OH235730   1.361   0.872  11.692 -0.4874  0.2029 -0.3200
 4772TIP3    H135731   1.431   0.854  11.754 -2.2326 -1.0910  1.4271
 4772TIP3    H235732   1.360   0.967  11.683 -0.0579  0.4311  1.5580
 4773TIP3   OH235733   0.945   2.809   4.755  0.0983  0.5108 -0.2967
 4773TIP3    H135734   0.877   2.859   4.801  0.4170  0.4476  0.2426
 4773TIP3    H235735   0.918   2.718   4.763  1.2288  0.3088  1.5786
 4774TIP3   OH235736   3.620   6.466  16.847 -0.1197 -0.5025  0.6322
 4774TIP3    H135737   3.679   6.500  16.780 -0.2067 -0.0441  0.7869
 4774TIP3    H235738   3.676   6.412  16.903  0.5606  1.4484  1.9009
 4775TIP3   OH235739   2.066   4.053   5.940 -0.5835  0.0460  0.6195
 4775TIP3    H135740   2.072   4.141   5.903  1.2194 -1.1641 -2.4283
 4775TIP3    H235741   2.139   4.048   6.002 -1.2770  0.9660  1.5258
 4776TIP3   OH235742   3.137   4.165   1.304  0.4625 -0.1782  0.0055
 4776TIP3    H135743   3.130   4.260   1.307  0.2567 -0.1976  2.1735
 4776TIP3    H235744   3.230   4.148   1.288  0.7148  0.4210  0.7722
 4777TIP3   OH235745   3.975   5.287  11.799 -0.1199 -0.0577 -0.2224
 4777TIP3    H135746   4.037   5.234  11.748  1.6867  2.5634 -0.9366
 4777TIP3    H235747   3.908   5.225  11.827  1.0143 -2.3966 -2.3207
 4778TIP3   OH235748   5.254   2.095   5.901 -0.4208 -0.3275  0.0639
 4778TIP3    H135749   5.182   2.158   5.906 -0.3623 -0.1804 -0.8285
 4778TIP3    H235750   5.281   2.097   5.809 -0.6833 -1.9430 -0.0709
 4779TIP3   OH235751   1.544   6.595  14.539  0.6521  0.7481  0.1336
 4779TIP3    H135752   1.557   6.553  14.454 -0.5604  0.9502 -0.1701
 4779TIP3    H235753   1.465   6.555  14.574 -0.3582  2.5227 -0.0184
 4780TIP3   OH235754   3.232   4.876  14.048  0.0548  0.1940  0.1957
 4780TIP3    H135755   3.306   4.849  14.103 -0.3488  1.2083  1.2896
 4780TIP3    H235756   3.207   4.962  14.083 -1.0145  0.3083 -0.7979
 4781TIP3   OH235757   5.539   4.216  15.575  0.2571  0.3026  0.5630
 4781TIP3    H135758   5.631   4.193  15.559 -0.0244 -0.2348 -0.3694
 4781TIP3    H235759   5.543   4.286  15.640  1.2983 -0.1316  1.0000
 4782TIP3   OH235760   5.712   5.969   4.107 -0.1031 -0.0392  0.3614
 4782TIP3    H135761   5.795   6.000   4.144  0.1068 -0.4928  0.2722
 4782TIP3    H235762   5.652   5.967   4.182  0.0977 -0.1663  0.5192
 4783TIP3   OH235763   4.562   3.764  11.360  0.5012  0.5982 -0.0003
 4783TIP3    H135764   4.471   3.770  11.332  0.5900 -0.5587 -0.6028
 4783TIP3    H235765   4.557   3.764  11.456 -0.2014 -0.2375 -0.0264
 4784TIP3   OH235766   5.181   5.858   5.926 -0.3977 -0.3389  0.1408
 4784TIP3    H135767   5.140   5.896   5.848 -0.2104 -0.9727 -0.2688
 4784TIP3    H235768   5.206   5.934   5.979 -1.1846  0.0814 -0.0665
 4785TIP3   OH235769   5.876   5.219  12.112 -0.0604  0.2329 -0.2872
 4785TIP3    H135770   5.929   5.140  12.100 -2.5000 -1.7856  1.1401
 4785TIP3    H235771   5.898   5.249  12.200 -0.7481 -0.2448  0.0625
 4786TIP3   OH235772   2.858   2.659   5.401 -0.2296 -0.0833 -0.0636
 4786TIP3    H135773   2.787   2.619   5.352 -0.4080  0.2080 -0.0496
 4786TIP3    H235774   2.936   2.610   5.377 -0.7559 -1.8613  1.5863
 4787TIP3   OH235775   1.313   5.809  11.284  0.4116  0.5079  0.2334
 4787TIP3    H135776   1.362   5.783  11.206  0.2803 -1.7274  0.8126
 4787TIP3    H235777   1.305   5.728  11.335 -1.2361  1.4737  1.6191
 4788TIP3   OH235778   3.892   5.912  16.653  0.5393 -0.0283 -0.3930
 4788TIP3    H135779   3.807   5.945  16.681  0.0452 -1.4042 -0.2129
 4788TIP3    H235780   3.920   5.974  16.585 -0.5542  0.4852 -0.3932
 4789TIP3   OH235781   4.807   2.338  11.940  0.2099  0.8155  0.1631
 4789TIP3    H135782   4.857   2.263  11.908 -2.2267 -0.3994 -1.1132
 4789TIP3    H235783   4.780   2.385  11.861 -1.6497  0.7224  0.6938
 4790TIP3   OH235784   6.241   1.138  16.799 -0.1120 -0.2169  0.3148
 4790TIP3    H135785   6.231   1.142  16.894  1.8003  1.1787  0.5017
 4790TIP3    H235786   6.305   1.068  16.784  1.0930  0.8639  0.2368
 4791TIP3   OH235787   3.511   3.896   0.830  0.7308  0.0929  0.2452
 4791TIP3    H135788   3.585   3.841   0.857 -0.2922 -0.5684  1.7938
 4791TIP3    H235789   3.499   3.957   0.902  0.3554  0.8418 -0.4290
 4792TIP3   OH235790   2.159   5.757  10.474 -0.1206 -0.1766 -0.1784
 4792TIP3    H135791   2.192   5.829  10.421  1.9007 -1.2896 -0.5042
 4792TIP3    H235792   2.149   5.795  10.562 -1.5991  1.1363 -0.8533
 4793TIP3   OH235793   4.673   0.690  16.230 -0.0695 -0.3626  0.5525
 4793TIP3    H135794   4.623   0.620  16.188 -1.1457  1.2702 -1.0021
 4793TIP3    H235795   4.627   0.707  16.312 -0.4171 -0.7413  0.4421
 4794TIP3   OH235796   2.283   6.498   1.633  0.2147 -0.0679  0.4177
 4794TIP3    H135797   2.311   6.524   1.545 -1.4124 -1.3022 -0.5273
 4794TIP3    H235798   2.258   6.580   1.676 -1.0334  0.3596 -1.0517
 4795TIP3   OH235799   0.820   4.720   3.958 -0.3104  0.0650  0.1319
 4795TIP3    H135800   0.791   4.629   3.957  0.1057 -0.0933  1.2481
 4795TIP3    H235801   0.740   4.772   3.959 -0.5502 -0.3151  0.6545
 4796TIP3   OH235802   0.375   1.481   3.924 -0.1377  0.0020 -0.4993
 4796TIP3    H135803   0.319   1.420   3.972 -0.5376  0.4556 -0.3856
 4796TIP3    H235804   0.322   1.511   3.851 -0.0811  0.5020 -0.3428
 4797TIP3   OH235805   1.944   1.506   2.074 -0.0627 -0.0613 -0.0798
 4797TIP3    H135806   1.952   1.583   2.130 -0.1104 -0.1030 -0.0144
 4797TIP3    H235807   1.906   1.538   1.993 -0.3307 -0.0599  0.0458
 4798TIP3   OH235808   5.405   1.710  13.461  0.4043 -0.7550  0.5873
 4798TIP3    H135809   5.393   1.636  13.402  2.2862 -1.2863  0.8061
 4798TIP3    H235810   5.441   1.779  13.406 -2.1480  0.3935  0.1903
 4799TIP3   OH235811   1.118   3.795  12.426  0.2848 -0.0789 -0.0205
 4799TIP3    H135812   1.069   3.829  12.501  1.0718 -1.4182  1.1354
 4799TIP3    H235813   1.053   3.744  12.377 -0.3557  1.2053 -0.5565
 4800TIP3   OH235814   0.775   5.673   4.604 -0.6082 -0.2583  0.1856
 4800TIP3    H135815   0.838   5.623   4.655 -0.6441  0.8056  1.3325
 4800TIP3    H235816   0.708   5.610   4.579  0.5010 -1.2467 -0.4047
 4801TIP3   OH235817   3.348   0.918  11.949 -0.4536  0.0540  0.1189
 4801TIP3    H135818   3.429   0.957  11.918  0.4424 -1.3739  0.5577
 4801TIP3    H235819   3.317   0.865  11.876 -2.5335  2.7019 -1.0780
 4802TIP3   OH235820   3.573   0.199  12.209  0.2163 -0.2767  0.1934
 4802TIP3    H135821   3.667   0.215  12.194 -0.3096  1.2951 -2.0312
 4802TIP3    H235822   3.566   0.104  12.218  2.1676 -0.3298  1.9955
 4803TIP3   OH235823   2.411   0.632   4.899  0.2339  0.3684 -0.2202
 4803TIP3    H135824   2.344   0.598   4.840 -1.2386  2.5008  0.1257
 4803TIP3    H235825   2.377   0.614   4.987  1.2062 -0.5058  0.0005
 4804TIP3   OH235826   6.748   3.482   2.240 -0.8553 -0.6320 -0.0497
 4804TIP3    H135827   6.826   3.473   2.295 -0.7435 -0.4184 -0.1765
 4804TIP3    H235828   6.779   3.466   2.151 -1.2630 -2.2631  0.0578
 4805TIP3   OH235829   6.533   4.927  14.057  0.0669  0.0672 -0.6464
 4805TIP3    H135830   6.597   4.886  14.116 -1.6125  0.5169  1.6391
 4805TIP3    H235831   6.559   5.019  14.056  0.5685 -0.0739 -1.2961
 4806TIP3   OH235832   6.037   6.331  16.732 -0.0081  0.1406  0.2004
 4806TIP3    H135833   6.087   6.276  16.671 -1.3384 -0.3073 -0.5418
 4806TIP3    H235834   6.099   6.352  16.801  1.6683  0.9142 -1.4328
 4807TIP3   OH235835   1.139   1.882   2.611 -0.2944  0.4053 -0.1063
 4807TIP3    H135836   1.161   1.791   2.632 -1.7649  0.2107  0.6842
 4807TIP3    H235837   1.054   1.877   2.569 -0.5623  1.4610  0.2862
 4808TIP3   OH235838   1.170   3.171   5.130  0.7120  0.4924  0.2331
 4808TIP3    H135839   1.192   3.251   5.082 -2.3742  0.9099 -0.7138
 4808TIP3    H235840   1.163   3.104   5.061 -2.7793  0.8723  0.0703
 4809TIP3   OH235841   2.453   2.357   5.543  0.0490 -0.3339 -0.5602
 4809TIP3    H135842   2.398   2.397   5.610 -0.1576 -0.8150 -0.4346
 4809TIP3    H235843   2.536   2.339   5.587  0.5239  0.9258 -0.9066
 4810TIP3   OH235844   6.703   0.053   4.477  0.4186 -0.4224  0.5293
 4810TIP3    H135845   6.662   0.105   4.408  1.2279 -3.6960 -2.7038
 4810TIP3    H235846   6.775   0.108   4.508 -0.0258  1.2153 -1.1398
 4811TIP3   OH235847   4.259   5.998  12.218 -0.0605  0.0587 -0.0952
 4811TIP3    H135848   4.219   5.927  12.167 -0.3300  0.7973 -0.9517
 4811TIP3    H235849   4.187   6.035  12.269 -0.0150 -0.0000  0.0109
 4812TIP3   OH235850   0.844   2.788   5.990  0.3144  0.8660  0.0977
 4812TIP3    H135851   0.866   2.727   6.061 -2.0358  0.9573  0.9872
 4812TIP3    H235852   0.809   2.865   6.034 -0.5105  1.2270 -1.1442
 4813TIP3   OH235853   3.234   0.979   1.273  0.2410  0.8033 -0.4668
 4813TIP3    H135854   3.302   0.919   1.304 -1.5581 -1.7728 -1.1930
 4813TIP3    H235855   3.280   1.040   1.216  2.1106 -0.1802 -0.1044
 4814TIP3   OH235856   3.601   2.994   5.848  0.8847 -0.4144 -0.0705
 4814TIP3    H135857   3.649   3.045   5.913  0.4678 -0.0320 -0.0493
 4814TIP3    H235858   3.546   2.935   5.899  1.3998 -0.9148 -0.0962
 4815TIP3   OH235859   0.204   1.403  12.411  0.2113  0.4588  0.4074
 4815TIP3    H135860   0.269   1.455  12.363  1.5406 -0.2844  1.3100
 4815TIP3    H235861   0.145   1.467  12.449  0.5198  1.1792 -0.2917
 4816TIP3   OH235862   0.428   6.114   0.622  0.0701  0.1754  0.1019
 4816TIP3    H135863   0.482   6.097   0.698  0.8156 -0.8103 -0.6206
 4816TIP3    H235864   0.415   6.209   0.622  1.4550  0.3831  0.5241
 4817TIP3   OH235865   1.424   1.227   0.077 -0.0645  0.2661  0.2337
 4817TIP3    H135866   1.387   1.154   0.026 -1.4519  1.2768 -0.2597
 4817TIP3    H235867   1.500   1.189   0.121  0.4471 -0.9746 -1.6054
 4818TIP3   OH235868   2.902   3.030   1.686 -0.4625 -0.0815 -0.1590
 4818TIP3    H135869   2.970   2.966   1.666  0.0208 -0.5833  2.7170
 4818TIP3    H235870   2.820   2.983   1.674 -0.1823 -0.5472 -0.2662
 4819TIP3   OH235871   2.101   4.034   1.232 -0.3601 -0.0295 -0.5512
 4819TIP3    H135872   2.138   3.951   1.262 -0.8569 -1.1587 -2.8753
 4819TIP3    H235873   2.176   4.094   1.231  0.3901 -0.9405 -0.5440
 4820TIP3   OH235874   2.936   3.274  12.589  0.2808  0.0251  0.4635
 4820TIP3    H135875   2.987   3.268  12.669 -1.0725  1.6985  1.5336
 4820TIP3    H235876   2.988   3.331  12.531  1.7948 -2.0879 -0.3641
 4821TIP3   OH235877   3.171   0.176  11.000  0.4956 -0.4069 -0.2062
 4821TIP3    H135878   3.160   0.131  10.916 -0.1291 -0.8637  0.1120
 4821TIP3    H235879   3.109   0.132  11.059 -1.2498  1.8220 -0.2529
 4822TIP3   OH235880   2.728   4.897  14.118  0.0816 -0.3217  0.0262
 4822TIP3    H135881   2.788   4.823  14.117  1.2943  0.6207 -0.9420
 4822TIP3    H235882   2.730   4.928  14.209  1.2321 -0.2070 -0.0149
 4823TIP3   OH235883   2.069   5.733   0.809  0.6728  0.6973  0.9229
 4823TIP3    H135884   2.052   5.643   0.838  0.1577  0.5596  0.2303
 4823TIP3    H235885   2.130   5.723   0.736 -0.4884  0.7927 -0.0813
 4824TIP3   OH235886   1.821   3.164   1.874 -0.1881  0.0193 -0.3885
 4824TIP3    H135887   1.861   3.078   1.889 -0.5341 -0.7349 -3.2468
 4824TIP3    H235888   1.732   3.155   1.909  0.8609  0.5332  2.7169
 4825TIP3   OH235889   5.227   3.873  15.070 -0.4956 -0.3284  0.1582
 4825TIP3    H135890   5.303   3.896  15.016 -0.8228  0.8345  0.1734
 4825TIP3    H235891   5.224   3.777  15.068 -0.8826 -0.3121 -2.4261
 4826TIP3   OH235892   2.509   3.905  14.101  0.1621  0.5094  0.2227
 4826TIP3    H135893   2.484   3.997  14.088 -1.0329 -0.0790 -2.2911
 4826TIP3    H235894   2.427   3.857  14.093  1.1174 -0.9786 -1.2708
 4827TIP3   OH235895   1.556   4.282  15.031 -0.0911  0.0662 -0.0108
 4827TIP3    H135896   1.579   4.374  15.017  1.9508 -0.8499 -3.8640
 4827TIP3    H235897   1.472   4.271  14.986 -0.3074  0.0116  0.4010
 4828TIP3   OH235898   2.651   6.486   0.880 -0.4861 -0.6763  0.1025
 4828TIP3    H135899   2.665   6.393   0.895  1.6626 -0.3712  0.2667
 4828TIP3    H235900   2.584   6.511   0.944  0.3168 -1.7280  1.3898
 4829TIP3   OH235901   2.266   3.966   1.732  0.3464 -0.4805  0.7041
 4829TIP3    H135902   2.229   4.017   1.660  2.4943  0.3326  0.0990
 4829TIP3    H235903   2.330   4.025   1.773  2.4081 -2.3846  0.4305
 4830TIP3   OH235904   4.915   5.784  12.179  0.3373 -0.4964  0.3572
 4830TIP3    H135905   4.907   5.879  12.173 -0.8370 -0.5220  1.1793
 4830TIP3    H235906   4.947   5.758  12.093  0.3388  0.6083  0.0020
 4831TIP3   OH235907   5.736   4.846   1.424  0.8485  0.2047 -0.3471
 4831TIP3    H135908   5.742   4.834   1.329  0.0181 -3.5545 -0.0776
 4831TIP3    H235909   5.825   4.833   1.456  0.5786 -2.2309 -0.4137
 4832TIP3   OH235910   2.066   0.811   3.765  0.1248 -0.1656  0.4045
 4832TIP3    H135911   2.013   0.839   3.840  0.4510  1.1272  0.1752
 4832TIP3    H235912   2.103   0.726   3.792  0.7881  0.5900  1.9858
 4833TIP3   OH235913   3.005   4.853   1.162 -0.7550  0.4870  0.0289
 4833TIP3    H135914   2.927   4.842   1.107 -2.1201 -0.8824  2.0889
 4833TIP3    H235915   3.069   4.793   1.125 -1.1314  0.6393 -0.9043
 4834TIP3   OH235916   1.775   1.592  14.772  0.1538 -0.3842  0.6683
 4834TIP3    H135917   1.726   1.634  14.701 -2.2277 -1.5742  1.4965
 4834TIP3    H235918   1.854   1.557  14.730  0.4078  1.7163 -0.7108
 4835TIP3   OH235919   0.246   2.038  14.121 -0.4475  0.2185 -0.1557
 4835TIP3    H135920   0.300   1.965  14.150 -1.3671 -0.1700  0.6435
 4835TIP3    H235921   0.202   2.069  14.200  0.4070  2.0813 -0.3363
 4836TIP3   OH235922   3.925   5.664   4.380  0.6810 -0.1310  0.0022
 4836TIP3    H135923   4.015   5.637   4.367  1.0828  1.0020  0.2672
 4836TIP3    H235924   3.883   5.653   4.295  1.7678  1.7514 -0.8390
 4837TIP3   OH235925   3.575   2.492   2.627  0.0874  0.4148 -0.0929
 4837TIP3    H135926   3.511   2.457   2.689  1.7547  0.2460  1.6292
 4837TIP3    H235927   3.558   2.586   2.625 -0.1809  0.3796  0.3830
 4838TIP3   OH235928   1.348   1.811   3.363 -0.4670  0.5271 -0.4235
 4838TIP3    H135929   1.262   1.785   3.398  0.3346 -1.1671  0.4244
 4838TIP3    H235930   1.378   1.734   3.314  0.5452  1.1301 -0.7843
 4839TIP3   OH235931   5.167   5.282   6.034  0.2269  0.1466  0.0702
 4839TIP3    H135932   5.112   5.328   5.970  0.0021 -1.7130 -1.1435
 4839TIP3    H235933   5.150   5.189   6.019  1.2888 -0.3968  1.8676
 4840TIP3   OH235934   6.193   3.140   0.922  0.1450 -0.0584  0.5936
 4840TIP3    H135935   6.195   3.224   0.969  0.4566  0.6060 -0.5751
 4840TIP3    H235936   6.123   3.091   0.965 -0.5236  1.0709  0.8545
 4841TIP3   OH235937   4.336   0.198  13.760 -0.5998  0.3865  0.2887
 4841TIP3    H135938   4.243   0.177  13.750 -0.2002 -0.9715 -0.9875
 4841TIP3    H235939   4.372   0.126  13.811 -0.1288  0.5647  0.2169
 4842TIP3   OH235940   1.808   4.159  13.077  0.0859  0.5891  0.2683
 4842TIP3    H135941   1.835   4.233  13.022 -0.4229 -0.5368 -1.5919
 4842TIP3    H235942   1.887   4.106  13.087  0.1070  0.6406  0.3773
 4843TIP3   OH235943   3.189   6.110   3.637 -0.1100  0.9191 -0.2588
 4843TIP3    H135944   3.149   6.164   3.567 -0.3322  2.7174  1.1743
 4843TIP3    H235945   3.281   6.137   3.637 -0.3043  1.6443  0.7253
 4844TIP3   OH235946   4.887   0.941  11.108 -0.2866 -0.2457  0.5009
 4844TIP3    H135947   4.794   0.918  11.114 -0.5820 -0.1726 -2.3973
 4844TIP3    H235948   4.923   0.877  11.047  2.0403 -1.3381  2.8039
 4845TIP3   OH235949   2.851   5.220   5.773  0.0258  0.4521  0.7681
 4845TIP3    H135950   2.844   5.250   5.864  2.1213 -0.5844  1.3478
 4845TIP3    H235951   2.918   5.276   5.735  0.7965 -0.5751  0.5639
 4846TIP3   OH235952   2.543   2.235  17.152  0.2941 -0.5235 -0.5198
 4846TIP3    H135953   2.524   2.325  17.123 -0.8885  0.1661  2.0423
 4846TIP3    H235954   2.525   2.181  17.076  0.0072  1.3268 -1.8507
 4847TIP3   OH235955   1.351   4.215  13.322  0.4253  0.1936  0.0883
 4847TIP3    H135956   1.409   4.177  13.388  0.2113 -1.3649 -0.5689
 4847TIP3    H235957   1.410   4.245  13.253  0.5953  1.0610  0.5950
 4848TIP3   OH235958   6.022   3.335  16.790 -0.1434 -0.1417  0.7673
 4848TIP3    H135959   5.996   3.414  16.838 -0.0763 -0.2391  0.9656
 4848TIP3    H235960   5.946   3.313  16.736  0.3047  0.8294 -0.3056
 4849TIP3   OH235961   3.555   6.541   5.987  0.5861  0.4614  0.2806
 4849TIP3    H135962   3.574   6.562   5.895 -0.4774  0.6181  0.0765
 4849TIP3    H235963   3.632   6.494   6.017  1.5695  1.6861 -0.2576
 4850TIP3   OH235964   2.459   3.017   2.672  0.3698 -0.4555  0.5650
 4850TIP3    H135965   2.502   3.015   2.586  0.1945 -0.4309  0.4754
 4850TIP3    H235966   2.521   2.976   2.731  1.5849  1.7448  0.9183
 4851TIP3   OH235967   6.716   6.274  11.796  0.4020 -0.1775  0.0852
 4851TIP3    H135968   6.689   6.236  11.712 -1.0270  1.6407 -0.3469
 4851TIP3    H235969   6.635   6.288  11.844  1.1382 -0.3924  1.4361
 4852TIP3   OH235970   2.978   2.608  11.968  0.2513  0.2802 -0.5207
 4852TIP3    H135971   2.945   2.519  11.962  0.2545  0.3514 -1.9375
 4852TIP3    H235972   2.991   2.623  12.061 -0.6325 -0.8708 -0.1962
 4853TIP3   OH235973   0.697   0.921  12.429 -0.2424  0.5141 -0.0599
 4853TIP3    H135974   0.641   0.855  12.469 -0.0400 -0.3942 -1.2446
 4853TIP3    H235975   0.746   0.959  12.503  1.3486 -2.2547  0.4374
 4854TIP3   OH235976   6.639   5.939   2.002 -0.5316  0.1749  0.4283
 4854TIP3    H135977   6.618   5.970   1.914 -0.6259 -0.7789  0.1116
 4854TIP3    H235978   6.733   5.920   1.999 -0.1951  1.5835  0.9881
 4855TIP3   OH235979   2.459   2.825  13.205 -0.5587 -0.0274  0.2406
 4855TIP3    H135980   2.416   2.771  13.270 -1.0937  0.5280  0.3645
 4855TIP3    H235981   2.392   2.840  13.138  0.2029 -1.2101 -0.8269
 4856TIP3   OH235982   2.717   6.094  10.526  0.4467 -0.4331 -0.7349
 4856TIP3    H135983   2.777   6.022  10.506  1.7149  0.6632 -1.0174
 4856TIP3    H235984   2.756   6.171  10.483 -0.4417  0.5925  0.2287
 4857TIP3   OH235985   1.555   0.315   2.313 -0.3165 -0.3708 -0.0244
 4857TIP3    H135986   1.603   0.313   2.230  0.9788  0.1570  0.6908
 4857TIP3    H235987   1.600   0.253   2.369  1.3227  2.0839  1.5650
 4858TIP3   OH235988   0.836   5.158   3.434  0.1403 -0.8147 -0.0851
 4858TIP3    H135989   0.829   5.073   3.477 -2.0539 -0.3412  0.6413
 4858TIP3    H235990   0.789   5.218   3.491  1.1742  0.8045 -0.8518
 4859TIP3   OH235991   5.205   2.800   6.127  0.1156 -0.0372  0.0706
 4859TIP3    H135992   5.268   2.798   6.054  0.9481  1.4540  0.7118
 4859TIP3    H235993   5.157   2.881   6.115 -0.8223 -0.5479  0.3180
 4860TIP3   OH235994   5.586   4.454  14.013  0.3313 -0.7155  0.0185
 4860TIP3    H135995   5.596   4.531  13.956 -2.0686 -0.2341  0.1464
 4860TIP3    H235996   5.606   4.380  13.956 -0.4639 -0.1522 -1.0515
 4861TIP3   OH235997   5.984   5.550  16.720 -0.1865 -0.2002 -0.0708
 4861TIP3    H135998   5.901   5.501  16.716 -0.1700 -0.4495  1.7010
 4861TIP3    H235999   6.049   5.484  16.746  0.7062 -0.1214 -1.9435
 4862TIP3   OH236000   0.376   0.076   4.839 -0.0895 -0.7902 -0.1379
 4862TIP3    H136001   0.437   0.136   4.795 -1.1484  0.7433  0.3881
 4862TIP3    H236002   0.387  -0.007   4.793  2.1495 -0.4847 -0.2711
 4863TIP3   OH236003   3.261   1.764  15.810 -0.3038 -0.2467 -0.1654
 4863TIP3    H136004   3.252   1.776  15.904  0.4944  0.2156 -0.1409
 4863TIP3    H236005   3.265   1.669  15.797  0.6607 -0.2860  0.3753
 4864TIP3   OH236006   1.701   5.689   6.450 -0.0547  0.3275  0.5624
 4864TIP3    H136007   1.627   5.706   6.391  0.8747  1.3915 -0.3458
 4864TIP3    H236008   1.718   5.772   6.493 -0.0134 -0.1688  1.5331
 4865TIP3   OH236009   3.975   5.125   5.294  0.2278  0.1885  0.2508
 4865TIP3    H136010   3.880   5.117   5.299  0.3446 -3.1284 -0.1618
 4865TIP3    H236011   3.992   5.151   5.203 -0.2770  0.0715  0.1170
 4866TIP3   OH236012   1.234   5.142  15.645 -0.7363 -0.1511  0.0765
 4866TIP3    H136013   1.258   5.112  15.732  2.3182 -0.4722 -0.7815
 4866TIP3    H236014   1.184   5.070  15.607  0.8110 -1.4467  0.4106
 4867TIP3   OH236015   1.588   4.401   2.816 -0.2251  0.2182 -0.6230
 4867TIP3    H136016   1.657   4.352   2.859  0.0711 -0.1501 -1.5031
 4867TIP3    H236017   1.621   4.491   2.812 -0.0578  0.1615 -0.5200
 4868TIP3   OH236018   4.260   2.675   1.048  0.0032  0.0174 -0.1141
 4868TIP3    H136019   4.305   2.591   1.035  0.3908  0.0275  1.0435
 4868TIP3    H236020   4.322   2.740   1.014 -0.4528 -0.1610 -1.3637
 4869TIP3   OH236021   6.356   2.969  14.075 -0.4642 -0.3168  0.5557
 4869TIP3    H136022   6.265   2.984  14.098 -0.8643  1.3932 -1.8102
 4869TIP3    H236023   6.355   2.897  14.013 -0.0652 -0.9521  1.2663
 4870TIP3   OH236024   6.048   5.691  12.514  0.3763  0.2010  0.4467
 4870TIP3    H136025   6.047   5.602  12.549  0.0220 -0.0882 -0.2870
 4870TIP3    H236026   5.956   5.718  12.514  0.2048 -0.2695 -1.4019
 4871TIP3   OH236027   3.337   5.525   0.627 -0.6541 -0.1095 -0.5555
 4871TIP3    H136028   3.430   5.539   0.645 -0.3655 -0.3733 -1.7773
 4871TIP3    H236029   3.293   5.567   0.701  0.4458 -0.8274  0.5617
 4872TIP3   OH236030   0.206   6.218   3.312 -0.4471 -0.2785  0.1119
 4872TIP3    H136031   0.152   6.266   3.249  0.1823 -1.8379 -1.7036
 4872TIP3    H236032   0.156   6.139   3.332 -0.4222 -0.0327  1.2341
 4873TIP3   OH236033   3.997   3.442  13.062  0.0635 -0.1206  0.1355
 4873TIP3    H136034   3.949   3.524  13.058 -0.6914 -0.6114 -1.3883
 4873TIP3    H236035   4.019   3.432  13.155 -2.6799  0.1870  0.8848
 4874TIP3   OH236036   6.334   6.456   3.704 -1.0933  0.6462  0.9988
 4874TIP3    H136037   6.359   6.511   3.629 -2.3584  0.6834  0.5832
 4874TIP3    H236038   6.312   6.519   3.772 -1.9002  0.6516  0.7381
 4875TIP3   OH236039   2.111   4.519  15.982  0.0560 -0.2347 -0.1519
 4875TIP3    H136040   2.197   4.559  15.973 -0.6654  1.1611 -1.3284
 4875TIP3    H236041   2.126   4.439  16.033  1.9923  0.0744 -0.1806
 4876TIP3   OH236042   2.079   4.116  13.852 -0.0020  0.5216 -0.2192
 4876TIP3    H136043   2.148   4.071  13.805 -0.6635 -0.8142  0.0244
 4876TIP3    H236044   1.999   4.099  13.802 -0.3397  1.0811  0.1060
 4877TIP3   OH236045   1.623   5.574   5.085  0.0006 -0.4012 -0.3796
 4877TIP3    H136046   1.705   5.623   5.078 -0.8504  1.0537 -0.5310
 4877TIP3    H236047   1.596   5.557   4.995  0.7425 -1.9799 -0.3314
 4878TIP3   OH236048   5.830   2.994  13.635  0.2123 -0.2249  0.2794
 4878TIP3    H136049   5.820   3.089  13.643 -1.5867 -0.1568 -1.6236
 4878TIP3    H236050   5.750   2.958  13.674  0.9376 -0.9776  1.0968
 4879TIP3   OH236051   1.892   2.193   1.274  0.0373 -0.1389 -0.0647
 4879TIP3    H136052   1.975   2.225   1.309  0.0532 -0.7018  0.4355
 4879TIP3    H236053   1.851   2.148   1.348 -0.0799 -1.0691 -0.6809
 4880TIP3   OH236054   3.927   5.203  15.371  0.1323 -0.2235  0.0069
 4880TIP3    H136055   3.889   5.289  15.389  0.1888 -0.2454  0.2337
 4880TIP3    H236056   4.021   5.220  15.362  0.5398 -0.6109  2.6278
 4881TIP3   OH236057   3.233   2.058  13.604  0.9632 -0.1017 -0.0523
 4881TIP3    H136058   3.144   2.025  13.615  1.2462 -0.7224  0.4177
 4881TIP3    H236059   3.221   2.146  13.566  0.0502  0.6906  1.9185
 4882TIP3   OH236060   6.513   6.269   6.813  0.0944  0.4366  0.0839
 4882TIP3    H136061   6.573   6.326   6.764  1.1024 -0.2283  0.5117
 4882TIP3    H236062   6.482   6.206   6.749  0.6760  0.1476  0.0772
 4883TIP3   OH236063   4.444   0.733   2.396  0.6813 -0.0121  0.3205
 4883TIP3    H136064   4.532   0.696   2.404  1.1974  1.3168  1.1348
 4883TIP3    H236065   4.398   0.703   2.475  0.8436  0.4197  0.5798
 4884TIP3   OH236066   5.688   4.089   2.394 -0.2043  0.0737 -0.3932
 4884TIP3    H136067   5.691   4.045   2.309 -0.1766 -2.5173  0.8446
 4884TIP3    H236068   5.658   4.021   2.455  0.7836  1.5385  1.8575
 4885TIP3   OH236069   0.950   3.032   5.415 -0.1053 -0.1283 -0.0880
 4885TIP3    H136070   0.964   2.959   5.476 -0.9691 -0.7010 -0.5672
 4885TIP3    H236071   0.855   3.046   5.415  0.1192  1.7508  0.8612
 4886TIP3   OH236072   4.790   0.549   4.027 -0.5536 -0.0078  0.0413
 4886TIP3    H136073   4.715   0.587   4.073 -0.2378  0.6515  0.0196
 4886TIP3    H236074   4.785   0.583   3.938  0.3746  0.9201  0.3237
 4887TIP3   OH236075   6.535   2.972  16.079 -0.2115 -0.3198 -0.0146
 4887TIP3    H136076   6.484   2.895  16.054 -0.6663  0.2264 -0.8267
 4887TIP3    H236077   6.529   3.030  16.003 -0.2313  0.6960  0.7382
 4888TIP3   OH236078   1.526   1.678   5.406 -0.8867  0.1451  0.7088
 4888TIP3    H136079   1.467   1.719   5.342 -1.0929 -0.5988  0.4133
 4888TIP3    H236080   1.567   1.606   5.359 -2.1128 -1.3322  1.7753
 4889TIP3   OH236081   4.177   0.524   5.652  0.4841 -0.0992 -0.6764
 4889TIP3    H136082   4.131   0.541   5.570 -0.8935  0.5719  0.2044
 4889TIP3    H236083   4.153   0.434   5.676  0.2640 -0.0215 -0.6109
 4890TIP3   OH236084   2.170   1.639   1.198 -0.5209  0.4309  0.1490
 4890TIP3    H136085   2.141   1.649   1.108 -0.3246 -0.3493 -0.0060
 4890TIP3    H236086   2.266   1.636   1.193 -0.4754  1.0586  0.4588
 4891TIP3   OH236087   6.501   1.594   1.161  0.8210 -0.0686  0.2617
 4891TIP3    H136088   6.474   1.676   1.201 -0.9766 -1.6097  2.4569
 4891TIP3    H236089   6.473   1.602   1.069 -0.2881  1.3592  0.6921
 4892TIP3   OH236090   4.042   1.157   1.883 -0.3738  0.3428  0.5002
 4892TIP3    H136091   3.989   1.077   1.877  0.5232 -0.2036 -0.4939
 4892TIP3    H236092   4.026   1.202   1.800  0.6096  0.2356  0.2463
 4893TIP3   OH236093   0.762   4.213  14.868 -0.1261  0.3292  0.0950
 4893TIP3    H136094   0.674   4.250  14.876 -1.2659 -2.1715  0.0570
 4893TIP3    H236095   0.777   4.169  14.952 -0.5717 -2.4792 -1.1916
 4894TIP3   OH236096   5.963   4.274  12.027 -0.0119  0.4853 -0.4428
 4894TIP3    H136097   5.910   4.270  11.947 -0.1706  1.5794 -0.4156
 4894TIP3    H236098   5.901   4.299  12.095  0.1953 -0.0717 -0.0505
 4895TIP3   OH236099   0.670   1.654  10.571 -0.0016  0.3602 -0.4428
 4895TIP3    H136100   0.624   1.737  10.579  2.1468  1.4569  1.6164
 4895TIP3    H236101   0.761   1.678  10.553  0.4460 -1.6076 -1.0602
 4896TIP3   OH236102   3.245   6.027   1.140 -0.2452 -0.5207  0.3871
 4896TIP3    H136103   3.273   6.083   1.068 -0.7635 -1.0439 -0.2333
 4896TIP3    H236104   3.150   6.021   1.130 -0.2413 -1.1697  0.6869
 4897TIP3   OH236105   1.916   1.274  16.305  0.1530 -0.1247  0.3849
 4897TIP3    H136106   1.957   1.198  16.264  1.5051  0.7473  0.0423
 4897TIP3    H236107   1.913   1.340  16.236  0.4896  0.6526  1.0821
 4898TIP3   OH236108   0.851   5.415   5.543  0.1480  0.7490 -0.2244
 4898TIP3    H136109   0.939   5.383   5.526  0.5642  0.7758  1.6291
 4898TIP3    H236110   0.840   5.404   5.638 -2.3317 -0.5310 -0.5709
 4899TIP3   OH236111   0.582   4.154  11.905 -0.2600  0.1067 -0.3148
 4899TIP3    H136112   0.519   4.170  11.835 -1.7337 -0.1384  0.9236
 4899TIP3    H236113   0.590   4.059  11.908 -0.5965  0.0921  0.1831
 4900TIP3   OH236114   4.432   3.258   5.874  0.0538 -0.3603  0.3599
 4900TIP3    H136115   4.486   3.290   5.946 -0.4978 -1.3927  1.2569
 4900TIP3    H236116   4.392   3.177   5.907 -2.4748  0.6218 -0.0294
 4901TIP3   OH236117   2.668   4.007   3.325  0.3404  0.1897 -0.8807
 4901TIP3    H136118   2.594   4.067   3.312 -0.9717 -1.5240 -1.8019
 4901TIP3    H236119   2.640   3.925   3.284  2.9487 -0.4088 -1.6820
 4902TIP3   OH236120   1.007   2.476   6.545 -0.4419 -0.5819 -0.2460
 4902TIP3    H136121   0.939   2.413   6.519  0.9812 -2.6865  0.8003
 4902TIP3    H236122   1.087   2.443   6.505  0.4899  0.1532  0.9236
 4903TIP3   OH236123   6.774   3.031  17.004 -0.2899  0.1704  0.6444
 4903TIP3    H136124   6.710   3.082  17.054 -0.5537  1.3132 -0.8047
 4903TIP3    H236125   6.821   3.096  16.952  0.1468 -0.9477 -0.3947
 4904TIP3   OH236126   3.253   3.522  10.899  0.1766  0.0842  0.2181
 4904TIP3    H136127   3.347   3.521  10.878  0.1392  1.2629 -0.0619
 4904TIP3    H236128   3.216   3.452  10.845  0.7408  0.2842 -0.4501
 4905TIP3   OH236129   4.051   4.766   0.264 -0.1186 -0.7937 -0.1785
 4905TIP3    H136130   4.049   4.859   0.242 -0.7398 -1.0455 -1.2196
 4905TIP3    H236131   4.055   4.764   0.360 -2.4168  0.2997  0.0025
 4906TIP3   OH236132   1.176   5.041  13.747 -0.2234  0.1109  0.0508
 4906TIP3    H136133   1.214   5.123  13.715 -0.0097  0.1873  0.4897
 4906TIP3    H236134   1.184   5.047  13.843 -1.4561  0.1891  0.1634
 4907TIP3   OH236135   1.301   6.447  14.167  0.4484 -0.3686  0.4030
 4907TIP3    H136136   1.235   6.506  14.130  2.5601  0.7984 -1.8259
 4907TIP3    H236137   1.265   6.359  14.154 -0.1838  0.1637 -1.9323
 4908TIP3   OH236138   5.924   2.950   0.230 -0.9016 -0.3085  0.2594
 4908TIP3    H136139   5.976   2.938   0.150 -0.3138 -2.6784  0.9102
 4908TIP3    H236140   5.938   3.042   0.254  0.1629  0.0374 -1.4903
 4909TIP3   OH236141   2.818   3.809   5.250 -0.1946 -0.2418  0.4468
 4909TIP3    H136142   2.817   3.854   5.165  0.1776  0.0287  0.5824
 4909TIP3    H236143   2.900   3.838   5.291  0.4109 -1.5971  0.2431
 4910TIP3   OH236144   2.514   4.739   0.737  0.3308 -0.4091 -0.1629
 4910TIP3    H136145   2.461   4.694   0.672  0.8370 -1.1098 -0.0989
 4910TIP3    H236146   2.466   4.820   0.755  0.4062  0.0278 -1.7350
 4911TIP3   OH236147   2.619   3.074  13.818  0.4457 -0.1733  0.2809
 4911TIP3    H136148   2.647   2.984  13.835  0.4081 -0.5438 -1.3514
 4911TIP3    H236149   2.527   3.076  13.845  0.4344 -0.6512  0.2853
 4912TIP3   OH236150   3.183   5.553  15.803 -0.0514 -0.4424 -0.9420
 4912TIP3    H136151   3.106   5.525  15.853  0.2443  1.0936  0.4764
 4912TIP3    H236152   3.167   5.646  15.785  2.0315  0.2669  0.5561
 4913TIP3   OH236153   5.241   6.705  15.472 -0.2464 -0.5347 -0.1305
 4913TIP3    H136154   5.210   6.759  15.544  1.5496  0.9162 -0.3794
 4913TIP3    H236155   5.221   6.755  15.393  0.7867 -0.5419 -0.4159
 4914TIP3   OH236156   3.438   4.076   3.981  0.2125  0.5326 -0.3296
 4914TIP3    H136157   3.463   3.998   4.030  1.2133 -0.8083 -2.7865
 4914TIP3    H236158   3.358   4.107   4.023 -0.2778 -1.8784  0.6417
 4915TIP3   OH236159   5.456   2.860  11.558 -0.1059 -0.9141 -0.0848
 4915TIP3    H136160   5.443   2.898  11.645  0.4179  1.8498 -1.1200
 4915TIP3    H236161   5.533   2.804  11.568  1.6195  1.4358  0.7388
 4916TIP3   OH236162   3.122   2.740   1.539  0.2587  0.3273 -0.2644
 4916TIP3    H136163   3.033   2.722   1.509  0.4987 -0.8719 -0.2842
 4916TIP3    H236164   3.165   2.782   1.465 -0.1639  0.5154 -0.4033
 4917TIP3   OH236165   0.465   4.854   0.213  0.2958 -0.0761  0.3506
 4917TIP3    H136166   0.415   4.788   0.165  2.4170 -1.5331 -0.0065
 4917TIP3    H236167   0.402   4.924   0.230 -2.0081 -2.0233  0.4779
 4918TIP3   OH236168   5.710   3.530  16.034 -0.5032  0.1951 -0.0375
 4918TIP3    H136169   5.681   3.500  16.121  0.5376  1.8000  0.9185
 4918TIP3    H236170   5.655   3.606  16.015 -2.0886 -1.2730 -1.7559
 4919TIP3   OH236171   1.146   1.037   6.309 -0.3754  0.0295  0.6450
 4919TIP3    H136172   1.144   1.131   6.330  0.9610  0.5467 -1.2585
 4919TIP3    H236173   1.238   1.019   6.290 -0.9002 -1.1621 -1.0305
 4920TIP3   OH236174   0.026   6.704  13.006  0.4102  0.6059  0.3294
 4920TIP3    H136175   0.085   6.689  12.932  1.7573  1.7053  1.1242
 4920TIP3    H236176   0.084   6.729  13.078 -1.0693  2.2769  1.0175
 4921TIP3   OH236177   3.200   0.979   0.772  0.8496  0.2557 -0.5184
 4921TIP3    H136178   3.180   0.909   0.833  0.4355 -0.6346 -1.6333
 4921TIP3    H236179   3.275   1.025   0.811  0.1236  0.1946  0.9988
 4922TIP3   OH236180   3.245   1.267   2.478 -0.0338  0.2189  0.3987
 4922TIP3    H136181   3.159   1.310   2.482 -0.9357 -1.5343  0.9375
 4922TIP3    H236182   3.272   1.276   2.386 -0.0728  2.0742  0.5369
 4923TIP3   OH236183   3.619   1.199   5.545 -0.1700 -0.8444 -0.0540
 4923TIP3    H136184   3.562   1.238   5.478 -0.7961  0.1228  1.0058
 4923TIP3    H236185   3.608   1.105   5.534 -2.2249 -0.6940  0.2961
 4924TIP3   OH236186   1.161   4.586   1.762 -0.6288 -0.1118 -0.0340
 4924TIP3    H136187   1.173   4.577   1.856 -0.1758 -2.1132 -0.2393
 4924TIP3    H236188   1.077   4.543   1.745 -0.6426  0.1213 -0.5665
 4925TIP3   OH236189   5.615   3.151  14.560  0.3804 -0.0284  0.2931
 4925TIP3    H136190   5.524   3.169  14.583  0.1195 -0.2143 -0.5497
 4925TIP3    H236191   5.641   3.226  14.507 -0.2555 -1.3476 -2.0131
 4926TIP3   OH236192   4.454   0.800  17.388  0.2810  0.2432 -0.5430
 4926TIP3    H136193   4.485   0.742  17.458 -0.4532 -2.3424 -2.1996
 4926TIP3    H236194   4.525   0.801  17.325 -0.3395 -0.2282 -1.2700
 4927TIP3   OH236195   2.182   3.792   3.818 -0.1697 -0.2662 -0.5871
 4927TIP3    H136196   2.115   3.727   3.841 -1.7985  0.8723 -1.8935
 4927TIP3    H236197   2.167   3.810   3.725 -0.0422  2.2414 -0.1790
 4928TIP3   OH236198   1.244   0.345   1.263  0.1344 -0.3201  0.2353
 4928TIP3    H136199   1.227   0.262   1.307 -1.3238  0.9983  2.3737
 4928TIP3    H236200   1.162   0.366   1.219 -0.1591  0.8085  1.2600
 4929TIP3   OH236201   4.474   5.873  11.244 -0.6709 -0.3157  0.2091
 4929TIP3    H136202   4.398   5.864  11.301 -0.8961 -2.0992 -0.2958
 4929TIP3    H236203   4.439   5.860  11.156  0.1017 -0.4854 -0.0767
 4930TIP3   OH236204   3.172   0.866  16.617 -0.1798  0.5121  0.7329
 4930TIP3    H136205   3.170   0.771  16.631 -0.6049  0.6814  2.0106
 4930TIP3    H236206   3.258   0.893  16.648 -0.5389  0.6936  1.6051
 4931TIP3   OH236207   0.382   5.155   4.961  0.3637 -0.0291  0.0354
 4931TIP3    H136208   0.363   5.249   4.953 -0.1825 -0.2254 -1.0908
 4931TIP3    H236209   0.474   5.152   4.987  0.6231  0.8151 -0.7274
 4932TIP3   OH236210   5.525   5.308   3.533 -0.1881  0.0452 -1.0632
 4932TIP3    H136211   5.582   5.363   3.587  0.4056  1.0014 -2.5867
 4932TIP3    H236212   5.584   5.248   3.489 -0.5833 -0.2797 -1.1569
 4933TIP3   OH236213   1.439   5.268   1.495 -0.2745 -0.3409 -0.0083
 4933TIP3    H136214   1.525   5.302   1.520 -0.3448 -1.3119  1.7328
 4933TIP3    H236215   1.447   5.246   1.402  1.3873 -0.4856  0.1473
 4934TIP3   OH236216   2.222   2.710   5.081  0.2093 -0.6727 -0.5739
 4934TIP3    H136217   2.219   2.696   4.987 -0.4646  0.7745 -0.7899
 4934TIP3    H236218   2.146   2.765   5.099 -1.6810 -3.5833  1.2975
 4935TIP3   OH236219   4.436   4.852   3.949 -0.4943  0.3073  0.1790
 4935TIP3    H136220   4.511   4.854   3.890 -0.1883 -1.2093  0.4654
 4935TIP3    H236221   4.364   4.820   3.894  0.1215 -2.5591  0.8632
 4936TIP3   OH236222   5.518   1.329  16.690  0.4058  0.0800  0.0538
 4936TIP3    H136223   5.432   1.329  16.650 -0.2090 -1.2775  1.3028
 4936TIP3    H236224   5.566   1.258  16.647  1.2971  1.4533 -1.3401
 4937TIP3   OH236225   4.142   3.587   6.035  0.4620 -0.3690 -0.3428
 4937TIP3    H136226   4.238   3.582   6.036  0.4471 -0.5958  0.3275
 4937TIP3    H236227   4.116   3.527   5.965  0.7925 -0.7127 -0.1782
 4938TIP3   OH236228   1.567   5.356  13.418 -0.3352 -0.2336 -0.1432
 4938TIP3    H136229   1.626   5.377  13.491 -0.7686 -3.0174  1.1509
 4938TIP3    H236230   1.622   5.361  13.341  0.8042  0.2255  0.6659
 4939TIP3   OH236231   4.645   2.158   5.388  0.0611 -0.4487  0.2040
 4939TIP3    H136232   4.604   2.192   5.309  0.7604 -0.6973 -0.2796
 4939TIP3    H236233   4.597   2.199   5.460  0.2106  0.7503 -0.3520
 4940TIP3   OH236234   1.864   3.916  16.176  0.5264  0.4433 -0.3228
 4940TIP3    H136235   1.835   3.933  16.265  0.0093  0.0008 -0.4028
 4940TIP3    H236236   1.841   3.995  16.128 -0.6286  0.0771 -0.3989
 4941TIP3   OH236237   4.306   3.607   0.867  0.6527 -0.2045  0.4499
 4941TIP3    H136238   4.254   3.577   0.941 -0.5198  0.9939  0.1525
 4941TIP3    H236239   4.242   3.621   0.797  1.5324  0.1754 -0.3044
 4942TIP3   OH236240   2.476   0.634   5.796  0.0638  0.4956 -0.2653
 4942TIP3    H136241   2.511   0.589   5.719 -0.7284 -0.2554 -0.2038
 4942TIP3    H236242   2.403   0.686   5.762 -0.4451 -0.0278 -0.0030
 4943TIP3   OH236243   6.322   5.834   4.600  0.2612 -0.0350  0.3951
 4943TIP3    H136244   6.359   5.809   4.515 -1.7962 -0.6352 -0.4094
 4943TIP3    H236245   6.388   5.890   4.640  2.5003 -1.9559 -0.3835
 4944TIP3   OH236246   2.865   5.374  13.987  0.4329 -0.1957  0.5222
 4944TIP3    H136247   2.899   5.421  13.910 -0.5901 -0.2198  0.0412
 4944TIP3    H236248   2.864   5.282  13.961 -1.4010 -0.0509 -0.0424
 4945TIP3   OH236249   4.583   6.658  12.131  0.0169 -0.2559 -0.2406
 4945TIP3    H136250   4.591   6.735  12.187 -0.0241 -0.7504  0.4691
 4945TIP3    H236251   4.653   6.668  12.066  0.4117  0.0687  0.2269
 4946TIP3   OH236252   4.890   3.840   5.188  0.3370  0.1948  0.1599
 4946TIP3    H136253   4.915   3.892   5.265 -0.2888 -1.1631  1.3082
 4946TIP3    H236254   4.906   3.899   5.114  2.2303  1.0785  1.1968
 4947TIP3   OH236255   3.568   4.062   5.724 -0.5443  0.7576  0.1679
 4947TIP3    H136256   3.501   4.056   5.791 -0.8360 -1.4185 -0.2425
 4947TIP3    H236257   3.648   4.031   5.767 -0.2995  1.1795  0.0250
 4948TIP3   OH236258   6.125   5.259  13.198 -0.7520  0.2015 -0.2409
 4948TIP3    H136259   6.166   5.309  13.128 -1.5237  1.1712 -0.0149
 4948TIP3    H236260   6.126   5.317  13.274 -1.2660 -0.2789  0.1502
 4949TIP3   OH236261   6.142   1.374   5.353  0.1783  1.0984 -0.3348
 4949TIP3    H136262   6.211   1.360   5.418 -0.7009 -2.0986  0.0500
 4949TIP3    H236263   6.061   1.375   5.404 -0.7281 -3.3628 -1.3024
 4950TIP3   OH236264   6.130   4.257   2.740  0.2894  0.0317 -0.2135
 4950TIP3    H136265   6.128   4.345   2.779 -0.5196 -0.5875  1.2190
 4950TIP3    H236266   6.117   4.198   2.814 -4.9655 -1.1045 -1.5787
 4951TIP3   OH236267   3.326   4.183  16.374 -0.2081  0.0299 -0.5956
 4951TIP3    H136268   3.413   4.162  16.341  0.6024  2.1752  0.0099
 4951TIP3    H236269   3.291   4.247  16.312 -0.3519  0.9559  0.3970
 4952TIP3   OH236270   3.622   3.478   0.777 -0.1088  0.1147 -0.0654
 4952TIP3    H136271   3.533   3.507   0.758 -0.6045  0.1144  1.9839
 4952TIP3    H236272   3.678   3.541   0.730 -1.1879  1.2413  0.0912
 4953TIP3   OH236273   5.946   1.238   0.373 -0.7651  0.1088  0.2620
 4953TIP3    H136274   6.019   1.246   0.311 -0.1484 -1.0184  0.8083
 4953TIP3    H236275   5.875   1.200   0.321 -0.8936  0.9792 -0.2136
 4954TIP3   OH236276   6.313   3.477  12.814  0.0992  0.6959  0.4201
 4954TIP3    H136277   6.307   3.382  12.827  0.4166  0.7941  1.3169
 4954TIP3    H236278   6.222   3.505  12.805 -0.0117  0.3494  0.4404
 4955TIP3   OH236279   3.890   4.351  12.676 -0.6625 -0.0885 -0.2048
 4955TIP3    H136280   3.880   4.423  12.737 -3.2259 -1.0419  0.6188
 4955TIP3    H236281   3.968   4.304  12.706  0.2721  1.5304  0.0197
 4956TIP3   OH236282   2.257   3.213  13.589  0.2856  0.2985 -0.6406
 4956TIP3    H136283   2.350   3.230  13.573  0.8749 -0.0395  2.0895
 4956TIP3    H236284   2.243   3.125  13.555  0.9823  0.3038 -0.9605
 4957TIP3   OH236285   1.361   3.105  14.314  0.5393  0.1123 -0.1364
 4957TIP3    H136286   1.369   3.043  14.242  1.4441 -0.6718  0.6226
 4957TIP3    H236287   1.407   3.184  14.284  0.5192 -0.0452 -0.5850
 4958TIP3   OH236288   5.433   1.540  14.940 -0.0067 -0.2034  0.2454
 4958TIP3    H136289   5.418   1.598  14.865  0.4974 -1.4147 -0.8255
 4958TIP3    H236290   5.380   1.578  15.010  0.9747  2.0472 -0.1442
 4959TIP3   OH236291   0.625   3.770  12.236 -0.2000 -0.2763 -0.5054
 4959TIP3    H136292   0.537   3.745  12.262 -0.5130  1.7945  0.6430
 4959TIP3    H236293   0.624   3.767  12.140 -1.6651  0.1577 -0.5219
 4960TIP3   OH236294   2.116   6.096   5.791  0.0027  0.3301 -0.3609
 4960TIP3    H136295   2.088   6.117   5.880 -1.4993 -0.4717 -0.6287
 4960TIP3    H236296   2.054   6.142   5.734  0.5433  0.2858 -1.0152
 4961TIP3   OH236297   5.612   1.658   2.170  0.3247  0.3675  0.1291
 4961TIP3    H136298   5.649   1.702   2.247 -0.5799  1.6671 -0.1342
 4961TIP3    H236299   5.672   1.586   2.152  0.2950 -0.2753  2.3450
 4962TIP3   OH236300   1.919   3.822   5.250 -0.1614  0.2151 -0.0848
 4962TIP3    H136301   1.985   3.754   5.264 -0.8764 -0.0990  2.1494
 4962TIP3    H236302   1.843   3.775   5.217 -0.4619 -0.0332  0.9082
 4963TIP3   OH236303   0.690   3.022  14.999  0.3435  0.6855 -0.0022
 4963TIP3    H136304   0.630   3.067  15.058 -0.6182 -0.6846  0.1323
 4963TIP3    H236305   0.756   2.983  15.056  1.1047  1.7929 -0.1089
 4964TIP3   OH236306   2.862   5.201  11.665  0.0562  0.0498 -0.8851
 4964TIP3    H136307   2.871   5.254  11.585  1.1597  0.6196 -0.4162
 4964TIP3    H236308   2.781   5.231  11.706 -0.1683  0.2216 -1.4478
 4965TIP3   OH236309   0.661   5.825   3.015 -0.3155  0.0191 -0.0391
 4965TIP3    H136310   0.648   5.894   2.949 -0.9375  0.6519  0.7259
 4965TIP3    H236311   0.602   5.755   2.989 -1.1941  0.6151  0.3049
 4966TIP3   OH236312   1.588   2.976  13.145  0.2968  0.0146  0.3305
 4966TIP3    H136313   1.501   2.980  13.187  0.7194  1.1806  1.1636
 4966TIP3    H236314   1.577   2.913  13.074 -1.1396 -0.1410  0.6427
 4967TIP3   OH236315   6.548   0.295  12.546 -0.0471  0.6293  0.6656
 4967TIP3    H136316   6.632   0.342  12.537  0.1386  0.7572  2.6219
 4967TIP3    H236317   6.573   0.203  12.553 -0.1049  0.6308  0.8830
 4968TIP3   OH236318   3.236   4.079  15.759  0.2423  0.1671  0.3701
 4968TIP3    H136319   3.201   4.137  15.826 -0.9310  1.3796 -1.2013
 4968TIP3    H236320   3.161   4.061  15.701  1.1492 -0.9943 -0.5103
 4969TIP3   OH236321   1.454   3.114  15.511 -0.4213 -0.2720 -0.5271
 4969TIP3    H136322   1.540   3.151  15.531 -0.5275 -0.8396  1.0995
 4969TIP3    H236323   1.426   3.160  15.431  0.8132  0.8425 -0.3489
 4970TIP3   OH236324   6.286   1.264   0.840 -0.7597 -0.2407  0.4221
 4970TIP3    H136325   6.314   1.178   0.810  0.7025  0.2972  0.1842
 4970TIP3    H236326   6.213   1.287   0.781  0.9903  0.0949 -1.7667
 4971TIP3   OH236327   4.234   4.859   2.795 -0.1696 -0.1460 -0.3539
 4971TIP3    H136328   4.328   4.855   2.778  0.4286  0.3005  2.3911
 4971TIP3    H236329   4.210   4.950   2.777  0.6805  0.6094  1.9923
 4972TIP3   OH236330   5.952   5.288   3.861 -0.2532 -0.5261  0.0724
 4972TIP3    H136331   5.874   5.290   3.805 -1.1910  0.0227  1.3576
 4972TIP3    H236332   6.012   5.351   3.821 -0.9953  0.0298 -0.1780
 4973TIP3   OH236333   0.951   5.025   4.933 -0.7894 -0.0126 -0.4636
 4973TIP3    H136334   0.902   5.052   5.010 -0.5322 -0.5300 -0.1058
 4973TIP3    H236335   0.912   4.941   4.907 -1.6336  0.7077 -1.6012
 4974TIP3   OH236336   3.350   6.650   4.955  0.5006 -0.2626 -1.0027
 4974TIP3    H136337   3.263   6.687   4.943  0.7337  1.0434  0.9531
 4974TIP3    H236338   3.381   6.633   4.866 -1.4385 -0.0746 -1.7638
 4975TIP3   OH236339   5.968   0.142   4.422  0.0772 -0.1368 -0.9134
 4975TIP3    H136340   5.917   0.190   4.488  2.3171  0.6806  0.3516
 4975TIP3    H236341   5.948   0.185   4.339 -2.1589 -0.6410 -0.6993
 4976TIP3   OH236342   3.059   5.267  13.661 -0.5859 -0.2268 -0.4714
 4976TIP3    H136343   3.074   5.193  13.720  1.8223 -0.3620 -1.1467
 4976TIP3    H236344   3.138   5.271  13.607 -1.0265  2.3009 -1.0568
 4977TIP3   OH236345   4.118   6.674  13.850  0.0534 -0.0629  0.0842
 4977TIP3    H136346   4.059   6.629  13.790 -0.8172 -1.3069  1.8135
 4977TIP3    H236347   4.188   6.612  13.866 -0.8416 -0.6402  2.0092
 4978TIP3   OH236348   1.807   6.373   4.195  0.2756  0.0611  0.0941
 4978TIP3    H136349   1.855   6.396   4.275  2.5316 -1.2501 -0.7887
 4978TIP3    H236350   1.780   6.283   4.208  0.3301 -0.0397 -0.4753
 4979TIP3   OH236351   5.884   5.468  15.719  0.0169  0.1312 -0.0853
 4979TIP3    H136352   5.882   5.510  15.806  2.1795 -1.8307  1.0306
 4979TIP3    H236353   5.804   5.415  15.717 -0.4016  0.7140  0.4041
 4980TIP3   OH236354   2.512   4.752  16.489  0.3140 -0.2632 -0.3721
 4980TIP3    H136355   2.506   4.845  16.510  1.6213 -0.2475  0.0164
 4980TIP3    H236356   2.543   4.749  16.399 -2.4111 -0.3501 -1.4008
 4981TIP3   OH236357   2.745   5.870  15.824 -0.3299 -0.2049  0.2463
 4981TIP3    H136358   2.718   5.875  15.916 -1.1997 -0.8664  0.0429
 4981TIP3    H236359   2.667   5.841  15.778  0.0075  0.4128 -0.7585
 4982TIP3   OH236360   4.902   1.289  14.620  0.0830 -0.5391 -0.7741
 4982TIP3    H136361   4.843   1.347  14.571 -1.4907 -1.7750 -0.4268
 4982TIP3    H236362   4.981   1.286  14.566 -0.6437  0.1352 -1.9440
 4983TIP3   OH236363   3.279   2.965   4.104  0.0485  0.2320 -0.2228
 4983TIP3    H136364   3.374   2.958   4.113  0.2900  0.6001 -2.0408
 4983TIP3    H236365   3.245   2.895   4.159  1.4451 -0.9069 -0.7292
 4984TIP3   OH236366   2.470   0.467  17.288 -0.3987  0.2471 -0.7403
 4984TIP3    H136367   2.416   0.542  17.265 -0.1053  0.3954 -0.9561
 4984TIP3    H236368   2.448   0.448  17.379  0.1853  1.1713 -0.3890
 4985TIP3   OH236369   1.286   5.866  13.082 -0.0479 -0.3411  0.5555
 4985TIP3    H136370   1.203   5.903  13.052  0.3593 -0.2551 -0.4858
 4985TIP3    H236371   1.266   5.830  13.169 -1.2916 -0.7646  0.1112
 4986TIP3   OH236372   2.753   5.040  13.671  0.5967 -0.0733  0.1483
 4986TIP3    H136373   2.706   4.961  13.645 -0.5660  0.8255 -0.5871
 4986TIP3    H236374   2.805   5.063  13.594 -1.4231  1.5463 -0.8381
 4987TIP3   OH236375   6.150   1.826  13.733  0.3660  0.4207 -0.2431
 4987TIP3    H136376   6.187   1.741  13.754 -0.0191  0.2839 -0.1140
 4987TIP3    H236377   6.091   1.846  13.806  1.6660  1.5409  0.5589
 4988TIP3   OH236378   4.872   2.651  10.716  0.2932 -0.2690 -0.0751
 4988TIP3    H136379   4.964   2.649  10.693  0.1394 -0.3779 -0.6964
 4988TIP3    H236380   4.853   2.562  10.746  0.4757 -0.1469  0.4145
 4989TIP3   OH236381   5.856   1.032  13.183  0.4976 -0.0472 -0.3908
 4989TIP3    H136382   5.942   1.005  13.217  1.4975  1.0814 -1.9148
 4989TIP3    H236383   5.801   0.955  13.197  1.5455 -0.5811  1.2292
 4990TIP3   OH236384   2.172   4.402   4.924 -0.0546  0.3832 -0.4346
 4990TIP3    H136385   2.125   4.340   4.867  0.2765  2.3889 -3.1065
 4990TIP3    H236386   2.260   4.366   4.931  0.5747  1.1086 -3.1957
 4991TIP3   OH236387   5.880   3.284   3.915  0.2193 -0.0231 -0.6532
 4991TIP3    H136388   5.972   3.261   3.931 -0.0463 -1.8414 -1.4727
 4991TIP3    H236389   5.853   3.226   3.844 -1.3200  1.1174 -1.0424
 4992TIP3   OH236390   2.845   4.103  14.076 -0.5592 -0.1033 -0.0368
 4992TIP3    H136391   2.793   4.033  14.037  0.6150 -2.3898  2.2025
 4992TIP3    H236392   2.935   4.070  14.074 -0.2008  0.4673  2.7703
 4993TIP3   OH236393   6.179   2.188  13.704 -0.5642  0.3768 -0.4985
 4993TIP3    H136394   6.102   2.194  13.760 -0.8185  3.1993 -0.9956
 4993TIP3    H236395   6.143   2.182  13.615 -0.1547 -3.2440 -0.5755
 4994TIP3   OH236396   0.819   5.108  13.542 -0.1073 -0.1575  0.0159
 4994TIP3    H136397   0.763   5.144  13.474 -0.3757 -0.2163  0.2060
 4994TIP3    H236398   0.860   5.185  13.582 -0.4137 -0.0847  0.1908
 4995TIP3   OH236399   1.591   4.650  11.500  0.1538  0.4796 -0.6002
 4995TIP3    H136400   1.644   4.681  11.427  1.6462  1.4987  0.8217
 4995TIP3    H236401   1.656   4.620  11.565 -1.0034  1.3536  1.0314
 4996TIP3   OH236402   0.818   2.465   0.807 -0.2040  0.2205 -0.1558
 4996TIP3    H136403   0.800   2.447   0.899 -0.5140 -0.5408 -0.3554
 4996TIP3    H236404   0.790   2.555   0.794  0.6928  0.6445  0.7068
 4997TIP3   OH236405   4.972   3.029   0.583 -0.0342  0.1583  0.5148
 4997TIP3    H136406   5.020   2.977   0.518  1.9755  1.0944  1.1498
 4997TIP3    H236407   4.940   2.964   0.646  1.0508 -0.4750  0.4439
 4998TIP3   OH236408   3.004   6.522   0.061  0.2723  0.2460  0.0265
 4998TIP3    H136409   2.996   6.593  -0.003  0.1047 -0.4073 -0.6865
 4998TIP3    H236410   3.056   6.560   0.132 -1.6786  1.8265  0.7348
 4999TIP3   OH236411   0.356   0.397  14.458 -0.3300 -0.0138 -0.4327
 4999TIP3    H136412   0.281   0.458  14.455 -1.0340 -0.7627  0.7674
 4999TIP3    H236413   0.422   0.437  14.402 -0.7182  1.9410  0.4139
 5000TIP3   OH236414   2.317   4.673   1.116  0.1824  0.2059  0.3477
 5000TIP3    H136415   2.284   4.685   1.027  0.2402 -0.3452  0.2511
 5000TIP3    H236416   2.249   4.711   1.172 -1.2832 -2.0678  0.2295
 5001TIP3   OH236417   2.740   5.104  16.822  0.1024  0.3145  0.0659
 5001TIP3    H136418   2.728   5.123  16.729 -1.2358  0.1157  0.1688
 5001TIP3    H236419   2.652   5.079  16.852  0.9044 -1.6912  0.9259
 5002TIP3   OH236420   4.693   0.740   1.109 -0.3718 -0.5607  0.0183
 5002TIP3    H136421   4.698   0.692   1.191 -1.2708 -1.0927 -0.2235
 5002TIP3    H236422   4.610   0.787   1.113 -0.4326 -0.6007 -0.5904
 5003TIP3   OH236423   3.529   6.673  13.467 -0.1183  0.2556  0.1478
 5003TIP3    H136424   3.598   6.671  13.534  0.6836  0.9023 -0.6458
 5003TIP3    H236425   3.518   6.765  13.446 -1.0986  0.1469  0.1080
 5004TIP3   OH236426   3.868   5.801   0.486 -0.1483  0.0335  0.0794
 5004TIP3    H136427   3.926   5.868   0.522 -1.9202  0.4209  2.4933
 5004TIP3    H236428   3.789   5.848   0.461 -0.1839 -0.7404 -1.3827
 5005TIP3   OH236429   0.955   5.651   1.374  0.3697 -0.0842  0.2275
 5005TIP3    H136430   0.973   5.562   1.406 -1.5073 -0.5992 -0.0749
 5005TIP3    H236431   0.947   5.641   1.279  1.3467  0.6408  0.0596
 5006TIP3   OH236432   1.730   2.448   5.949 -0.4365 -0.8384  0.4174
 5006TIP3    H136433   1.820   2.476   5.931  0.2170 -0.2595  3.8702
 5006TIP3    H236434   1.733   2.352   5.947 -0.0493 -0.8144 -0.5906
 5007TIP3   OH236435   0.296   0.033  15.236  0.5127  0.2770  0.6682
 5007TIP3    H136436   0.380   0.070  15.264  0.6483 -0.7579  1.7132
 5007TIP3    H236437   0.285  -0.045  15.290 -1.3749  0.6646  0.9021
 5008TIP3   OH236438   0.078   0.518   5.610  0.2165  0.6673  0.0995
 5008TIP3    H136439   0.006   0.457   5.600 -0.8135  1.9282 -0.4407
 5008TIP3    H236440   0.064   0.557   5.696  0.8611  0.1742  0.4359
 5009TIP3   OH236441   1.109   2.573   1.063 -0.0771  0.7389  0.3329
 5009TIP3    H136442   1.165   2.514   1.013  0.7743  1.0992  0.8306
 5009TIP3    H236443   1.081   2.522   1.139 -2.2077 -0.1502 -0.9623
 5010TIP3   OH236444   5.438   2.540  14.617  0.5700 -0.2474  0.6921
 5010TIP3    H136445   5.500   2.473  14.645 -0.1291 -0.5359  1.5767
 5010TIP3    H236446   5.402   2.507  14.535  1.0485 -0.4148  0.5442
 5011TIP3   OH236447   3.289   3.416   5.713  0.2050 -0.6027 -0.0964
 5011TIP3    H136448   3.235   3.479   5.761  2.6047  0.7647  0.9712
 5011TIP3    H236449   3.359   3.469   5.673  1.6079 -2.4328 -0.2053
 5012TIP3   OH236450   6.719   0.920   4.693  0.1112  0.6143 -0.0478
 5012TIP3    H136451   6.792   0.940   4.751  0.5542  1.1791 -0.7758
 5012TIP3    H236452   6.760   0.907   4.607 -0.3177 -1.9372  0.0562
 5013TIP3   OH236453   2.633   2.051   2.672  0.0228  0.0404 -0.8332
 5013TIP3    H136454   2.673   1.974   2.630  1.7076 -0.0443  0.8060
 5013TIP3    H236455   2.706   2.111   2.686 -0.4899  0.2204  1.5561
 5014TIP3   OH236456   0.081   0.936   3.782 -0.3784  0.4980 -0.1667
 5014TIP3    H136457   0.131   0.870   3.734 -0.9653  0.9183 -1.3998
 5014TIP3    H236458   0.074   1.010   3.721 -1.1882  1.0310  0.5509
 5015TIP3   OH236459   1.456   5.027  11.369  0.5992  0.1391 -0.1540
 5015TIP3    H136460   1.488   5.082  11.441  1.1897 -1.7101  1.0765
 5015TIP3    H236461   1.463   5.082  11.291  3.1541  1.1407  0.6918
 5016TIP3   OH236462   6.546   0.315  12.222 -0.3403 -0.3160  0.2884
 5016TIP3    H136463   6.458   0.319  12.260 -1.4366  0.5551 -2.1316
 5016TIP3    H236464   6.581   0.403  12.235 -0.0299 -0.5099  0.7765
 5017TIP3   OH236465   0.327   3.867  14.679  0.4931  0.3299  0.4501
 5017TIP3    H136466   0.240   3.857  14.718  0.1336  1.1703 -0.0979
 5017TIP3    H236467   0.344   3.783  14.636 -0.4959  0.4808 -0.2740
 5018TIP3   OH236468   2.200   4.272  15.624  0.0453  0.2264  0.0323
 5018TIP3    H136469   2.130   4.304  15.681 -1.5054  0.8155 -2.0802
 5018TIP3    H236470   2.279   4.316  15.656 -1.0842  1.9709  0.5621
 5019TIP3   OH236471   0.370   3.004  14.227  0.6194  0.0194 -0.0302
 5019TIP3    H136472   0.349   3.076  14.287 -0.2814  0.4962 -0.9069
 5019TIP3    H236473   0.293   2.947  14.229  1.8157 -1.6720  1.6575
 5020TIP3   OH236474   0.446   3.919  16.889  0.0443 -0.2709 -0.3562
 5020TIP3    H136475   0.354   3.944  16.881  0.7470  2.4750 -1.2035
 5020TIP3    H236476   0.485   3.990  16.940  1.5633 -1.7906  0.6850
 5021TIP3   OH236477   1.943   0.367   1.872 -0.4412 -0.1988 -0.6097
 5021TIP3    H136478   1.940   0.454   1.834 -0.9467 -0.9080 -2.2652
 5021TIP3    H236479   1.962   0.382   1.965  0.4902  1.5986 -1.0517
 5022TIP3   OH236480   2.030   6.384   0.157  0.1469 -0.2404  0.2360
 5022TIP3    H136481   1.945   6.346   0.176  0.0742 -0.4520 -0.4832
 5022TIP3    H236482   2.051   6.353   0.069  0.4217  0.7916 -0.0772
 5023TIP3   OH236483   4.466   4.275  14.377 -0.2891 -0.1493  0.0875
 5023TIP3    H136484   4.442   4.365  14.357  2.4520  0.9091  1.0546
 5023TIP3    H236485   4.412   4.251  14.453 -0.9398  0.7202 -0.0958
 5024TIP3   OH236486   2.515   3.566  14.256  0.4104 -0.1303  0.4254
 5024TIP3    H136487   2.605   3.551  14.227  0.5778 -1.8174  1.6724
 5024TIP3    H236488   2.522   3.577  14.350 -0.5168  1.6051  0.3297
 5025TIP3   OH236489   2.098   3.189   3.753  0.5506  0.1471  0.6243
 5025TIP3    H136490   2.021   3.218   3.802  0.6301  0.4100  0.5958
 5025TIP3    H236491   2.062   3.139   3.680  0.1581  3.1083 -1.4015
 5026TIP3   OH236492   4.734   2.282   3.486 -0.4286 -0.1816 -0.2938
 5026TIP3    H136493   4.813   2.335   3.499 -0.5213 -0.3151  0.9333
 5026TIP3    H236494   4.689   2.285   3.570 -2.0435  0.3630 -1.1462
 5027TIP3   OH236495   0.709   1.217   1.329 -0.2689  0.1232  0.1572
 5027TIP3    H136496   0.717   1.312   1.325  0.3125  0.0801  0.1136
 5027TIP3    H236497   0.728   1.187   1.240 -2.1150  0.0578 -0.2401
 5028TIP3   OH236498   3.248   0.817  11.709 -0.0200 -0.5127 -0.1243
 5028TIP3    H136499   3.285   0.746  11.656  1.5737  0.6424 -0.6657
 5028TIP3    H236500   3.268   0.897  11.659  1.1924  0.5870  1.9807
 5029TIP3   OH236501   4.426   0.044  11.748  0.2962 -0.0963 -0.9136
 5029TIP3    H136502   4.488   0.115  11.761 -0.3020  0.5361 -1.4125
 5029TIP3    H236503   4.463  -0.008  11.677 -0.3398  1.0115 -2.1069
 5030TIP3   OH236504   1.592   3.005  13.883  0.5860 -0.1430  0.6189
 5030TIP3    H136505   1.577   3.056  13.803  0.3426 -0.4683  0.4519
 5030TIP3    H236506   1.680   3.029  13.911  1.3208 -1.1982 -0.6355
 5031TIP3   OH236507   2.323   1.231   2.884  0.3809  0.4025  0.0741
 5031TIP3    H136508   2.321   1.149   2.835  0.4367  1.0899 -1.1197
 5031TIP3    H236509   2.245   1.228   2.940  1.1681 -1.0955  1.1683
 5032TIP3   OH236510   5.107   1.119  12.317 -0.8603 -0.2218 -0.3839
 5032TIP3    H136511   5.104   1.038  12.368 -0.2316 -0.6313 -0.9581
 5032TIP3    H236512   5.117   1.188  12.381 -0.4984 -0.6915  0.0740
 5033TIP3   OH236513   5.702   3.634  15.322 -0.6898  0.5707  0.0545
 5033TIP3    H136514   5.725   3.613  15.412 -2.4341 -0.4934  0.2908
 5033TIP3    H236515   5.701   3.730  15.319  0.4403  0.6245  0.8535
 5034TIP3   OH236516   3.494   3.563  12.155 -0.1467  0.5464  0.4189
 5034TIP3    H136517   3.417   3.541  12.208 -1.0562  2.9805  0.2461
 5034TIP3    H236518   3.555   3.603  12.217 -0.4538  1.7194 -0.0160
 5035TIP3   OH236519   5.752   5.062  13.133 -0.4238  0.5030  0.5203
 5035TIP3    H136520   5.741   4.994  13.201  0.8851  1.3243  1.6073
 5035TIP3    H236521   5.794   5.016  13.060 -0.0439  0.0105  1.0324
 5036TIP3   OH236522   5.081   4.894  14.684  0.3416 -0.8190  0.0249
 5036TIP3    H136523   5.123   4.827  14.737 -1.6217 -1.5380  0.7499
 5036TIP3    H236524   5.035   4.950  14.747 -0.4183 -0.5156 -0.7673
 5037TIP3   OH236525   2.390   4.492  11.544  0.0325  0.2115  0.1785
 5037TIP3    H136526   2.437   4.564  11.500  0.3576  0.5080  0.9864
 5037TIP3    H236527   2.350   4.443  11.473  1.7559 -0.1831 -0.5770
 5038TIP3   OH236528   6.039   5.215   2.851  0.2861 -0.0974  0.3393
 5038TIP3    H136529   5.995   5.130   2.843  1.9120 -0.8619 -1.1196
 5038TIP3    H236530   5.968   5.278   2.858 -1.0121 -1.4446 -0.1805
 5039TIP3   OH236531   1.667   6.541  11.485  0.5724  0.0626  0.6965
 5039TIP3    H136532   1.683   6.446  11.481 -1.9781 -0.4963  1.5999
 5039TIP3    H236533   1.581   6.552  11.445 -0.0423  1.7170  2.3360
 5040TIP3   OH236534   0.358   1.956   2.472 -0.1447 -0.0396  0.0920
 5040TIP3    H136535   0.320   2.043   2.482 -2.6367 -0.7827 -1.9125
 5040TIP3    H236536   0.447   1.971   2.439 -0.8361  1.7521 -1.0599
 5041TIP3   OH236537   6.128   3.651   3.565 -0.6679 -0.3972 -0.2522
 5041TIP3    H136538   6.145   3.577   3.623 -0.4538 -0.7011 -0.6972
 5041TIP3    H236539   6.060   3.620   3.506 -1.2013  0.0627  0.1125
 5042TIP3   OH236540   0.311   5.156  11.552 -0.2613  0.5319  0.0633
 5042TIP3    H136541   0.253   5.082  11.564 -1.1555  0.9757 -1.2881
 5042TIP3    H236542   0.352   5.141  11.467  0.8287  0.7545  0.5307
 5043TIP3   OH236543   2.343   4.179   4.472  0.5530  0.0659  0.2602
 5043TIP3    H136544   2.350   4.099   4.524 -0.5196  0.2895  0.7674
 5043TIP3    H236545   2.310   4.149   4.387 -1.6228  0.1348  1.0221
 5044TIP3   OH236546   2.235   3.483   5.572  0.3409 -1.0358  0.8518
 5044TIP3    H136547   2.268   3.533   5.646 -0.6135 -1.9783  1.9530
 5044TIP3    H236548   2.231   3.392   5.603 -2.5131 -1.1131  0.5939
 5045TIP3   OH236549   5.125   3.951  10.922  0.1026  0.0440 -0.0532
 5045TIP3    H136550   5.066   3.881  10.894  0.6747  0.4055 -2.3926
 5045TIP3    H236551   5.211   3.909  10.928  0.1385  0.1660  0.2731
 5046TIP3   OH236552   6.282   0.034  14.215  0.2233 -0.1705  0.8377
 5046TIP3    H136553   6.292  -0.059  14.233  0.1895 -0.0797  1.3302
 5046TIP3    H236554   6.211   0.062  14.273 -1.8808 -0.4583 -1.4016
 5047TIP3   OH236555   2.066   5.993   4.447  0.1919  0.0315  0.3354
 5047TIP3    H136556   2.084   5.924   4.511 -2.9930 -1.4741 -0.1555
 5047TIP3    H236557   2.104   5.960   4.365 -1.7193 -1.5285 -0.0096
 5048TIP3   OH236558   6.570   6.580  15.857  0.1323 -0.0952  0.0694
 5048TIP3    H136559   6.583   6.671  15.833  0.4409 -0.1529  0.0117
 5048TIP3    H236560   6.658   6.549  15.882  0.3249 -0.8045 -1.4190
 5049TIP3   OH236561   4.639   5.612  14.748  0.2322 -0.1663  0.8209
 5049TIP3    H136562   4.671   5.534  14.704  1.2765  1.5268 -1.6700
 5049TIP3    H236563   4.543   5.602  14.747  0.0834  0.0453 -2.7170
 5050TIP3   OH236564   2.414   5.202  15.062  0.7277 -0.1001 -0.2080
 5050TIP3    H136565   2.496   5.214  15.014  0.2593  0.7346 -0.8358
 5050TIP3    H236566   2.397   5.287  15.101  0.7607 -0.6015  0.9184
 5051TIP3   OH236567   5.100   6.437   3.523 -0.0810  0.3382 -0.0943
 5051TIP3    H136568   5.038   6.387   3.470 -1.0398 -0.9920  2.1422
 5051TIP3    H236569   5.052   6.516   3.547 -0.3865  0.0255  0.3584
 5052TIP3   OH236570   4.727   5.288   0.814  0.6412 -0.5575  0.1701
 5052TIP3    H136571   4.762   5.201   0.833  0.3122 -0.9121 -0.7666
 5052TIP3    H236572   4.740   5.299   0.720 -0.7193 -0.2370 -0.0039
 5053TIP3   OH236573   6.505   1.696   5.714 -0.1839 -0.1597 -0.0386
 5053TIP3    H136574   6.488   1.778   5.761  0.9671 -0.6141  1.2511
 5053TIP3    H236575   6.562   1.646   5.773 -1.4603 -2.2157 -0.4485
 5054TIP3   OH236576   5.648   4.372  14.487 -0.2681 -0.2610 -0.4897
 5054TIP3    H136577   5.620   4.426  14.412  0.6859  1.1358  0.1191
 5054TIP3    H236578   5.744   4.378  14.485 -0.2088 -0.9184  0.3421
 5055TIP3   OH236579   5.972   5.876   6.504 -0.1696 -0.3220 -0.0659
 5055TIP3    H136580   5.895   5.855   6.557  1.0475  1.5324  2.7058
 5055TIP3    H236581   5.952   5.962   6.467  0.1694 -0.2669 -0.1210
 5056TIP3   OH236582   1.385   5.523   0.032  0.1640 -0.0506 -0.2793
 5056TIP3    H136583   1.342   5.444  -0.001  1.3305 -0.9846  0.3333
 5056TIP3    H236584   1.419   5.567  -0.046 -0.2863 -0.2761 -0.6081
 5057TIP3   OH236585   4.814   6.276   3.632  0.5266 -0.0200 -0.0091
 5057TIP3    H136586   4.740   6.336   3.627  0.0044 -0.3119  2.6156
 5057TIP3    H236587   4.871   6.301   3.559 -2.0200  0.3319 -2.0000
 5058TIP3   OH236588   5.826   0.145   4.128  0.5988 -0.6880  0.7210
 5058TIP3    H136589   5.859   0.234   4.139 -0.4824 -0.2470  0.5509
 5058TIP3    H236590   5.878   0.108   4.058 -0.0269  0.3914 -0.3489
 5059TIP3   OH236591   6.175   0.967   0.333 -0.4847 -0.0412 -0.0285
 5059TIP3    H136592   6.146   0.900   0.394 -0.4225  1.6780  1.9811
 5059TIP3    H236593   6.120   0.955   0.256  0.3089 -3.0890 -0.2501
 5060TIP3   OH236594   1.980   2.485  14.553  0.4095  0.3348  0.3021
 5060TIP3    H136595   1.938   2.454  14.633  0.4468 -0.1869  0.1189
 5060TIP3    H236596   2.072   2.459  14.562  0.8569  2.0246  0.9926
 5061TIP3   OH236597   6.006   1.103  16.673  0.1022  0.1554 -0.1320
 5061TIP3    H136598   6.039   1.101  16.583  1.6135 -1.8480  0.3792
 5061TIP3    H236599   6.084   1.119  16.727 -0.4160 -0.6885  0.9129
 5062TIP3   OH236600   4.532   5.683  14.374  0.3499  0.2669  0.2498
 5062TIP3    H136601   4.547   5.603  14.324  0.3235  1.5262 -1.9229
 5062TIP3    H236602   4.606   5.689  14.434  1.7571 -0.0824 -1.3911
 5063TIP3   OH236603   3.251   0.062  13.245  0.0414  0.0359 -0.2608
 5063TIP3    H136604   3.275   0.004  13.173 -0.7012 -1.0960  0.3550
 5063TIP3    H236605   3.166   0.029  13.275 -1.3968  2.6565 -1.1199
 5064TIP3   OH236606   2.809   6.568  15.564 -0.6506 -0.4817  0.2363
 5064TIP3    H136607   2.806   6.488  15.512 -0.2624  1.2428 -2.6686
 5064TIP3    H236608   2.740   6.623  15.526  0.5396  1.3724  0.6272
 5065TIP3   OH236609   6.365   2.765  16.293  0.3523 -0.1562 -0.2940
 5065TIP3    H136610   6.391   2.857  16.304  0.3325 -0.2726  0.7787
 5065TIP3    H236611   6.359   2.731  16.382 -0.9807 -0.8346 -0.6161
 5066TIP3   OH236612   5.962   3.286  12.497  0.3421 -0.0129 -0.0756
 5066TIP3    H136613   5.946   3.307  12.589  2.3478  0.4255  0.2261
 5066TIP3    H236614   5.995   3.367  12.459 -0.8915 -0.0675 -1.3160
 5067TIP3   OH236615   4.256   5.724   1.453 -0.2083  0.3064 -0.3738
 5067TIP3    H136616   4.194   5.769   1.396 -0.0979  0.2650 -0.5282
 5067TIP3    H236617   4.212   5.643   1.477  0.5750 -0.7177 -2.1493
 5068TIP3   OH236618   4.045   4.499   3.635 -0.0508  0.0839  0.0361
 5068TIP3    H136619   4.116   4.478   3.576 -0.2724 -0.6799  0.0255
 5068TIP3    H236620   3.998   4.572   3.593  0.1658 -0.0354 -0.4116
 5069TIP3   OH236621   1.342   3.474  12.345  0.3256  0.1711 -0.4499
 5069TIP3    H136622   1.355   3.475  12.250  1.0618  0.2962 -0.3562
 5069TIP3    H236623   1.411   3.531  12.378  1.5895 -1.7067  0.3300
 5070TIP3   OH236624   4.207   0.996  11.500 -0.0738 -0.2815  0.3145
 5070TIP3    H136625   4.119   0.993  11.463  0.1678 -1.3121 -0.2174
 5070TIP3    H236626   4.264   0.965  11.429  0.5532 -1.0174  1.1190
 5071TIP3   OH236627   5.407   2.007   5.024 -0.2831  0.2765 -0.1885
 5071TIP3    H136628   5.332   2.016   4.966  0.1261  0.3948 -0.7108
 5071TIP3    H236629   5.455   2.089   5.015 -0.4884  0.5096  0.7240
 5072TIP3   OH236630   0.782   4.149   3.881  0.9273 -0.0682 -0.4510
 5072TIP3    H136631   0.786   4.182   3.791  2.0917 -0.3414 -0.5221
 5072TIP3    H236632   0.826   4.064   3.877 -0.9522 -1.1263 -0.0386
 5073TIP3   OH236633   4.445   2.708   0.587  1.1607 -0.3382  0.0318
 5073TIP3    H136634   4.503   2.775   0.552 -0.6289  1.6058  0.6019
 5073TIP3    H236635   4.371   2.706   0.527  0.9579 -1.4520  0.3002
 5074TIP3   OH236636   2.096   3.779   3.221  0.0788  0.2835  0.2261
 5074TIP3    H136637   2.037   3.704   3.214  1.3317 -0.8901  1.6761
 5074TIP3    H236638   2.180   3.746   3.191  0.5512  1.2442  0.4783
 5075TIP3   OH236639   4.729   3.574  16.996  0.3202  0.4061 -0.2008
 5075TIP3    H136640   4.819   3.552  17.019  0.3668 -1.2980 -1.7413
 5075TIP3    H236641   4.726   3.669  17.000  2.1481  0.4939  0.0566
 5076TIP3   OH236642   0.095   6.162   5.123 -0.6584  0.0664 -0.0693
 5076TIP3    H136643   0.010   6.155   5.167 -0.2145  1.3631  1.0332
 5076TIP3    H236644   0.074   6.197   5.037 -1.3388 -0.7017 -0.2373
 5077TIP3   OH236645   4.608   6.404   4.021 -0.5222 -0.6468 -0.0449
 5077TIP3    H136646   4.618   6.435   4.111 -0.7084  1.0231 -0.5647
 5077TIP3    H236647   4.669   6.330   4.014  1.7983  1.0755  0.6209
 5078TIP3   OH236648   1.017   1.418   3.657 -0.3110  0.2725  0.0923
 5078TIP3    H136649   1.091   1.363   3.682  1.4166  3.0226  1.5200
 5078TIP3    H236650   0.974   1.440   3.740 -0.5459  1.5896 -0.3559
 5079TIP3   OH236651   0.303   2.401   5.247 -0.2773  0.7461  0.3462
 5079TIP3    H136652   0.263   2.322   5.212 -0.2785  0.6855  0.4836
 5079TIP3    H236653   0.309   2.385   5.341 -2.4731  1.8799  0.7278
 5080TIP3   OH236654   6.487   4.600   3.339  0.6466  0.0538  0.2053
 5080TIP3    H136655   6.578   4.580   3.359  0.4044 -0.7152  0.5762
 5080TIP3    H236656   6.440   4.518   3.356 -0.2452  0.6855  0.9097
 5081TIP3   OH236657   5.704   2.392  12.414 -0.1153  0.2053  0.4129
 5081TIP3    H136658   5.645   2.343  12.472 -0.3977 -0.2056 -0.2149
 5081TIP3    H236659   5.783   2.405  12.467  0.4327 -1.9486  0.2347
 5082TIP3   OH236660   0.721   1.218  13.306 -0.6485  0.3791 -0.5650
 5082TIP3    H136661   0.727   1.131  13.266 -1.1841  0.8855 -1.7796
 5082TIP3    H236662   0.778   1.273  13.252  0.4264  0.6096  0.7491
 5083TIP3   OH236663   4.069   5.680   0.706  0.6654  0.3859  0.8181
 5083TIP3    H136664   4.021   5.762   0.706  0.0882  0.0854  2.3955
 5083TIP3    H236665   4.157   5.704   0.735  0.2849  0.3713  2.0507
 5084TIP3   OH236666   5.313   3.858   3.143 -0.2899  0.0911 -0.2156
 5084TIP3    H136667   5.392   3.884   3.191 -0.9275  0.0543  0.8805
 5084TIP3    H236668   5.293   3.770   3.175  1.2934 -1.5180 -3.1717
 5085TIP3   OH236669   6.170   4.355  13.655  0.3479 -0.4378 -0.2281
 5085TIP3    H136670   6.189   4.265  13.630  0.4841 -0.0201 -1.7349
 5085TIP3    H236671   6.123   4.348  13.738  0.8553 -1.8575 -0.0418
 5086TIP3   OH236672   2.351   3.065  15.477  0.4792  0.1094  0.3533
 5086TIP3    H136673   2.407   3.017  15.539  1.2604  1.0788  0.4315
 5086TIP3    H236674   2.358   3.016  15.395  0.5088 -0.4315  0.6760
 5087TIP3   OH236675   1.070   3.509   6.484 -0.0398 -0.9289  0.2787
 5087TIP3    H136676   1.099   3.542   6.569 -0.5201 -0.8331  0.4059
 5087TIP3    H236677   1.010   3.576   6.451  2.2023  0.4388 -1.3947
 5088TIP3   OH236678   1.981   4.928  13.952 -0.0293 -0.1012 -0.0735
 5088TIP3    H136679   1.907   4.903  13.897  0.1234  1.5890 -1.1047
 5088TIP3    H236680   1.953   5.008  13.995  0.8819  0.0854  0.1980
 5089TIP3   OH236681   4.755   1.804   5.695  0.0403  0.1727 -0.0185
 5089TIP3    H136682   4.806   1.776   5.771 -1.4205 -0.2713  0.8328
 5089TIP3    H236683   4.800   1.763   5.620 -0.2288 -1.9259  0.9049
 5090TIP3   OH236684   6.287   2.747  15.330  0.0912  0.5645  0.2994
 5090TIP3    H136685   6.364   2.735  15.386 -1.5268 -0.8968  2.3764
 5090TIP3    H236686   6.320   2.731  15.241  2.0513 -0.8519  1.1904
 5091TIP3   OH236687   6.321   3.449   1.551 -0.1114  0.1253 -0.0334
 5091TIP3    H136688   6.235   3.465   1.590 -0.4290  1.1809 -1.1072
 5091TIP3    H236689   6.329   3.354   1.548 -0.7812  0.0170  1.0566
 5092TIP3   OH236690   6.570   3.788   4.624  0.6210 -0.0142  0.3875
 5092TIP3    H136691   6.540   3.790   4.715  0.7727 -0.6199  0.4528
 5092TIP3    H236692   6.538   3.870   4.587  1.1706  0.5736  1.1763
 5093TIP3   OH236693   1.716   6.262  12.533 -0.1493 -0.3064 -0.0552
 5093TIP3    H136694   1.638   6.266  12.589  0.3617  0.0462  0.6377
 5093TIP3    H236695   1.699   6.325  12.463 -0.3490  0.0007  0.2685
 5094TIP3   OH236696   5.032   4.623  11.441 -0.4528  0.2557  0.5107
 5094TIP3    H136697   4.982   4.665  11.511 -0.1530 -2.5398  2.6368
 5094TIP3    H236698   5.121   4.618  11.477  0.1036  0.2601 -0.8360
 5095TIP3   OH236699   2.271   2.866  11.474  0.0895  0.1380 -0.1638
 5095TIP3    H136700   2.258   2.842  11.566  1.5979  1.3352  0.4198
 5095TIP3    H236701   2.184   2.866  11.436 -0.3405 -2.9401  0.5680
 5096TIP3   OH236702   5.927   4.279   2.136  0.2682  0.1003  0.4703
 5096TIP3    H136703   5.945   4.371   2.119  0.4098 -0.1524 -0.8654
 5096TIP3    H236704   5.963   4.233   2.060 -1.1659 -0.9080  0.3598
 5097TIP3   OH236705   1.033   2.128  13.592  0.1816  0.3170  0.2362
 5097TIP3    H136706   1.118   2.155  13.626 -0.6070  1.7860  1.1495
 5097TIP3    H236707   0.983   2.103  13.669 -0.1955 -0.6515 -0.3020
 5098TIP3   OH236708   5.220   0.077  16.335  0.3364 -0.3317 -0.1723
 5098TIP3    H136709   5.275   0.011  16.293  2.5746  0.3407  1.4913
 5098TIP3    H236710   5.215   0.148  16.272 -0.3368 -1.1995 -1.1354
 5099TIP3   OH236711   1.487   1.884  13.980  0.0634  0.0057 -0.5066
 5099TIP3    H136712   1.438   1.836  14.047  1.8745 -0.3179  0.6512
 5099TIP3    H236713   1.469   1.976  13.998 -1.4992 -0.1326 -1.2189
 5100TIP3   OH236714   4.140   5.536  13.188  0.5651 -0.1443 -0.2703
 5100TIP3    H136715   4.192   5.533  13.108  1.0105 -0.2459  0.0154
 5100TIP3    H236716   4.180   5.470  13.245 -1.4384 -2.0522 -0.9496
 5101TIP3   OH236717   2.328   6.630   3.198  0.1122  0.8062  0.5349
 5101TIP3    H136718   2.350   6.722   3.211 -1.3299  1.0420  1.5108
 5101TIP3    H236719   2.285   6.603   3.279  0.3569 -0.6926  0.2044
 5102TIP3   OH236720   5.846   0.298  13.680 -0.0895 -0.8942 -0.3794
 5102TIP3    H136721   5.914   0.232  13.690 -0.2624 -1.0760 -0.4091
 5102TIP3    H236722   5.829   0.329  13.769  0.8940  0.0238 -0.4897
 5103TIP3   OH236723   5.193   4.245   1.045  1.0113  0.1557  0.1124
 5103TIP3    H136724   5.223   4.155   1.046  0.4582 -0.0327  0.0437
 5103TIP3    H236725   5.211   4.277   1.134 -0.7434 -0.6961  0.8299
 5104TIP3   OH236726   0.562   1.350  12.543 -0.2867 -0.3408  0.1680
 5104TIP3    H136727   0.577   1.319  12.633 -2.1809  0.6856  0.8887
 5104TIP3    H236728   0.510   1.281  12.503 -0.7439 -0.1083  0.3570
 5105TIP3   OH236729   0.752   1.774  11.126 -0.0007  0.2915  0.2744
 5105TIP3    H136730   0.735   1.854  11.076 -0.5239  0.0409  0.0487
 5105TIP3    H236731   0.665   1.737  11.143  0.2308 -0.1494  0.5120
 5106TIP3   OH236732   6.377   2.375   6.347 -0.2570  0.3887  0.4888
 5106TIP3    H136733   6.347   2.333   6.266 -0.0957  1.9153 -0.3983
 5106TIP3    H236734   6.472   2.368   6.343 -0.2539  0.3723  0.6072
 5107TIP3   OH236735   3.772   4.594  15.385 -0.3382  0.2813 -0.4228
 5107TIP3    H136736   3.694   4.610  15.438 -0.6523 -0.0091 -0.7802
 5107TIP3    H236737   3.796   4.679  15.350 -1.5434  0.1297 -1.7134
 5108TIP3   OH236738   3.050   0.268  14.037 -0.1221 -0.2233 -0.5357
 5108TIP3    H136739   3.023   0.198  13.978  2.0286 -1.4219 -0.1939
 5108TIP3    H236740   3.039   0.230  14.125  0.3540  0.1202 -0.3226
 5109TIP3   OH236741   2.109   2.986   5.106 -0.0440 -0.2627 -0.3719
 5109TIP3    H136742   2.085   3.035   5.028 -1.9149  1.6960  1.2841
 5109TIP3    H236743   2.184   3.034   5.142  0.1848 -0.5579 -0.4568
 5110TIP3   OH236744   3.928   2.022  12.231 -0.4668  0.3896 -0.4074
 5110TIP3    H136745   3.948   2.053  12.319  0.6397  1.2264 -0.9170
 5110TIP3    H236746   3.857   2.078  12.201 -0.1397  0.8096 -0.4160
 5111TIP3   OH236747   2.114   0.580   1.194 -0.4616 -0.0093  0.5238
 5111TIP3    H136748   2.182   0.621   1.140 -1.3098 -0.5508 -0.9911
 5111TIP3    H236749   2.036   0.632   1.177 -1.4371 -1.8684 -1.0341
 5112TIP3   OH236750   0.671   5.170  15.533 -0.2390  0.4974  0.4682
 5112TIP3    H136751   0.701   5.087  15.496 -1.2969  0.4962 -0.4316
 5112TIP3    H236752   0.620   5.145  15.610  0.3673  0.3874  0.8410
 5113TIP3   OH236753   2.336   0.169  12.155  0.4722  0.1833  0.1317
 5113TIP3    H136754   2.261   0.123  12.117 -0.2235  1.0998  0.3680
 5113TIP3    H236755   2.363   0.231  12.087  1.7857 -0.9433 -0.4227
 5114TIP3   OH236756   2.103   5.626   5.988 -0.4644 -0.2034  0.4640
 5114TIP3    H136757   2.134   5.664   5.906  0.3683 -0.8777  0.4584
 5114TIP3    H236758   2.074   5.701   6.040  1.1242  0.4615  0.4458
 5115TIP3   OH236759   3.813   2.144  12.993 -0.7496  0.2760 -0.5564
 5115TIP3    H136760   3.902   2.110  13.000 -1.0783 -0.9970 -2.0161
 5115TIP3    H236761   3.774   2.129  13.079 -0.1739 -1.0566 -0.5072
 5116TIP3   OH236762   5.696   2.154  11.151 -0.1126  0.5591 -0.6818
 5116TIP3    H136763   5.634   2.179  11.084 -1.0930 -3.0097 -1.2580
 5116TIP3    H236764   5.651   2.089  11.204  1.4463  1.5129  2.0810
 5117TIP3   OH236765   2.699   0.346  12.325 -0.4449 -0.2651  0.6710
 5117TIP3    H136766   2.714   0.344  12.231  0.7713  0.0950  0.8282
 5117TIP3    H236767   2.697   0.439  12.348  0.4218 -0.3464  1.1397
 5118TIP3   OH236768   5.066   0.683  15.647 -0.9563 -0.3988  0.4912
 5118TIP3    H136769   5.159   0.703  15.635 -0.6040 -0.6133  2.5257
 5118TIP3    H236770   5.023   0.723  15.571  0.7100  0.2779 -0.1515
 5119TIP3   OH236771   3.186   3.898   4.017 -0.0878  0.0603 -0.0958
 5119TIP3    H136772   3.098   3.910   4.052 -0.2315  0.9336 -0.6988
 5119TIP3    H236773   3.220   3.987   4.008  0.8866 -0.2707  0.2037
 5120TIP3   OH236774   4.969   5.228  10.984  0.0019 -0.2229 -0.0092
 5120TIP3    H136775   4.921   5.213  10.903  0.4722 -0.8942 -0.1677
 5120TIP3    H236776   4.931   5.167  11.047  0.3631 -0.4715 -0.0263
 5121TIP3   OH236777   2.593   0.192  14.715 -0.2734  1.3484 -0.2414
 5121TIP3    H136778   2.600   0.283  14.685  0.1633  0.7604 -2.0411
 5121TIP3    H236779   2.555   0.145  14.642  0.5274 -0.1277  0.2339
 5122TIP3   OH236780   3.258   0.037  12.656  0.3141  0.1875  0.7733
 5122TIP3    H136781   3.182   0.090  12.680  0.1360 -0.0957  0.8321
 5122TIP3    H236782   3.287   0.073  12.572 -0.1007  0.0663  0.5780
 5123TIP3   OH236783   2.574   5.855   5.251 -0.2977  0.0658  0.2288
 5123TIP3    H136784   2.654   5.870   5.301 -0.2023 -1.2015  0.5014
 5123TIP3    H236785   2.560   5.936   5.202  1.0251  0.3920  0.3523
 5124TIP3   OH236786   0.524   4.074  13.968 -0.6725  0.1677 -0.6436
 5124TIP3    H136787   0.471   3.997  13.946  1.4637 -1.0803 -1.6721
 5124TIP3    H236788   0.559   4.054  14.055 -1.6818  0.9401 -0.0208
 5125TIP3   OH236789   3.991   4.858  13.367 -0.4327  0.3219 -0.6093
 5125TIP3    H136790   3.914   4.884  13.418  0.8699 -0.3349  1.8849
 5125TIP3    H236791   3.981   4.763  13.355 -1.2046  0.6002 -2.5594
 5126TIP3   OH236792   5.016   4.918   2.740 -0.1396 -0.3504  0.1297
 5126TIP3    H136793   5.072   4.933   2.816 -1.8315 -0.0712  1.3757
 5126TIP3    H236794   5.040   4.988   2.679 -0.7450  1.2593  1.6410
 5127TIP3   OH236795   3.967   1.530  16.795 -0.1446  0.1318  0.1730
 5127TIP3    H136796   3.964   1.496  16.885 -0.0627  0.5825  0.3524
 5127TIP3    H236797   3.965   1.452  16.740 -2.7360 -0.1089  0.4991
 5128TIP3   OH236798   4.522   5.849   2.925 -0.2702 -0.0475  0.1095
 5128TIP3    H136799   4.437   5.887   2.946 -0.0823 -0.5045  1.8490
 5128TIP3    H236800   4.504   5.756   2.911 -0.3935  0.2406 -1.9667
 5129TIP3   OH236801   2.281   2.980   6.635 -0.0683 -0.1107 -0.7859
 5129TIP3    H136802   2.269   2.891   6.602  0.0923 -0.2943 -0.3673
 5129TIP3    H236803   2.193   3.016   6.641 -0.3421 -0.9203  0.8619
 5130TIP3   OH236804   6.063   2.626   2.564 -0.5157  0.1884 -0.7856
 5130TIP3    H136805   5.978   2.612   2.607  0.0626 -1.3200 -0.0865
 5130TIP3    H236806   6.112   2.545   2.580  0.8297  0.7824 -1.7334
 5131TIP3   OH236807   4.177   1.706   6.786 -0.4834  0.8025  0.5638
 5131TIP3    H136808   4.236   1.750   6.848  0.2492  1.2358 -0.4165
 5131TIP3    H236809   4.235   1.655   6.730 -1.3178 -1.6622  1.7814
 5132TIP3   OH236810   4.820   3.450   3.183 -0.0493 -0.4418 -0.7618
 5132TIP3    H136811   4.889   3.428   3.120  1.2020 -0.2877  0.5112
 5132TIP3    H236812   4.838   3.393   3.258 -0.7131  0.3140 -0.0173
 5133TIP3   OH236813   2.265   4.205  14.322 -0.0914 -0.1782 -0.3901
 5133TIP3    H136814   2.260   4.210  14.226 -0.2425 -1.0691 -0.4367
 5133TIP3    H236815   2.205   4.273  14.353  0.2132  0.3492 -0.9193
 5134TIP3   OH236816   1.681   1.826   3.880 -0.1839 -0.0411  0.0793
 5134TIP3    H136817   1.691   1.739   3.918 -0.4415  0.6938  1.9352
 5134TIP3    H236818   1.763   1.872   3.903 -0.2948  0.3867 -0.3669
 5135TIP3   OH236819   6.552   5.239  11.837 -0.2555 -0.6902  0.3323
 5135TIP3    H136820   6.522   5.149  11.828  0.2112 -0.6900 -2.2270
 5135TIP3    H236821   6.490   5.290  11.785 -0.1771  0.3877  1.2710
 5136TIP3   OH236822   3.488   4.312  16.696 -0.2263 -0.4606 -0.3618
 5136TIP3    H136823   3.550   4.249  16.660 -1.4791 -1.0020 -1.6898
 5136TIP3    H236824   3.419   4.259  16.734  0.2977  0.1293  1.5418
 5137TIP3   OH236825   5.127   6.747   6.269 -0.1221 -0.0532  0.2014
 5137TIP3    H136826   5.044   6.784   6.240  0.6176  0.7572 -0.9565
 5137TIP3    H236827   5.125   6.753   6.364 -0.9029  1.0415  0.1220
 5138TIP3   OH236828   2.907   6.642   5.452 -0.1373  0.2535  0.3868
 5138TIP3    H136829   2.815   6.618   5.465 -0.2734  0.4457 -0.1847
 5138TIP3    H236830   2.941   6.654   5.540 -0.8619  0.9279  0.5847
 5139TIP3   OH236831   1.237   0.277  14.279  0.5100 -0.3223 -0.0570
 5139TIP3    H136832   1.295   0.342  14.317  0.0177 -0.2444  0.5927
 5139TIP3    H236833   1.238   0.204  14.342 -1.5716  0.4710  1.0013
 5140TIP3   OH236834   3.464   0.784   2.797 -0.6282 -0.6210 -0.7044
 5140TIP3    H136835   3.413   0.860   2.771  0.7753  0.8013  0.5335
 5140TIP3    H236836   3.520   0.815   2.868  0.7054 -2.5534 -0.8282
 5141TIP3   OH236837   4.791   1.629  17.387 -0.7665  0.3679 -0.2325
 5141TIP3    H136838   4.696   1.622  17.384 -0.7830  0.8335 -1.6551
 5141TIP3    H236839   4.809   1.723  17.376 -0.1335  0.1643 -1.0647
 5142TIP3   OH236840   2.594   1.741   0.106  0.1864 -0.4025 -0.2008
 5142TIP3    H136841   2.567   1.691   0.183  1.1483 -0.2118  0.2750
 5142TIP3    H236842   2.518   1.796   0.086  0.0701 -0.1413  0.8739
 5143TIP3   OH236843   6.402   3.502  15.416  0.3179  0.0900  0.3636
 5143TIP3    H136844   6.381   3.418  15.374  1.1267 -0.0645  0.2483
 5143TIP3    H236845   6.372   3.491  15.507  1.3190 -0.7081  0.6221
 5144TIP3   OH236846   0.168   3.979   4.092 -0.5041  0.3366  0.1361
 5144TIP3    H136847   0.246   4.035   4.089 -0.8331  0.8078  0.1247
 5144TIP3    H236848   0.144   3.977   4.185 -1.4564  1.6052 -0.0475
 5145TIP3   OH236849   3.789   3.053   9.989 -0.0390  0.1828 -0.3065
 5145TIP3    H136850   3.773   2.998  10.066 -3.1175  0.1248 -0.8601
 5145TIP3    H236851   3.870   3.099  10.009  1.2066 -2.4582  1.3883
 5146TIP3   OH236852   1.203   2.529  15.121  0.1132  0.2520  0.1978
 5146TIP3    H136853   1.272   2.481  15.167 -0.2349  0.8602  1.3809
 5146TIP3    H236854   1.237   2.618  15.113 -0.2362  0.3817  0.1504
 5147TIP3   OH236855   1.920   5.189  14.050  0.0301 -0.5718 -0.2739
 5147TIP3    H136856   1.920   5.283  14.032 -0.8259 -0.4237  0.3785
 5147TIP3    H236857   1.830   5.161  14.030  0.5093 -1.4313 -1.2955
 5148TIP3   OH236858   4.662   5.588   2.042  0.2472  0.1600 -0.6605
 5148TIP3    H136859   4.680   5.594   1.949 -1.2208  0.2260 -0.9576
 5148TIP3    H236860   4.644   5.679   2.069 -1.1848 -0.0717 -0.7389
 5149TIP3   OH236861   5.273   3.110   4.714  0.1542  0.4186  0.3764
 5149TIP3    H136862   5.284   3.051   4.639 -4.0834 -0.4673  0.1813
 5149TIP3    H236863   5.360   3.118   4.752  1.6204 -2.9127 -1.8347
 5150TIP3   OH236864   6.706   1.934   0.720  0.2553  0.1986 -0.0903
 5150TIP3    H136865   6.662   1.903   0.798 -0.5533  0.1377 -0.5601
 5150TIP3    H236866   6.796   1.951   0.748  0.1005 -0.2936  0.7247
 5151TIP3   OH236867   0.722   2.795   5.194  0.0048 -0.3696 -0.2505
 5151TIP3    H136868   0.668   2.874   5.206  0.8377  0.0807  0.6045
 5151TIP3    H236869   0.664   2.734   5.148 -0.9693  0.3934 -0.0737
 5152TIP3   OH236870   4.655   6.458  15.949  0.0070 -0.1485 -0.7748
 5152TIP3    H136871   4.739   6.447  15.994 -0.1616 -1.0912 -0.6734
 5152TIP3    H236872   4.677   6.455  15.856  0.3296  1.6050 -0.7987
 5153TIP3   OH236873   3.077   3.852  16.188  0.3919 -0.0659  0.2695
 5153TIP3    H136874   3.011   3.783  16.186  0.1999  0.0795 -2.6561
 5153TIP3    H236875   3.029   3.932  16.211 -0.5535  0.0574 -1.9439
 5154TIP3   OH236876   2.322   0.155   0.382 -0.0973 -0.3027 -0.6148
 5154TIP3    H136877   2.396   0.183   0.328  0.1747  0.7838  0.2834
 5154TIP3    H236878   2.358   0.148   0.470 -1.0144  0.0961 -0.1910
 5155TIP3   OH236879   3.493   0.365   3.058 -0.2118  0.1841 -0.1600
 5155TIP3    H136880   3.495   0.415   2.976  0.0925 -0.4062 -0.5236
 5155TIP3    H236881   3.552   0.413   3.116  2.5008 -1.3044 -1.4677
 5156TIP3   OH236882   5.297   5.490   3.818  0.2561  0.6475  0.0952
 5156TIP3    H136883   5.270   5.400   3.797  2.2855 -0.5349  2.0883
 5156TIP3    H236884   5.221   5.543   3.795 -1.2806 -1.6390 -0.5491
 5157TIP3   OH236885   6.357   5.498  12.532 -0.5430  0.2766  0.0389
 5157TIP3    H136886   6.309   5.462  12.606 -1.1428  0.8834 -0.0393
 5157TIP3    H236887   6.333   5.591  12.531 -1.4371  0.0652 -1.5705
 5158TIP3   OH236888   5.945   3.247   1.540 -0.0551 -0.3575  0.7513
 5158TIP3    H136889   5.981   3.335   1.550 -0.6558 -0.3577  3.9179
 5158TIP3    H236890   5.851   3.260   1.528  0.2900 -0.5079 -4.1179
 5159TIP3   OH236891   3.470   5.168   5.234 -0.2611 -0.2789 -0.4091
 5159TIP3    H136892   3.400   5.185   5.297  0.7916  0.6872  0.5707
 5159TIP3    H236893   3.440   5.208   5.153 -0.8873  0.0570 -0.0199
 5160TIP3   OH236894   2.769   6.352  16.793  0.3887 -0.6134 -0.1965
 5160TIP3    H136895   2.859   6.381  16.807 -0.4269  1.5490  1.1287
 5160TIP3    H236896   2.738   6.326  16.880 -0.6090 -0.1604 -0.4034
 5161TIP3   OH236897   1.633   5.878  15.938  0.2556  0.1027 -0.6231
 5161TIP3    H136898   1.697   5.856  16.006 -0.8366  0.3661  0.5156
 5161TIP3    H236899   1.552   5.837  15.967 -0.9059  2.4459 -0.3635
 5162TIP3   OH236900   0.786   3.240  17.152  0.0801 -0.3484 -0.2703
 5162TIP3    H136901   0.789   3.144  17.145  0.0154 -0.3363 -0.4694
 5162TIP3    H236902   0.693   3.261  17.147  0.1927 -0.1201 -2.4271
 5163TIP3   OH236903   1.480   1.842   0.912  0.9268  0.1655 -0.5398
 5163TIP3    H136904   1.444   1.757   0.886 -1.0904  1.0278 -0.7428
 5163TIP3    H236905   1.502   1.885   0.830 -0.9075  0.9975 -0.6254
 5164TIP3   OH236906   0.244   4.397   0.039 -0.3340 -0.2451  0.1022
 5164TIP3    H136907   0.189   4.319   0.027  1.0150 -1.1516 -0.3972
 5164TIP3    H236908   0.313   4.369   0.099  0.1798  0.5652 -0.0932
 5165TIP3   OH236909   2.027   3.087  15.877 -0.2899 -0.1240  0.0791
 5165TIP3    H136910   2.048   3.050  15.792 -2.1083 -2.5898  0.6199
 5165TIP3    H236911   2.112   3.110  15.914  0.9241 -2.9002 -0.7299
 5166TIP3   OH236912   3.907   4.730  13.053  0.1064 -0.5774  0.0012
 5166TIP3    H136913   3.828   4.738  13.106 -0.9474 -1.6867 -1.3183
 5166TIP3    H236914   3.903   4.805  12.993  0.1758 -0.5097  0.0809
 5167TIP3   OH236915   2.289   6.083  14.958 -0.0884  0.2682  0.0289
 5167TIP3    H136916   2.228   6.135  15.010  1.3149  2.1014 -0.0620
 5167TIP3    H236917   2.240   6.061  14.878 -1.2424  0.0124  0.7860
 5168TIP3   OH236918   1.389   4.010   0.365 -0.0563  0.2717 -0.2568
 5168TIP3    H136919   1.457   3.966   0.314 -0.5674 -1.3547  0.4187
 5168TIP3    H236920   1.323   3.943   0.382 -0.4724  1.0602  1.5288
 5169TIP3   OH236921   0.608   0.854  17.032  0.3151 -0.3116  0.1155
 5169TIP3    H136922   0.642   0.826  16.947 -0.3303 -0.7282 -0.0175
 5169TIP3    H236923   0.513   0.847  17.023  0.2537 -1.0419  1.0865
 5170TIP3   OH236924   5.979   1.912   5.654 -0.6141 -0.1068 -0.0209
 5170TIP3    H136925   6.066   1.891   5.688  0.5012  1.8275 -1.5038
 5170TIP3    H236926   5.987   1.908   5.559 -2.0373  0.4874 -0.2046
 5171TIP3   OH236927   1.195   2.028  14.702 -0.0134  0.0798  0.0279
 5171TIP3    H136928   1.226   1.962  14.639 -0.1437  1.1315 -1.1676
 5171TIP3    H236929   1.268   2.090  14.708  1.0426 -1.2874  2.8711
 5172TIP3   OH236930   6.077   1.326   5.815  0.2554 -0.1200  0.4012
 5172TIP3    H136931   6.133   1.401   5.836 -0.0929  0.3519 -0.3275
 5172TIP3    H236932   6.081   1.320   5.719  0.5702 -1.2602  0.4737
 5173TIP3   OH236933   0.835   3.524  17.213  0.2266  0.0371  0.3492
 5173TIP3    H136934   0.834   3.429  17.216 -1.1262  0.0114 -0.3069
 5173TIP3    H236935   0.765   3.550  17.274 -0.2368  0.5596 -0.3911
 5174TIP3   OH236936   2.155   0.905   4.824 -0.4841 -0.2073  0.1525
 5174TIP3    H136937   2.127   0.945   4.742  0.1701  1.9242  0.9177
 5174TIP3    H236938   2.136   0.970   4.891  0.6162 -1.1854  1.4873
 5175TIP3   OH236939   1.961   1.843  14.486 -0.2155 -0.7568 -0.5494
 5175TIP3    H136940   1.877   1.826  14.528  0.7485 -1.4928  1.2050
 5175TIP3    H236941   1.949   1.814  14.396 -2.0163 -0.2539 -0.5091
 5176TIP3   OH236942   4.295   3.200  12.251  0.7223  0.2375 -0.1026
 5176TIP3    H136943   4.285   3.252  12.171  0.0271 -0.3499 -0.4082
 5176TIP3    H236944   4.215   3.218  12.301 -0.1885 -1.5724 -0.8298
 5177TIP3   OH236945   4.722   6.356   1.172  0.3628  0.1960  0.4519
 5177TIP3    H136946   4.716   6.279   1.229  0.5253  0.3505  0.6831
 5177TIP3    H236947   4.723   6.430   1.233 -0.1578  0.4038  0.2198
 5178TIP3   OH236948   0.005   5.935   4.800  0.1158  0.0443  0.5435
 5178TIP3    H136949   0.068   5.976   4.859 -0.6634  2.5007 -0.1751
 5178TIP3    H236950   0.055   5.869   4.753  1.6738  0.6318  1.2970
 5179TIP3   OH236951   3.982   3.450   1.505 -0.6658  0.0359 -0.6898
 5179TIP3    H136952   3.948   3.505   1.435 -0.5216 -0.6530 -1.3184
 5179TIP3    H236953   4.007   3.368   1.461 -1.2353 -0.6748  0.2779
 5180TIP3   OH236954   0.880   1.707   6.460 -0.3590  0.0916 -0.0004
 5180TIP3    H136955   0.916   1.621   6.438  1.4438  0.9094 -0.4345
 5180TIP3    H236956   0.791   1.704   6.426  0.1779 -1.0621 -1.4489
 5181TIP3   OH236957   5.133   2.643  10.681 -0.0865  0.5699 -1.3012
 5181TIP3    H136958   5.202   2.678  10.624  1.6490 -0.6007 -0.0176
 5181TIP3    H236959   5.150   2.548  10.683 -2.7607 -0.0146 -2.2355
 5182TIP3   OH236960   0.608   2.707   6.373 -0.1599 -0.0262 -0.2484
 5182TIP3    H136961   0.559   2.754   6.305  1.4013 -0.9686 -2.1069
 5182TIP3    H236962   0.675   2.770   6.401 -0.8825  0.4079  0.5603
 5183TIP3   OH236963   4.812   3.618   5.300  0.6713 -0.0085  0.2882
 5183TIP3    H136964   4.853   3.676   5.236 -2.0376  0.7434 -0.9101
 5183TIP3    H236965   4.874   3.545   5.309  1.3734  0.0098 -2.9881
 5184TIP3   OH236966   6.126   4.978  11.015 -0.0370  0.2199 -0.3596
 5184TIP3    H136967   6.140   5.013  10.927 -0.6805  0.2226 -0.4640
 5184TIP3    H236968   6.049   4.922  11.007  0.5373 -0.6384 -0.0290
 5185TIP3   OH236969   6.281   0.778  12.073 -0.6114  0.8904  0.0858
 5185TIP3    H136970   6.352   0.742  12.020 -1.1948 -0.3748  0.1099
 5185TIP3    H236971   6.324   0.830  12.140  0.2585  0.5472 -0.1975
 5186TIP3   OH236972   3.833   5.544  13.166  0.0332 -0.1077  0.3503
 5186TIP3    H136973   3.919   5.502  13.175 -0.1162 -0.2977  0.9722
 5186TIP3    H236974   3.775   5.489  13.218 -0.1459  0.9396  1.2833
 5187TIP3   OH236975   2.936   5.789   0.035 -0.0126  0.1324 -0.1291
 5187TIP3    H136976   2.995   5.863   0.024 -1.1855  2.0703  4.4706
 5187TIP3    H236977   2.993   5.713   0.047  1.3387  1.0449 -0.5891
 5188TIP3   OH236978   0.835   3.829   1.524  0.1137 -0.1868 -0.1465
 5188TIP3    H136979   0.854   3.737   1.544  0.3300 -0.1004  0.0485
 5188TIP3    H236980   0.761   3.852   1.580  1.1274  0.2466  1.0830
 5189TIP3   OH236981   0.742   6.236  13.627  0.5080 -0.2798  0.4768
 5189TIP3    H136982   0.793   6.313  13.650  1.2656 -0.7490  0.3779
 5189TIP3    H236983   0.701   6.257  13.543  1.3542 -0.2950  0.0584
 5190TIP3   OH236984   5.966   1.893   1.771 -0.0269  0.0685 -0.2185
 5190TIP3    H136985   6.014   1.921   1.849  0.9057  0.3404 -0.8710
 5190TIP3    H236986   5.952   1.799   1.785  0.5653  0.0127  0.0628
 5191TIP3   OH236987   6.399   3.528   1.293 -0.0984 -0.1926  0.9851
 5191TIP3    H136988   6.358   3.512   1.378 -0.6026 -2.9047  0.3155
 5191TIP3    H236989   6.481   3.477   1.295  0.0034 -0.0998 -0.0621
 5192TIP3   OH236990   2.233   5.233  12.305  0.2459  0.5824 -0.5915
 5192TIP3    H136991   2.277   5.188  12.377 -0.4253  0.6747 -0.1051
 5192TIP3    H236992   2.162   5.174  12.280  0.2395  0.7267 -0.9194
 5193TIP3   OH236993   4.388   5.269  15.093  0.2828  0.1505 -0.0408
 5193TIP3    H136994   4.435   5.224  15.162  1.1680  0.4692 -0.4149
 5193TIP3    H236995   4.430   5.355  15.087 -0.0212  0.2637 -0.7198
 5194TIP3   OH236996   3.636   0.566   5.859 -0.4027 -0.9730 -0.5556
 5194TIP3    H136997   3.663   0.578   5.768 -1.1510 -1.2776 -0.8202
 5194TIP3    H236998   3.718   0.569   5.908 -0.1047  0.4311 -1.0987
 5195TIP3   OH236999   3.821   3.992   5.826 -0.9350 -0.2115 -0.7639
 5195TIP3    H137000   3.757   3.964   5.892 -1.6119  0.7192 -1.0136
 5195TIP3    H237001   3.895   3.932   5.838 -0.4271  0.7925  1.8383
 5196TIP3   OH237002   6.097   0.188  13.648  0.1675 -0.1591  0.1402
 5196TIP3    H137003   6.067   0.256  13.588  0.5453 -1.7056 -1.9345
 5196TIP3    H237004   6.169   0.145  13.602  0.1664 -1.7455  1.4960
 5197TIP3   OH237005   5.159   1.364  11.450 -0.3715  0.2262  0.2856
 5197TIP3    H137006   5.165   1.337  11.359 -0.4020  0.5086  0.2011
 5197TIP3    H237007   5.094   1.433  11.451 -0.8880 -0.2565  0.6289
 5198TIP3   OH237008   4.919   5.604  13.690 -0.1196 -0.1043 -0.2254
 5198TIP3    H137009   4.906   5.516  13.657 -2.1124  0.4731 -1.1499
 5198TIP3    H237010   4.988   5.596  13.756  0.9596 -2.0177 -1.5207
 5199TIP3   OH237011   1.812   5.376   4.568 -0.1187 -0.1178 -0.1753
 5199TIP3    H137012   1.851   5.381   4.481 -2.4627 -1.2039 -1.3869
 5199TIP3    H237013   1.740   5.313   4.559 -1.2902  0.7396  2.2024
 5200TIP3   OH237014   3.885   1.021  13.782 -0.5649  0.5208  0.0424
 5200TIP3    H137015   3.815   0.957  13.795 -1.7521  1.4655 -1.3506
 5200TIP3    H237016   3.904   1.016  13.688  0.7635  0.7881  0.2766
 5201TIP3   OH237017   0.545   5.562   3.336  0.0692 -0.5635 -0.1185
 5201TIP3    H137018   0.480   5.536   3.271  0.7141 -0.5627 -0.7798
 5201TIP3    H237019   0.510   5.644   3.373  0.2030  0.0143 -1.2325
 5202TIP3   OH237020   0.937   0.705   4.939 -0.1428  0.7977 -0.0668
 5202TIP3    H137021   0.922   0.662   5.023  1.2171 -0.5263 -0.4385
 5202TIP3    H237022   0.950   0.797   4.960 -1.8813  0.8623  0.9146
 5203TIP3   OH237023   5.002   5.426   4.488  0.6339 -0.4546 -0.3354
 5203TIP3    H137024   5.098   5.422   4.491  0.7337  1.2413  0.0916
 5203TIP3    H237025   4.982   5.468   4.404  0.3876  0.6967  0.2643
 5204TIP3   OH237026   4.383   1.142   1.689  0.8430  0.4237  0.3232
 5204TIP3    H137027   4.461   1.098   1.656  0.9351  0.3358  0.6611
 5204TIP3    H237028   4.373   1.111   1.779 -0.6501 -1.0034 -0.2906
 5205TIP3   OH237029   2.910   4.085   2.842  0.0685  0.4217 -0.3579
 5205TIP3    H137030   2.874   4.082   2.930 -1.1288  0.3888 -0.8217
 5205TIP3    H237031   2.930   4.178   2.827  2.4652  0.1577  0.7470
 5206TIP3   OH237032   4.076   3.289  12.418 -0.1720  0.6774  0.1684
 5206TIP3    H137033   3.997   3.327  12.380  0.3205 -0.2189 -1.9164
 5206TIP3    H237034   4.049   3.201  12.447  0.6477 -1.0256 -3.6485
 5207TIP3   OH237035   2.565   3.785  14.962 -0.4309  0.0456 -0.0489
 5207TIP3    H137036   2.632   3.778  14.894  0.6907  0.2471  0.9911
 5207TIP3    H237037   2.499   3.720  14.938 -0.1492  0.2236 -1.4019
 5208TIP3   OH237038   5.427   0.702   1.165 -0.4931  0.0667  0.0340
 5208TIP3    H137039   5.481   0.677   1.241  0.9171 -0.7046 -1.1657
 5208TIP3    H237040   5.428   0.798   1.166  1.5531  0.1114 -0.3178
 5209TIP3   OH237041   6.199   1.337   2.008  0.1741 -0.0877 -0.1614
 5209TIP3    H137042   6.234   1.411   2.058 -1.6774  0.9292 -0.2805
 5209TIP3    H237043   6.182   1.269   2.074  3.0816 -0.9971 -0.1996
 5210TIP3   OH237044   5.400   4.786  13.897  0.0899 -0.7764  0.1264
 5210TIP3    H137045   5.362   4.805  13.982  0.3652  1.0525 -0.1137
 5210TIP3    H237046   5.332   4.812  13.834  0.2816 -1.1296 -0.2353
 5211TIP3   OH237047   6.086   4.282  15.468 -0.2509  0.0761 -0.0854
 5211TIP3    H137048   6.111   4.199  15.510  0.5529  1.0428  1.4482
 5211TIP3    H237049   6.043   4.256  15.387 -0.2854 -1.8526  0.5007
 5212TIP3   OH237050   2.015   0.625   6.245 -0.3470  0.8649  0.5159
 5212TIP3    H137051   1.955   0.645   6.316 -1.8878  0.7624 -0.7135
 5212TIP3    H237052   1.963   0.633   6.166  0.9705 -0.3326 -0.5376
 5213TIP3   OH237053   3.444   1.692   3.750 -0.8882  0.4004  0.3510
 5213TIP3    H137054   3.372   1.708   3.689 -1.8514 -1.9171  0.7512
 5213TIP3    H237055   3.402   1.664   3.831  0.3899 -1.6362  0.3960
 5214TIP3   OH237056   5.893   3.810   3.223  0.0410 -0.7631 -0.0323
 5214TIP3    H137057   5.863   3.864   3.149  1.4584 -0.6423 -0.5631
 5214TIP3    H237058   5.884   3.867   3.299  0.9746  0.0529 -0.5042
 5215TIP3   OH237059   4.636   0.313  12.878 -0.1293  0.2291 -0.2245
 5215TIP3    H137060   4.584   0.331  12.957  0.8107 -1.2239  0.7770
 5215TIP3    H237061   4.687   0.393  12.865 -0.7466  0.7159  0.2751
 5216TIP3   OH237062   2.545   4.601   3.060  0.0549 -0.1157  0.2004
 5216TIP3    H137063   2.473   4.543   3.034  0.1415  0.0523 -0.4305
 5216TIP3    H237064   2.503   4.672   3.107  0.0362 -1.1632  1.8388
 5217TIP3   OH237065   1.909   2.417  11.936 -0.0730 -0.0835 -0.2183
 5217TIP3    H137066   1.846   2.345  11.941 -0.7539  0.5170  0.0295
 5217TIP3    H237067   1.943   2.425  12.025 -2.6048  2.1454  0.7153
 5218TIP3   OH237068   3.314   6.490  11.107  0.5051 -0.8542  0.0418
 5218TIP3    H137069   3.369   6.464  11.034  0.9267  1.8121 -0.6984
 5218TIP3    H237070   3.244   6.425  11.109  2.1160 -2.7094 -0.7718
 5219TIP3   OH237071   4.306   4.924   2.194 -0.2899  0.0235 -0.1537
 5219TIP3    H137072   4.293   4.844   2.244 -1.7658  0.4465  0.1946
 5219TIP3    H237073   4.401   4.937   2.193 -0.1654 -0.2169  2.2149
 5220TIP3   OH237074   4.830   1.123  13.754 -0.5959 -0.1714 -0.2093
 5220TIP3    H137075   4.752   1.175  13.736  0.8756  2.9286  1.5172
 5220TIP3    H237076   4.858   1.151  13.841  2.0629 -1.6312 -0.4913
 5221TIP3   OH237077   4.980   2.624  16.601 -0.2725  0.5463 -0.2194
 5221TIP3    H137078   5.055   2.667  16.561  1.1883 -1.9409 -0.3918
 5221TIP3    H237079   4.952   2.684  16.671  1.1712  2.0246 -0.8485
 5222TIP3   OH237080   4.127   4.711   0.545 -0.3283  0.6579  0.4869
 5222TIP3    H137081   4.053   4.767   0.565 -1.0734  0.4954 -1.5366
 5222TIP3    H237082   4.093   4.622   0.552 -0.1442  0.5634  0.2037
 5223TIP3   OH237083   3.630   5.473  11.384 -0.5657 -0.2137  0.0838
 5223TIP3    H137084   3.615   5.396  11.329 -0.6549 -0.2094  0.1032
 5223TIP3    H237085   3.699   5.445  11.445 -1.2783 -0.5936  0.7282
 5224TIP3   OH237086   1.796   5.491  12.850  0.3089  0.1272 -0.3578
 5224TIP3    H137087   1.720   5.477  12.905 -0.2104  0.5112 -0.9615
 5224TIP3    H237088   1.855   5.545  12.903  0.1180 -0.0833  0.0686
 5225TIP3   OH237089   2.971   2.675  14.648  0.5164 -0.1153  0.4486
 5225TIP3    H137090   2.915   2.713  14.581  1.3042  0.7104  0.2305
 5225TIP3    H237091   3.035   2.622  14.600  1.4749  0.9851  0.4685
 5226TIP3   OH237092   0.077   0.663  12.419  0.1631  0.0273  0.2067
 5226TIP3    H137093   0.038   0.745  12.387  0.1328  0.3242  0.9781
 5226TIP3    H237094   0.165   0.662  12.381 -0.0470  0.1230 -0.2881
 5227TIP3   OH237095   6.174   0.417   0.918 -0.0189  0.2851  0.2904
 5227TIP3    H137096   6.269   0.416   0.930 -0.0490  0.0479  0.5172
 5227TIP3    H237097   6.162   0.420   0.823  0.2162 -0.2708  0.2407
 5228TIP3   OH237098   6.099   2.857   4.177  0.2577  0.8966 -0.4233
 5228TIP3    H137099   6.184   2.871   4.218  0.1174  0.3056  0.0918
 5228TIP3    H237100   6.113   2.783   4.118 -0.5664 -1.2210  1.8767
 5229TIP3   OH237101   4.139   0.536   3.450 -0.2795  0.0786  0.4015
 5229TIP3    H137102   4.144   0.575   3.362  1.7890  1.4676  1.0563
 5229TIP3    H237103   4.219   0.484   3.458 -0.4365 -0.0207  1.4630
 5230TIP3   OH237104   1.885   4.345   3.124 -0.1724  0.3055  0.3445
 5230TIP3    H137105   1.797   4.384   3.128 -1.2854 -2.0234  0.5625
 5230TIP3    H237106   1.883   4.292   3.044 -0.9253 -3.8952  2.8872
 5231TIP3   OH237107   2.035   3.272  14.610 -0.2744 -0.3247 -0.4263
 5231TIP3    H137108   2.122   3.234  14.610 -0.1340 -0.0078  0.0752
 5231TIP3    H237109   1.980   3.206  14.567  0.3456 -0.1867 -1.4611
 5232TIP3   OH237110   6.349   6.297  13.778  0.0624 -0.1957  0.2998
 5232TIP3    H137111   6.300   6.224  13.741  1.4354 -2.1703  2.1320
 5232TIP3    H237112   6.284   6.367  13.790 -1.3027 -1.0847 -1.4449
 5233TIP3   OH237113   3.051   6.137   1.624 -0.4267  0.2321  0.0342
 5233TIP3    H137114   3.094   6.187   1.554  0.3507 -1.5545 -0.8297
 5233TIP3    H237115   2.986   6.084   1.578  0.8295 -1.7857  0.4420
 5234TIP3   OH237116   5.687   3.770   5.925  0.6029 -0.2930 -0.2901
 5234TIP3    H137117   5.610   3.818   5.895 -0.2737 -0.2859  1.7648
 5234TIP3    H237118   5.697   3.795   6.017  1.1227 -2.7348  0.4099
 5235TIP3   OH237119   1.163   5.554   2.765  0.6800  0.2540 -0.1409
 5235TIP3    H137120   1.216   5.493   2.816 -0.1364  1.0089  1.7408
 5235TIP3    H237121   1.160   5.517   2.677 -1.3328 -3.4917  1.2659
 5236TIP3   OH237122   5.976   2.203  14.558 -0.2207 -0.2737 -0.2889
 5236TIP3    H137123   5.979   2.107  14.556 -1.5446 -0.3695  0.7422
 5236TIP3    H237124   5.924   2.226  14.481  0.0735 -0.3830 -0.5225
 5237TIP3   OH237125   4.665   3.987  12.807  0.2942  0.0416  0.1940
 5237TIP3    H137126   4.635   4.011  12.895 -2.0407  0.9604 -0.7762
 5237TIP3    H237127   4.711   3.904  12.820 -1.0804 -0.5074  2.1322
 5238TIP3   OH237128   1.735   6.373   0.926  0.3695  0.3937 -0.1779
 5238TIP3    H137129   1.775   6.286   0.934  1.4046  0.5446 -2.7354
 5238TIP3    H237130   1.656   6.358   0.874  1.3523  1.1187 -1.9628
 5239TIP3   OH237131   5.221   0.863   3.224  0.2144 -0.1090 -0.1145
 5239TIP3    H137132   5.254   0.885   3.311 -0.3427 -0.6720  0.2503
 5239TIP3    H237133   5.186   0.774   3.234 -4.2301  1.4420  0.3878
 5240TIP3   OH237134   0.304   4.116  11.457  0.1269 -0.4409 -0.2110
 5240TIP3    H137135   0.239   4.056  11.421  0.9117 -1.2548 -0.3034
 5240TIP3    H237136   0.344   4.157  11.381 -0.0928 -0.1230 -0.1603
 5241TIP3   OH237137   6.000   0.934  13.944 -0.0360  0.7979  0.1770
 5241TIP3    H137138   6.035   0.984  14.018  1.6703 -0.6355  0.4081
 5241TIP3    H237139   6.057   0.956  13.871 -1.7071  2.1911 -0.7697
 5242TIP3   OH237140   0.064   3.587  17.064  0.7624 -0.1530 -0.1591
 5242TIP3    H137141  -0.023   3.570  17.100 -0.2797  2.7424 -0.9733
 5242TIP3    H237142   0.118   3.607  17.140 -0.7542  3.3162  0.1906
 5243TIP3   OH237143   5.696   1.234  14.626  0.1869 -0.4005 -0.1076
 5243TIP3    H137144   5.751   1.237  14.704 -0.4459  0.1373  0.3303
 5243TIP3    H237145   5.613   1.197  14.656  0.3074 -1.2327 -0.7651
 5244TIP3   OH237146   2.376   3.685  15.410 -0.4856 -0.5882 -0.3107
 5244TIP3    H137147   2.445   3.649  15.354  0.1101 -0.8665  0.5993
 5244TIP3    H237148   2.305   3.621  15.404 -0.7179 -0.2655 -1.3030
 5245TIP3   OH237149   2.891   6.342  17.255  0.3837  0.1108 -0.1210
 5245TIP3    H137150   2.972   6.291  17.258  1.4894  1.7302 -1.2559
 5245TIP3    H237151   2.917   6.430  17.280 -0.7987  0.9218 -1.6043
 5246TIP3   OH237152   3.089   2.645  11.669 -0.2001 -0.0541  0.0877
 5246TIP3    H137153   3.038   2.679  11.742 -1.0413  0.2059 -0.5970
 5246TIP3    H237154   3.043   2.676  11.591  0.0058 -1.2999 -0.5566
 5247TIP3   OH237155   6.531   6.503  17.168 -0.1336  0.3480 -0.0630
 5247TIP3    H137156   6.523   6.461  17.253  2.5115 -2.8996 -1.1910
 5247TIP3    H237157   6.594   6.573  17.181  1.0178 -0.7526  0.5501
 5248TIP3   OH237158   5.628   5.906   0.879 -0.4242  0.1548  0.8853
 5248TIP3    H137159   5.679   5.953   0.812  1.0596 -2.2192  0.2374
 5248TIP3    H237160   5.662   5.817   0.876 -3.0258 -0.9613  2.1448
 5249TIP3   OH237161   0.620   4.347  15.294  0.2649  0.2943  0.1755
 5249TIP3    H137162   0.547   4.359  15.355 -0.7846  2.8459 -1.4127
 5249TIP3    H237163   0.579   4.312  15.215  0.8918  0.8191 -0.3949
 5250TIP3   OH237164   0.629   2.791   2.028 -0.1167 -0.5501 -0.0018
 5250TIP3    H137165   0.666   2.831   2.106 -1.1395 -1.5108  1.0299
 5250TIP3    H237166   0.695   2.804   1.960  1.1302 -0.3425  1.2023
 5251TIP3   OH237167   5.601   1.067   3.607  0.1644  0.3721 -0.5654
 5251TIP3    H137168   5.519   1.092   3.651 -0.5778 -1.7306 -0.6555
 5251TIP3    H237169   5.610   1.130   3.535 -1.4290  0.5734 -0.6148
 5252TIP3   OH237170   5.972   4.807   5.923 -0.2119  0.1857 -0.1267
 5252TIP3    H137171   5.990   4.756   5.844 -1.3787  0.6438 -0.7077
 5252TIP3    H237172   6.044   4.785   5.982  1.7677  1.2803 -1.9797
 5253TIP3   OH237173   1.302   2.284   5.449 -0.0562  0.3737  0.4154
 5253TIP3    H137174   1.357   2.330   5.513  0.6586 -1.2334  1.0186
 5253TIP3    H237175   1.343   2.303   5.365 -1.4075  3.0851  0.2618
 5254TIP3   OH237176   5.831   1.856   2.875 -0.0429  0.0807  0.4373
 5254TIP3    H137177   5.850   1.772   2.832  0.7701 -0.9762  2.6731
 5254TIP3    H237178   5.747   1.842   2.919 -1.5556  1.5976 -1.7489
 5255TIP3   OH237179   4.355   0.573   4.659 -0.4543  0.3501 -0.2500
 5255TIP3    H137180   4.351   0.562   4.754 -0.2992 -0.7886 -0.3634
 5255TIP3    H237181   4.438   0.617   4.643 -1.2049  2.0057  0.2539
 5256TIP3   OH237182   0.688   2.202   1.847  0.3346  0.6099  0.0098
 5256TIP3    H137183   0.628   2.200   1.773  1.7678  1.2894 -1.2276
 5256TIP3    H237184   0.650   2.267   1.907  0.1765  1.5520 -1.0721
 5257TIP3   OH237185   0.368   5.052   4.183  0.8001  0.5165 -0.2971
 5257TIP3    H137186   0.323   5.134   4.161  1.9970  0.8167 -1.7704
 5257TIP3    H237187   0.316   5.015   4.255  0.1546  2.4936  0.3246
 5258TIP3   OH237188   2.538   4.343  13.330  0.4567  0.1711  0.0100
 5258TIP3    H137189   2.488   4.263  13.316 -0.3788  0.8531 -1.0424
 5258TIP3    H237190   2.515   4.371  13.418 -0.7238  0.2475 -0.3075
 5259TIP3   OH237191   5.619   5.869  16.368 -0.1002 -0.3275  0.3648
 5259TIP3    H137192   5.661   5.955  16.358 -1.5270  0.3497 -0.0423
 5259TIP3    H237193   5.578   5.852  16.283  1.0095 -1.9131  0.1001
 5260TIP3   OH237194   6.671   3.046   5.696  0.2756 -0.2209  0.1105
 5260TIP3    H137195   6.657   2.969   5.751  0.5646  0.2087  0.7963
 5260TIP3    H237196   6.660   3.013   5.606 -2.1007 -0.5300  0.4569
 5261TIP3   OH237197   4.516   0.275  14.123 -0.3047 -0.5005 -0.5194
 5261TIP3    H137198   4.523   0.272  14.219  0.8669 -1.3069 -0.6243
 5261TIP3    H237199   4.541   0.188  14.094  0.3828  0.0552 -1.6312
 5262TIP3   OH237200   0.428   0.764   3.172 -0.3193 -0.2483 -0.2399
 5262TIP3    H137201   0.390   0.677   3.181 -0.9984  0.2349  2.6525
 5262TIP3    H237202   0.372   0.821   3.224  0.5656  1.7999 -1.3880
 5263TIP3   OH237203   2.006   4.307  15.817  0.0942  0.1633 -0.1108
 5263TIP3    H137204   1.914   4.282  15.822  0.2711 -0.2759  1.4694
 5263TIP3    H237205   2.011   4.388  15.867  0.6412 -0.0741  0.2285
 5264TIP3   OH237206   0.432   3.823   1.395  0.3067  0.2318 -0.0814
 5264TIP3    H137207   0.468   3.889   1.337 -0.0871  0.2097 -0.3511
 5264TIP3    H237208   0.472   3.842   1.480  0.3070  0.7252 -0.1883
 5265TIP3   OH237209   6.312   3.532  14.865 -0.4769 -0.1749 -0.1425
 5265TIP3    H137210   6.364   3.527  14.785  0.9214  0.8663  0.6430
 5265TIP3    H237211   6.231   3.574  14.839 -0.3451 -0.5096 -1.1355
 5266TIP3   OH237212   2.509   4.484  12.149  0.2489 -0.5086 -0.1882
 5266TIP3    H137213   2.604   4.490  12.154  0.2000  0.9297 -0.5237
 5266TIP3    H237214   2.479   4.522  12.232 -0.0365  0.2692 -0.6306
 5267TIP3   OH237215   2.641   4.779   6.453 -0.2369 -0.0810 -0.2160
 5267TIP3    H137216   2.708   4.848   6.458  1.7866 -1.8788 -1.1805
 5267TIP3    H237217   2.566   4.817   6.499  0.8915  2.6101 -0.3653
 5268TIP3   OH237218   2.871   3.978  13.585 -0.0307  0.3585  0.0345
 5268TIP3    H137219   2.923   4.026  13.649  0.1580 -0.3365  0.4181
 5268TIP3    H237220   2.887   3.886  13.605 -2.6367  0.0568  1.2631
 5269TIP3   OH237221   5.255   0.589  15.338  0.3661  0.2368 -0.5978
 5269TIP3    H137222   5.249   0.537  15.418  1.3460 -0.9945 -1.2853
 5269TIP3    H237223   5.315   0.661  15.360  0.6024 -0.0750 -0.2140
 5270TIP3   OH237224   4.918   4.858  12.159  0.0457  0.4644 -0.0771
 5270TIP3    H137225   4.946   4.922  12.225  3.0566  1.9116 -2.4994
 5270TIP3    H237226   4.972   4.781  12.176 -0.8148 -0.0362  0.4723
 5271TIP3   OH237227   3.280   1.535   0.900  0.2676  0.2149  0.7901
 5271TIP3    H137228   3.349   1.525   0.966  1.5179 -1.1620 -0.6151
 5271TIP3    H237229   3.310   1.481   0.827 -2.0270  0.0907 -0.1392
 5272TIP3   OH237230   2.922   5.260   0.407  0.8675 -0.0894 -0.3262
 5272TIP3    H137231   2.964   5.224   0.485  1.6356 -1.6230 -1.3964
 5272TIP3    H237232   2.952   5.205   0.335 -2.4617 -0.9325 -1.2819
 5273TIP3   OH237233   0.199   5.222  13.890  0.5001  0.4168  0.2449
 5273TIP3    H137234   0.181   5.143  13.941  2.5813  0.8764  1.8224
 5273TIP3    H237235   0.142   5.289  13.929 -0.5287 -0.0312 -0.4390
 5274TIP3   OH237236   3.922   2.455  15.768 -0.2374  0.0504 -0.1596
 5274TIP3    H137237   3.937   2.478  15.859 -0.7817 -1.2670  0.2882
 5274TIP3    H237238   3.978   2.379  15.752  1.2044  1.3129 -1.4682
 5275TIP3   OH237239   5.721   4.013   2.701  0.1704 -0.7648 -0.3138
 5275TIP3    H137240   5.659   3.974   2.763  0.0921 -0.2037 -0.0290
 5275TIP3    H237241   5.680   4.097   2.676  1.3816  0.2141  0.8417
 5276TIP3   OH237242   5.434   1.170   0.141 -0.4707 -0.2109 -0.3841
 5276TIP3    H137243   5.351   1.133   0.112 -0.6807  0.7079 -1.0124
 5276TIP3    H237244   5.497   1.140   0.075 -0.3114 -0.8783  0.0724
 5277TIP3   OH237245   4.619   5.932  11.848  0.3816  0.1450 -0.6614
 5277TIP3    H137246   4.606   5.837  11.844 -1.8673  0.4233 -1.5230
 5277TIP3    H237247   4.582   5.958  11.932 -0.5360  0.4265 -1.1396
 5278TIP3   OH237248   6.289   3.194  16.055 -0.3820  0.0047  0.6449
 5278TIP3    H137249   6.265   3.111  16.014 -0.1155 -0.1284  0.7502
 5278TIP3    H237250   6.324   3.168  16.140  0.2089  0.1839  0.4606
 5279TIP3   OH237251   5.782   6.243  16.536 -0.7231 -0.2877  0.2259
 5279TIP3    H137252   5.818   6.158  16.563 -1.3543 -0.8303 -0.5885
 5279TIP3    H237253   5.857   6.292  16.504 -0.5793 -1.1323 -0.7651
 5280TIP3   OH237254   4.578   2.180  12.022 -0.0127 -0.0802  0.2086
 5280TIP3    H137255   4.582   2.136  11.937 -0.2296  0.0119  0.1504
 5280TIP3    H237256   4.635   2.256  12.013 -0.5517  0.2938 -0.0668
 5281TIP3   OH237257   6.710   6.578   3.084  0.1145  0.3138  0.8241
 5281TIP3    H137258   6.663   6.497   3.064 -0.1928  0.3743  1.2691
 5281TIP3    H237259   6.705   6.629   3.003 -1.3552  0.6834  1.1065
 5282TIP3   OH237260   2.387   4.286   2.996  0.2329  0.1175 -0.5562
 5282TIP3    H137261   2.345   4.200   3.007  1.1588 -0.1701  0.9611
 5282TIP3    H237262   2.424   4.282   2.908  2.0146 -1.8919  0.1782
 5283TIP3   OH237263   3.313   3.032  15.450 -0.0950  0.0827 -0.3449
 5283TIP3    H137264   3.349   2.971  15.514  1.2901  0.4117 -0.7728
 5283TIP3    H237265   3.276   3.102  15.503 -0.2871 -0.3655  0.1220
 5284TIP3   OH237266   1.752   0.905  16.041  0.1051 -0.6528  0.1418
 5284TIP3    H137267   1.741   1.000  16.032  1.6136 -0.4986 -0.3984
 5284TIP3    H237268   1.667   0.874  16.073 -0.3352  0.9038  0.5785
 5285TIP3   OH237269   1.212   5.273   3.702  0.0567  0.0512  0.5460
 5285TIP3    H137270   1.279   5.253   3.638  0.0048  0.2351  0.4331
 5285TIP3    H237271   1.260   5.307   3.778  0.1690 -0.7842  0.8579
 5286TIP3   OH237272   5.640   5.750   4.294  0.8708 -0.0975 -0.2901
 5286TIP3    H137273   5.701   5.791   4.233  0.4597  1.0758  0.0672
 5286TIP3    H237274   5.558   5.798   4.284  0.5082 -0.5121  0.4911
 5287TIP3   OH237275   3.345   2.463  15.131 -0.5436  0.4951 -0.4825
 5287TIP3    H137276   3.276   2.397  15.127  0.0316 -0.1825  0.2779
 5287TIP3    H237277   3.421   2.422  15.090 -0.5505  1.1938 -1.2224
 5288TIP3   OH237278   5.104   3.927   0.223 -0.5671  0.2689 -0.0626
 5288TIP3    H137279   5.188   3.900   0.188 -0.2320 -1.7115  2.0074
 5288TIP3    H237280   5.042   3.913   0.151  1.0168  3.7525 -2.3313
 5289TIP3   OH237281   4.426   4.768  10.559  0.0064  0.0326 -0.3359
 5289TIP3    H137282   4.512   4.753  10.520 -0.3686 -1.7395 -0.5411
 5289TIP3    H237283   4.442   4.761  10.653  0.1650  0.2243 -0.3454
 5290TIP3   OH237284   6.206   3.900  11.545 -1.1008 -0.0080  0.1354
 5290TIP3    H137285   6.259   3.961  11.597  1.1248 -0.1694 -1.7785
 5290TIP3    H237286   6.267   3.863  11.482 -3.4646 -0.4527 -2.0613
 5291TIP3   OH237287   6.689   3.381  16.636 -0.1522  0.0086 -0.2704
 5291TIP3    H137288   6.729   3.412  16.718 -1.1280 -0.0024  0.2207
 5291TIP3    H237289   6.613   3.437  16.623  0.4137  0.5136 -1.5972
 5292TIP3   OH237290   2.838   6.005  14.582 -0.0687 -0.0545  0.1398
 5292TIP3    H137291   2.770   5.950  14.622 -1.5932  0.6896 -1.3324
 5292TIP3    H237292   2.853   5.966  14.496  1.2349 -0.0659  0.3525
 5293TIP3   OH237293   1.276   1.883   4.486  0.1200 -0.3400 -0.3496
 5293TIP3    H137294   1.222   1.958   4.512  0.4028 -0.5080  0.7806
 5293TIP3    H237295   1.213   1.816   4.460 -0.1228  0.6114 -2.4246
 5294TIP3   OH237296   2.819   2.752   2.294 -0.0721  0.6631  0.1527
 5294TIP3    H137297   2.856   2.701   2.222  1.2293 -0.3562  1.4791
 5294TIP3    H237298   2.810   2.689   2.366 -1.0087  1.7243  1.0102
 5295TIP3   OH237299   0.279   1.211  12.835  0.0782 -0.0053 -0.1486
 5295TIP3    H137300   0.374   1.204  12.820  0.0610  0.0754 -0.2982
 5295TIP3    H237301   0.259   1.302  12.816  0.0508  0.0955  0.3544
 5296TIP3   OH237302   3.101   2.766   4.646  0.0402  0.5549 -0.0051
 5296TIP3    H137303   3.026   2.708   4.632  0.0325  0.7522 -0.8070
 5296TIP3    H237304   3.068   2.835   4.703  0.0898 -0.3017  1.0830
 5297TIP3   OH237305   6.073   4.347  16.075 -0.3492  0.1056  0.3174
 5297TIP3    H137306   5.994   4.386  16.036  1.0077  0.6761 -2.0386
 5297TIP3    H237307   6.137   4.347  16.005  2.1639  0.7058  2.4460
 5298TIP3   OH237308   6.220   3.050   5.712  0.3220  0.2476 -0.0112
 5298TIP3    H137309   6.231   3.143   5.693  0.5167 -0.0507 -1.4863
 5298TIP3    H237310   6.268   3.006   5.642 -0.7665 -0.9768 -0.0212
 5299TIP3   OH237311   2.216   1.327   4.610  0.1489  0.1606  0.3392
 5299TIP3    H137312   2.234   1.405   4.559 -0.5576  0.8597  1.1252
 5299TIP3    H237313   2.296   1.274   4.603  0.2665  0.4670 -1.0255
 5300TIP3   OH237314   5.451   0.168   0.629 -0.2528 -0.1846  0.4203
 5300TIP3    H137315   5.390   0.129   0.566  0.3983  0.1765 -0.4563
 5300TIP3    H237316   5.398   0.183   0.707 -0.6950 -2.1438  0.5467
 5301TIP3   OH237317   2.853   0.834  12.038 -0.0987 -0.2945  0.6389
 5301TIP3    H137318   2.888   0.747  12.017  0.6559 -0.2426  1.6206
 5301TIP3    H237319   2.772   0.817  12.087 -0.3302 -0.4311  0.2148
 5302TIP3   OH237320   5.832   2.657  13.082  0.0745  0.3029 -0.2606
 5302TIP3    H137321   5.839   2.622  13.171 -0.6277  0.9788  0.0740
 5302TIP3    H237322   5.774   2.733  13.091  1.0274  1.1626 -1.0659
 5303TIP3   OH237323   6.476   3.762   2.436 -0.5010  0.8011  0.0731
 5303TIP3    H137324   6.415   3.799   2.500 -1.5179  1.2832 -1.1426
 5303TIP3    H237325   6.560   3.804   2.456 -0.3877 -0.2818  2.1223
 5304TIP3   OH237326   4.759   3.207   5.434  0.3082 -0.1331  0.0089
 5304TIP3    H137327   4.692   3.255   5.386 -0.3329 -1.5755 -0.6208
 5304TIP3    H237328   4.732   3.211   5.526 -1.1340 -1.3778 -0.3273
 5305TIP3   OH237329   0.623   2.309  15.614 -0.8368 -0.4781 -0.0936
 5305TIP3    H137330   0.627   2.294  15.709 -0.8501  1.0912  0.1820
 5305TIP3    H237331   0.653   2.399  15.603 -1.3272 -0.4721 -1.5418
 5306TIP3   OH237332   5.832   1.610   6.385 -0.0852  0.2327  0.2132
 5306TIP3    H137333   5.744   1.639   6.408  0.3630 -0.3638  3.0166
 5306TIP3    H237334   5.873   1.687   6.345 -1.1296  1.2613  1.0584
 5307TIP3   OH237335   4.154   4.712  15.649  0.4172 -0.6580  0.7062
 5307TIP3    H137336   4.175   4.747  15.563 -1.9169 -1.1265 -0.1310
 5307TIP3    H237337   4.125   4.787  15.700 -0.6712 -0.7434  0.2296
 5308TIP3   OH237338   6.028   0.618  17.241 -0.1884 -0.4589 -0.1297
 5308TIP3    H137339   6.111   0.573  17.226  0.3282  1.1556 -2.6684
 5308TIP3    H237340   5.983   0.615  17.156 -1.0366  1.9589  0.1584
 5309TIP3   OH237341   2.071   0.274   3.438  0.5830  0.0367  0.2427
 5309TIP3    H137342   2.133   0.300   3.371 -0.6299 -0.9855 -1.3496
 5309TIP3    H237343   2.125   0.246   3.512  1.9382  2.5393  0.3054
 5310TIP3   OH237344   6.637   4.840  14.557 -0.0586  0.3072  0.4438
 5310TIP3    H137345   6.581   4.894  14.613 -1.7487  0.0776 -0.9478
 5310TIP3    H237346   6.582   4.766  14.531  1.1102 -0.2829 -0.4419
 5311TIP3   OH237347   5.342   3.454   3.702 -0.7324  0.0111 -0.1474
 5311TIP3    H137348   5.351   3.359   3.700  1.7226  0.1285  1.4106
 5311TIP3    H237349   5.289   3.471   3.780  0.7284 -0.0446  0.8971
 5312TIP3   OH237350   4.671   3.656  16.443 -0.2225 -0.1673  0.3443
 5312TIP3    H137351   4.754   3.627  16.481  0.6242 -1.4599 -2.2682
 5312TIP3    H237352   4.634   3.577  16.402 -1.2354  1.0149 -1.1393
 5313TIP3   OH237353   1.973   1.863  17.036 -0.2126  0.0359  0.0198
 5313TIP3    H137354   1.938   1.800  17.100  1.5841  0.0171  1.0512
 5313TIP3    H237355   2.062   1.879  17.065  1.4082 -1.4125 -3.5754
 5314TIP3   OH237356   2.263   1.613   5.949  0.2268 -0.1408  0.1676
 5314TIP3    H137357   2.279   1.668   6.026  1.8212  0.5892 -0.6308
 5314TIP3    H237358   2.205   1.665   5.894 -0.4867 -0.4385  0.6320
 5315TIP3   OH237359   3.357   1.925  14.011 -0.0492  0.7805 -0.3417
 5315TIP3    H137360   3.363   1.883  14.097 -0.5411  1.7070  0.1566
 5315TIP3    H237361   3.368   1.853  13.949 -1.8916 -0.3002  0.4931
 5316TIP3   OH237362   6.297   2.173   0.841 -0.2183  0.1255 -0.0837
 5316TIP3    H137363   6.364   2.153   0.906  0.0901 -1.3241 -0.8263
 5316TIP3    H237364   6.338   2.238   0.784 -0.0839  0.5500  0.4868
 5317TIP3   OH237365   3.556   4.879  16.466  0.2811 -0.1393 -0.2657
 5317TIP3    H137366   3.509   4.799  16.490  1.1988 -0.4215  0.6740
 5317TIP3    H237367   3.506   4.949  16.506  0.1229 -0.3517 -0.0882
 5318TIP3   OH237368   2.772   2.226  15.204  0.5685  0.0035  0.0024
 5318TIP3    H137369   2.710   2.168  15.160  0.4966  0.6912 -0.8283
 5318TIP3    H237370   2.835   2.251  15.136  0.5273  0.9857  0.3060
 5319TIP3   OH237371   6.310   3.273   5.440 -0.0116 -0.1371  0.8212
 5319TIP3    H137372   6.360   3.349   5.472 -2.0480  1.1148  1.2199
 5319TIP3    H237373   6.233   3.270   5.496  0.3835 -3.0466  1.3270
 5320TIP3   OH237374   3.778   3.288   3.500 -0.0605 -0.5334 -0.5254
 5320TIP3    H137375   3.770   3.270   3.593  0.8737  0.3389 -0.2474
 5320TIP3    H237376   3.794   3.203   3.460 -0.5076 -0.9223  0.1023
 5321TIP3   OH237377   0.907   5.345   1.352 -0.2827  0.5421  0.2874
 5321TIP3    H137378   0.891   5.251   1.362 -3.0838  0.9877  1.0318
 5321TIP3    H237379   0.906   5.379   1.441  0.9276  1.2692  0.0366
 5322TIP3   OH237380   1.562   3.161  16.615  0.0115  0.1852  0.5830
 5322TIP3    H137381   1.538   3.120  16.531 -0.7929  0.6792  0.5616
 5322TIP3    H237382   1.585   3.251  16.592  0.8721  0.0239  0.7587
 5323TIP3   OH237383   0.392   3.430  12.268 -0.5326  0.0152 -0.4311
 5323TIP3    H137384   0.449   3.466  12.335 -0.7411 -1.1670  0.3970
 5323TIP3    H237385   0.311   3.482  12.274 -1.1456 -1.0615  1.3168
 5324TIP3   OH237386   0.920   1.839   2.452 -0.3220  0.3464  0.2306
 5324TIP3    H137387   0.887   1.923   2.419  0.3790  0.5639  0.0723
 5324TIP3    H237388   0.963   1.799   2.377  0.3604  0.3657  0.6041
 5325TIP3   OH237389   0.786   0.796   2.723 -0.4210  0.1760  0.4608
 5325TIP3    H137390   0.819   0.826   2.808 -0.7071 -1.2830  1.1113
 5325TIP3    H237391   0.692   0.787   2.736 -0.3646 -0.8011  0.2335
 5326TIP3   OH237392   1.439   0.732  17.215  0.4132  1.0477  0.3705
 5326TIP3    H137393   1.395   0.793  17.156  0.7117 -0.3525 -1.3777
 5326TIP3    H237394   1.445   0.650  17.166  1.8138  0.1638  1.8870
 5327TIP3   OH237395   4.031   1.998  13.034  0.5736 -0.0357 -0.2629
 5327TIP3    H137396   4.007   1.912  13.069  0.5986 -0.5704 -1.5137
 5327TIP3    H237397   4.084   2.038  13.103 -1.0982 -0.1652  1.1961
 5328TIP3   OH237398   4.712   4.893  13.136  0.6642  0.1589  0.5861
 5328TIP3    H137399   4.643   4.829  13.148  0.2048  0.8885  2.0793
 5328TIP3    H237400   4.737   4.885  13.044 -1.2162 -0.2996  0.0894
 5329TIP3   OH237401   5.022   5.736   2.767  0.3531 -0.4200 -0.2656
 5329TIP3    H137402   5.117   5.737   2.756  0.8033 -4.1242  1.7134
 5329TIP3    H237403   5.008   5.750   2.860 -1.2660  1.8712 -0.7650
 5330TIP3   OH237404   0.596   1.585   4.471  0.5750  0.4448 -0.3109
 5330TIP3    H137405   0.655   1.579   4.546  1.3274 -1.7483 -0.9862
 5330TIP3    H237406   0.543   1.663   4.488  0.9752  0.2591  2.2894
 5331TIP3   OH237407   1.531   3.142   1.689  0.6568  0.2603  0.1141
 5331TIP3    H137408   1.596   3.181   1.631 -2.0569  2.6316 -1.6042
 5331TIP3    H237409   1.537   3.193   1.769  0.0669  1.3668 -0.5263
 5332TIP3   OH237410   2.114   0.998   2.227 -0.5821  0.0513  0.6165
 5332TIP3    H137411   2.084   0.956   2.145 -0.1766  1.2279 -0.1553
 5332TIP3    H237412   2.195   1.042   2.203 -0.6738  0.7585  1.5674
 5333TIP3   OH237413   6.387   2.066  12.695  0.1725  0.7051  0.5076
 5333TIP3    H137414   6.318   2.000  12.699  0.5935  0.2684  0.6952
 5333TIP3    H237415   6.389   2.093  12.604  1.2521 -0.9209 -0.0070
 5334TIP3   OH237416   5.792   2.413   5.532 -0.1855 -0.5690  0.2321
 5334TIP3    H137417   5.775   2.325   5.564 -0.7860 -0.3733  0.4584
 5334TIP3    H237418   5.705   2.452   5.520  0.0727 -0.0067  0.1363
 5335TIP3   OH237419   4.848   5.244   6.081 -0.3043  0.0589  0.3729
 5335TIP3    H137420   4.882   5.264   6.168 -0.2718  1.5180  0.0595
 5335TIP3    H237421   4.775   5.305   6.069  0.2789  0.5495 -0.9650
 5336TIP3   OH237422   0.109   6.514  15.056  0.1942 -0.4757  0.0503
 5336TIP3    H137423   0.184   6.531  14.998 -1.0056 -0.0362 -1.4293
 5336TIP3    H237424   0.101   6.419  15.058 -0.0286 -0.4901 -0.9077
 5337TIP3   OH237425   4.079   0.343  12.148  0.2366  0.1095 -1.0559
 5337TIP3    H137426   4.112   0.345  12.058 -0.4063  0.9053 -1.2835
 5337TIP3    H237427   4.019   0.418  12.154  0.9897  0.6547  0.3105
 5338TIP3   OH237428   4.307   0.767   3.564  0.3459 -0.4434  0.4001
 5338TIP3    H137429   4.310   0.859   3.538 -0.5818 -0.7350 -0.8220
 5338TIP3    H237430   4.214   0.743   3.559  0.0642 -0.5981  3.9382
 5339TIP3   OH237431   1.073   0.779   1.547 -0.2587 -0.3722 -0.5650
 5339TIP3    H137432   1.162   0.807   1.568 -0.4153 -0.7184  0.6340
 5339TIP3    H237433   1.043   0.733   1.625 -1.4177 -0.4545 -1.0335
 5340TIP3   OH237434   4.104   6.545  12.040  0.0181 -0.1590 -0.3288
 5340TIP3    H137435   4.097   6.548  12.135 -0.5731  0.9315 -0.3897
 5340TIP3    H237436   4.055   6.466  12.015  1.9280 -1.6329  0.3804
 5341TIP3   OH237437   4.402   6.476  15.273  0.2389  0.3247  0.4417
 5341TIP3    H137438   4.429   6.388  15.300  0.3005  0.4163  0.6810
 5341TIP3    H237439   4.484   6.524  15.262  0.1754  0.5982  1.1537
 5342TIP3   OH237440   1.425   0.733   5.000  0.2450 -0.2248 -0.1588
 5342TIP3    H137441   1.469   0.772   4.924 -1.1864 -0.5212 -1.1880
 5342TIP3    H237442   1.377   0.806   5.040 -0.5589 -0.4414 -0.7054
 5343TIP3   OH237443   5.018   3.665   1.892  0.3447 -0.0732  0.5632
 5343TIP3    H137444   5.113   3.675   1.894  0.3455  0.5764 -1.1634
 5343TIP3    H237445   4.992   3.695   1.805 -1.2831 -1.7517  0.3959
 5344TIP3   OH237446   0.477   3.532   2.771 -0.1850 -0.2924 -0.1764
 5344TIP3    H137447   0.475   3.439   2.749 -0.4205  0.0694 -1.8533
 5344TIP3    H237448   0.554   3.542   2.827  0.7099 -1.2745 -1.1720
 5345TIP3   OH237449   1.777   1.374  13.430  0.5081 -0.5404  0.5153
 5345TIP3    H137450   1.863   1.374  13.386 -0.5032  1.2588 -1.6415
 5345TIP3    H237451   1.782   1.447  13.492  0.0698  0.6405 -0.7731
 5346TIP3   OH237452   0.311   4.401   2.418  0.1931 -0.0199 -0.1337
 5346TIP3    H137453   0.252   4.363   2.483  1.7248 -0.3035  1.1466
 5346TIP3    H237454   0.385   4.340   2.414  0.5514  0.4489 -1.5085
 5347TIP3   OH237455   2.653   2.660  13.063 -0.0732  0.0021 -0.6287
 5347TIP3    H137456   2.632   2.680  12.972 -0.3729  1.3262 -0.3002
 5347TIP3    H237457   2.599   2.722  13.113 -0.4277 -1.1652  0.4718
 5348TIP3   OH237458   2.342   5.466   3.239  0.8107  0.1939 -0.1939
 5348TIP3    H137459   2.305   5.411   3.309  1.0165  0.2273 -0.0588
 5348TIP3    H237460   2.269   5.478   3.178  1.1674 -1.5250 -1.0213
 5349TIP3   OH237461   3.839   4.966  11.295 -0.4787  0.2359  0.1439
 5349TIP3    H137462   3.817   4.887  11.245  0.9110  0.0949 -0.2685
 5349TIP3    H237463   3.911   5.006  11.247 -0.1436  0.9399  1.1969
 5350TIP3   OH237464   5.826   3.465   3.106  0.3438  0.3779  0.4746
 5350TIP3    H137465   5.750   3.407   3.104  0.0710  0.6372  1.9895
 5350TIP3    H237466   5.896   3.413   3.066 -0.1719 -0.5743  0.7553
 5351TIP3   OH237467   2.867   1.850   5.769  0.2001  0.5158 -0.1660
 5351TIP3    H137468   2.921   1.856   5.847  0.4518  1.3349 -0.4012
 5351TIP3    H237469   2.924   1.879   5.698 -0.4414  1.0699 -0.4643
 5352TIP3   OH237470   5.824   4.620  15.587  0.3999  0.3436 -0.2130
 5352TIP3    H137471   5.867   4.651  15.667  2.0560  0.2358 -1.0314
 5352TIP3    H237472   5.752   4.566  15.619  0.5560  0.9172  1.2041
 5353TIP3   OH237473   5.228   5.138   3.292 -0.7931 -0.4661  0.1591
 5353TIP3    H137474   5.135   5.156   3.278 -0.9118 -1.1511  0.0234
 5353TIP3    H237475   5.266   5.223   3.312 -1.2655 -0.0041 -0.8316
 5354TIP3   OH237476   1.624   4.583   4.778  0.5623  0.3197 -0.9591
 5354TIP3    H137477   1.623   4.608   4.870 -0.6758 -0.0796 -0.8519
 5354TIP3    H237478   1.604   4.664   4.730 -0.0072  0.2676 -0.8086
 5355TIP3   OH237479   3.467   6.170   3.654 -0.2004  0.6574 -0.3009
 5355TIP3    H137480   3.490   6.242   3.594 -1.2665  2.0342  0.8588
 5355TIP3    H237481   3.540   6.109   3.647  1.0210  2.1197 -0.9483
 5356TIP3   OH237482   4.451   5.044  12.653 -0.3518 -0.4367  0.2231
 5356TIP3    H137483   4.371   5.072  12.609 -0.3371  0.4256  0.7268
 5356TIP3    H237484   4.424   4.970  12.708 -0.9944  0.4106  1.0687
 5357TIP3   OH237485   2.834   0.191   5.178 -0.1032  0.2520  0.0014
 5357TIP3    H137486   2.911   0.137   5.195 -1.1535 -0.7910  1.7228
 5357TIP3    H237487   2.827   0.193   5.082  0.5859 -1.8042 -0.1421
 5358TIP3   OH237488   2.848   6.331  16.093  0.1888  1.0070  0.2659
 5358TIP3    H137489   2.775   6.393  16.101 -1.0245 -0.5276  1.8216
 5358TIP3    H237490   2.882   6.345  16.005 -0.6168  3.2305  0.2527
 5359TIP3   OH237491   4.745   5.076   3.282 -0.3375  0.1488  0.1827
 5359TIP3    H137492   4.813   5.012   3.306  0.0621  0.4590 -0.1162
 5359TIP3    H237493   4.684   5.026   3.229  0.5665  0.2654 -1.0160
 5360TIP3   OH237494   0.219   5.687   3.502  0.3655 -1.6600 -0.3344
 5360TIP3    H137495   0.126   5.663   3.499  0.0406 -1.2900  3.0592
 5360TIP3    H237496   0.250   5.653   3.585  2.5541  0.6061 -0.0976
 5361TIP3   OH237497   6.379   3.057  10.820 -0.0143 -0.2013 -0.0961
 5361TIP3    H137498   6.429   3.128  10.779  1.6406 -0.8369  0.7314
 5361TIP3    H237499   6.398   2.980  10.767  1.2748 -0.7997  1.1677
 5362TIP3   OH237500   2.184   2.085   5.805  0.1231 -0.0908 -0.6557
 5362TIP3    H137501   2.104   2.134   5.788  0.3565  0.6244  0.2736
 5362TIP3    H237502   2.191   2.025   5.730 -2.0974 -1.2900  0.0017
 5363TIP3   OH237503   0.696   0.701  12.067  0.2874 -0.2468 -0.3887
 5363TIP3    H137504   0.678   0.684  11.975 -2.0622  0.2575 -0.0885
 5363TIP3    H237505   0.697   0.797  12.074 -0.8591 -0.2742  0.3132
 5364TIP3   OH237506   3.107   2.007  13.167 -0.1087  0.6605 -0.0672
 5364TIP3    H137507   3.030   1.983  13.219 -1.2998  1.4857 -1.4039
 5364TIP3    H237508   3.124   2.099  13.190  1.0052  0.2675  0.8132
 5365TIP3   OH237509   0.391   4.463  16.209 -0.0432 -0.3645  0.0323
 5365TIP3    H137510   0.456   4.446  16.141  0.7048 -0.7488  0.8149
 5365TIP3    H237511   0.433   4.526  16.267 -0.9767  0.5593 -0.2648
 5366TIP3   OH237512   2.911   2.928   0.818  0.2540  0.3384  0.1653
 5366TIP3    H137513   2.903   2.834   0.838  0.6826  0.4073  0.7075
 5366TIP3    H237514   2.943   2.930   0.728 -0.7562 -0.0085 -0.2168
 5367TIP3   OH237515   3.212   1.982   1.860 -0.1373 -0.1739 -0.7028
 5367TIP3    H137516   3.285   1.984   1.922 -0.2504 -1.7060 -0.4793
 5367TIP3    H237517   3.135   1.962   1.914 -0.1656 -2.0074 -1.3747
 5368TIP3   OH237518   2.503   4.621   1.801  0.3178 -0.3492  0.4397
 5368TIP3    H137519   2.467   4.536   1.775 -0.0215  0.3403 -1.5162
 5368TIP3    H237520   2.480   4.630   1.894  2.0829 -3.2257  1.2864
 5369TIP3   OH237521   0.653   2.271   3.928 -0.2743  0.9090 -0.2025
 5369TIP3    H137522   0.568   2.247   3.966 -1.7610  0.5828 -3.4026
 5369TIP3    H237523   0.717   2.249   3.996 -2.6765  0.5303  2.0768
 5370TIP3   OH237524   3.272   4.358   3.379 -0.5785 -0.3500  0.1331
 5370TIP3    H137525   3.263   4.367   3.473 -0.0271  0.0874  0.1470
 5370TIP3    H237526   3.350   4.409   3.357 -1.5220  0.7619 -0.7533
 5371TIP3   OH237527   6.712   1.862   2.695  0.6835 -0.4988 -0.1798
 5371TIP3    H137528   6.730   1.785   2.749  1.0232 -1.0651 -1.0732
 5371TIP3    H237529   6.731   1.833   2.605  0.9825  0.6825 -0.5091
 5372TIP3   OH237530   1.219   0.811  15.505  0.0962  0.0357 -0.1194
 5372TIP3    H137531   1.159   0.847  15.570  1.2575  1.5554  0.1654
 5372TIP3    H237532   1.304   0.809  15.548  0.9023  1.0855 -1.5494
 5373TIP3   OH237533   2.790   0.852  15.302 -0.5985  0.2687  0.5673
 5373TIP3    H137534   2.699   0.843  15.328 -1.0196  1.5693 -0.3483
 5373TIP3    H237535   2.837   0.785  15.353 -2.3244 -1.8140 -0.4113
 5374TIP3   OH237536   0.204   6.547   3.382  0.0467 -0.0798 -0.3020
 5374TIP3    H137537   0.270   6.517   3.445  0.9584  0.8670 -0.7787
 5374TIP3    H237538   0.238   6.519   3.297 -1.2412 -1.4672 -0.4146
 5375TIP3   OH237539   5.488   5.150  17.346  0.3523 -0.1218 -0.0578
 5375TIP3    H137540   5.498   5.054  17.348 -1.6388 -0.4437 -1.3952
 5375TIP3    H237541   5.537   5.177  17.268  0.5141 -0.1183  0.0443
 5376TIP3   OH237542   2.776   2.783  14.439 -0.7999 -0.1202 -0.2778
 5376TIP3    H137543   2.702   2.813  14.386  1.0269  2.5696 -1.5279
 5376TIP3    H237544   2.848   2.774  14.377  0.7338  0.5501  1.3233
 5377TIP3   OH237545   4.132   3.392  13.291 -0.5810 -0.8505  0.3340
 5377TIP3    H137546   4.227   3.378  13.290 -0.7066 -1.9696  1.4109
 5377TIP3    H237547   4.102   3.345  13.368 -1.9679 -0.1068  0.2748
 5378TIP3   OH237548   5.292   4.891  14.144  0.3239 -0.0376 -0.1641
 5378TIP3    H137549   5.352   4.939  14.201 -0.9812 -0.0974  1.3499
 5378TIP3    H237550   5.282   4.806  14.187 -0.8444 -0.0163 -0.3569
 5379TIP3   OH237551   2.322   4.245   1.245 -0.0961 -0.2269  0.4457
 5379TIP3    H137552   2.386   4.304   1.205 -1.0129 -0.9388 -2.2586
 5379TIP3    H237553   2.240   4.295   1.246 -0.5099 -0.8755 -0.3563
 5380TIP3   OH237554   2.142   3.572  15.075 -0.0442  0.2160 -0.8560
 5380TIP3    H137555   2.132   3.526  15.159  0.7144 -1.6270 -1.7024
 5380TIP3    H237556   2.154   3.664  15.099 -1.2249 -0.0505  0.9698
 5381TIP3   OH237557   1.841   0.948   4.952  0.2893 -0.1916  0.0018
 5381TIP3    H137558   1.867   1.033   4.917  0.8207 -0.1598  0.4513
 5381TIP3    H237559   1.864   0.952   5.045 -1.6000 -0.0822  0.4949
 5382TIP3   OH237560   2.665   2.924   0.227 -0.4402 -0.1177  0.5339
 5382TIP3    H137561   2.693   2.923   0.319  0.2992 -0.6203  0.3126
 5382TIP3    H237562   2.718   2.993   0.187  0.3594 -0.9371  0.1553
 5383TIP3   OH237563   2.753   0.854   2.087 -0.3985 -0.4839  0.5359
 5383TIP3    H137564   2.739   0.920   2.155 -3.7362 -1.8145  1.3590
 5383TIP3    H237565   2.729   0.897   2.005  2.0274  0.6123  0.2957
 5384TIP3   OH237566   4.522   1.527  13.189 -0.0203 -0.2305 -0.3982
 5384TIP3    H137567   4.576   1.456  13.155  0.2370 -0.7962  1.1094
 5384TIP3    H237568   4.584   1.582  13.238 -0.2898  0.8027 -1.1877
 5385TIP3   OH237569   2.527   6.393   0.597 -0.7216  0.2400 -0.5635
 5385TIP3    H137570   2.619   6.414   0.586 -0.4480 -1.3353 -1.5519
 5385TIP3    H237571   2.495   6.457   0.661  0.9532  1.0249 -0.4705
 5386TIP3   OH237572   6.276   1.647  12.522 -0.1647 -0.0634  0.4237
 5386TIP3    H137573   6.238   1.668  12.437  0.9434  0.1447 -0.0299
 5386TIP3    H237574   6.275   1.731  12.570 -0.6294 -0.1437  0.5588
 5387TIP3   OH237575   4.540   1.809  15.386  0.2706 -0.2255 -0.6622
 5387TIP3    H137576   4.462   1.764  15.356  0.8330 -1.8430  0.1638
 5387TIP3    H237577   4.604   1.796  15.316  0.4174 -0.7217 -0.4458
 5388TIP3   OH237578   1.384   6.015   1.569  0.5415 -0.2371 -0.1839
 5388TIP3    H137579   1.451   6.025   1.636  1.0525  2.1756 -0.9771
 5388TIP3    H237580   1.301   6.013   1.617  1.0057 -0.3349  0.6216
 5389TIP3   OH237581   1.876   4.024   6.159  0.3438 -0.5754 -0.7213
 5389TIP3    H137582   1.862   4.041   6.066  0.6716  1.0297 -0.5078
 5389TIP3    H237583   1.966   4.055   6.175  0.7056 -1.8685 -0.0885
 5390TIP3   OH237584   6.102   6.553   5.457 -0.0992  0.0865  0.2297
 5390TIP3    H137585   6.080   6.496   5.531 -1.8325  0.6409  0.1884
 5390TIP3    H237586   6.194   6.534   5.439  0.7048  0.6543  3.1403
 5391TIP3   OH237587   1.712   1.369   5.067 -0.1775  0.0801  0.6201
 5391TIP3    H137588   1.651   1.435   5.035 -0.9776 -0.4435  1.0446
 5391TIP3    H237589   1.693   1.362   5.161  2.1845  1.6697  1.3247
 5392TIP3   OH237590   2.037   2.460   4.794  0.6728 -0.3956 -0.8080
 5392TIP3    H137591   2.126   2.488   4.773 -0.3139  1.3005 -3.0903
 5392TIP3    H237592   2.014   2.397   4.725  0.2065 -1.1252 -0.0133
 5393TIP3   OH237593   6.495   2.885   0.123  0.2213 -1.2012 -0.1783
 5393TIP3    H137594   6.420   2.922   0.076  0.8207  0.7491  0.2861
 5393TIP3    H237595   6.456   2.826   0.188 -0.7728 -1.6988 -1.1783
 5394TIP3   OH237596   3.002   2.160  14.650 -0.3682  0.1065  0.4514
 5394TIP3    H137597   3.014   2.069  14.620 -3.2319 -0.7276  1.4654
 5394TIP3    H237598   3.085   2.183  14.691  2.3690 -0.0795 -4.2554
 5395TIP3   OH237599   3.222   6.661  11.642  0.1528  0.0007  0.0271
 5395TIP3    H137600   3.201   6.689  11.731 -2.7528 -0.3826 -0.4666
 5395TIP3    H237601   3.179   6.577  11.632 -1.1945  0.8884 -2.3165
 5396TIP3   OH237602   1.714   4.970   4.846  0.6473  0.5617 -0.1881
 5396TIP3    H137603   1.623   4.982   4.818  0.7669  0.4187 -0.6533
 5396TIP3    H237604   1.729   4.876   4.839  0.3085  0.3546  1.5752
 5397TIP3   OH237605   4.639   6.736  12.561 -0.0514 -0.0906  0.4455
 5397TIP3    H137606   4.565   6.766  12.509 -0.5061 -0.6224  0.7660
 5397TIP3    H237607   4.619   6.766  12.650 -0.5258 -1.3326  0.7741
 5398TIP3   OH237608   2.896   4.605   4.585 -0.1405  0.4429  0.0731
 5398TIP3    H137609   2.871   4.616   4.676 -2.9976  1.3135 -0.7219
 5398TIP3    H237610   2.900   4.694   4.550  0.6724  0.1044 -0.7325
 5399TIP3   OH237611   3.889   2.975   6.473  0.6347 -0.4852 -0.3970
 5399TIP3    H137612   3.795   2.971   6.490  1.1686 -0.7166  3.4878
 5399TIP3    H237613   3.916   2.883   6.465  0.7810 -0.5670  0.7944
 5400TIP3   OH237614   3.723   1.348   3.740  0.8718 -0.7229 -0.0067
 5400TIP3    H137615   3.637   1.322   3.772  0.0158 -0.7792 -2.2461
 5400TIP3    H237616   3.783   1.325   3.812 -0.8606 -1.2801  1.3251
 5401TIP3   OH237617   5.199   5.176   0.547  0.4301 -0.2706 -0.1065
 5401TIP3    H137618   5.291   5.178   0.520  1.7876 -0.9971  3.7980
 5401TIP3    H237619   5.168   5.089   0.519  1.2509 -0.4339 -0.5526
 5402TIP3   OH237620   3.566   2.985  16.413 -0.3900  0.2190 -0.7419
 5402TIP3    H137621   3.619   2.948  16.483 -1.1042  1.2970  0.4129
 5402TIP3    H237622   3.609   3.068  16.392  0.0849 -0.3089 -1.9292
 5403TIP3   OH237623   3.375   4.708  16.562  0.5033  0.1090 -0.8608
 5403TIP3    H137624   3.324   4.655  16.624 -0.1515  2.1142  0.4159
 5403TIP3    H237625   3.315   4.721  16.488  0.0046  0.4862 -0.4046
 5404TIP3   OH237626   5.979   5.677   2.184 -0.0251 -0.2181  0.4060
 5404TIP3    H137627   6.063   5.717   2.206 -0.9954  0.8407  2.5267
 5404TIP3    H237628   5.914   5.744   2.208 -1.5727 -1.9238  1.2065
 5405TIP3   OH237629   5.196   1.560  15.304  0.3262 -0.3019  0.2023
 5405TIP3    H137630   5.182   1.549  15.210 -0.3984  2.5528 -0.1211
 5405TIP3    H237631   5.115   1.529  15.344 -0.1199  0.1823 -0.2946
 5406TIP3   OH237632   2.526   6.068  11.524 -1.0928  0.1184  0.3589
 5406TIP3    H137633   2.513   6.128  11.598 -1.5673 -0.6155  0.8935
 5406TIP3    H237634   2.495   6.117  11.448 -0.0434  1.1043  0.5386
 5407TIP3   OH237635   5.115   1.977  11.997 -0.3280 -0.0445  0.0204
 5407TIP3    H137636   5.182   1.971  12.065  0.6234 -1.4683 -0.9836
 5407TIP3    H237637   5.149   1.924  11.925 -0.7881  2.2723 -2.0320
 5408TIP3   OH237638   3.248   1.115   3.077  0.1434 -0.2331 -0.1419
 5408TIP3    H137639   3.194   1.036   3.082  2.6562 -2.0746  0.0494
 5408TIP3    H237640   3.317   1.102   3.142  0.9661  1.8788 -0.4907
 5409TIP3   OH237641   3.694   5.223  16.221  0.4046  0.1306 -0.0893
 5409TIP3    H137642   3.669   5.304  16.177 -0.5813  0.1212  0.4420
 5409TIP3    H237643   3.724   5.250  16.308 -0.7551 -0.1351  0.4107
 5410TIP3   OH237644   0.706   3.668   0.184 -0.8605  0.1461 -0.5998
 5410TIP3    H137645   0.794   3.632   0.187 -1.1325 -0.5216  1.7222
 5410TIP3    H237646   0.662   3.621   0.114  0.7109  0.8223 -2.1151
 5411TIP3   OH237647   3.408   3.726   2.964  0.1613 -0.4225 -0.0640
 5411TIP3    H137648   3.369   3.806   2.931  1.1795  0.1471  0.0819
 5411TIP3    H237649   3.481   3.708   2.905  0.8776 -0.3937  0.7953
 5412TIP3   OH237650   3.378   0.617  16.718  0.0101  0.0511  0.8511
 5412TIP3    H137651   3.443   0.635  16.786 -0.8577  0.1960  1.6625
 5412TIP3    H237652   3.423   0.559  16.657  0.8059 -0.0869  1.5458
 5413TIP3   OH237653   5.427   4.511   2.246  0.2212 -0.6304 -0.4233
 5413TIP3    H137654   5.373   4.514   2.325  1.1466  1.6717  0.1945
 5413TIP3    H237655   5.507   4.466   2.273  0.1556 -0.6743 -0.3040
 5414TIP3   OH237656   0.946   3.315  12.422  0.1153  0.2413 -0.4667
 5414TIP3    H137657   0.993   3.350  12.499 -0.7175  0.5653 -0.0971
 5414TIP3    H237658   0.905   3.235  12.454  0.3783 -0.0209 -0.7830
 5415TIP3   OH237659   3.748   2.161  14.246  0.1855  0.0201 -0.2016
 5415TIP3    H137660   3.764   2.172  14.340  1.0843 -1.8656 -0.0745
 5415TIP3    H237661   3.653   2.175  14.236  0.0542  0.1216  1.0050
 5416TIP3   OH237662   1.005   6.046   3.752 -0.0422 -0.2062  0.2681
 5416TIP3    H137663   0.991   6.135   3.721 -2.1781 -0.6168 -0.1166
 5416TIP3    H237664   1.100   6.035   3.752  0.2289  1.7436 -0.5669
 5417TIP3   OH237665   6.350   4.666  10.968 -0.5306 -0.4806 -0.3703
 5417TIP3    H137666   6.278   4.609  10.993 -0.5886  0.0831  0.8177
 5417TIP3    H237667   6.425   4.607  10.958 -1.0936 -1.0370 -1.4074
 5418TIP3   OH237668   4.073   2.401  13.693  0.1928 -0.1475 -0.2845
 5418TIP3    H137669   4.089   2.477  13.637  0.7931  0.0346  0.1219
 5418TIP3    H237670   4.111   2.327  13.644  0.6487 -0.0011 -0.1615
 5419TIP3   OH237671   0.922   6.145  13.345 -0.7377  0.5683  0.2477
 5419TIP3    H137672   1.004   6.154  13.394  0.8416  0.1205 -2.1555
 5419TIP3    H237673   0.882   6.232  13.350  0.0976  0.9196  1.0937
 5420TIP3   OH237674   6.542   2.620   0.160 -0.0715  0.3611  0.2653
 5420TIP3    H137675   6.614   2.599   0.220  0.2775  1.3910  0.2260
 5420TIP3    H237676   6.538   2.545   0.101 -0.4106 -0.6685  1.5501
 5421TIP3   OH237677   4.076   3.053   0.400 -0.3232 -0.0426 -0.3657
 5421TIP3    H137678   4.012   2.993   0.361 -0.5324  0.6694 -1.1415
 5421TIP3    H237679   4.149   3.054   0.338  0.4202 -0.7648  0.4621
 5422TIP3   OH237680   6.533   5.884  15.814  0.3601 -0.1036 -0.1443
 5422TIP3    H137681   6.497   5.959  15.768  0.5004  0.8676  1.2702
 5422TIP3    H237682   6.608   5.918  15.862  0.2677 -1.0838  0.7381
 5423TIP3   OH237683   2.862   1.599   2.687  0.0920 -0.0844  0.0217
 5423TIP3    H137684   2.778   1.555   2.702  0.5665 -0.4324  2.0031
 5423TIP3    H237685   2.922   1.558   2.750  1.0137  2.1559  0.6883
 5424TIP3   OH237686   0.321   5.981  11.275 -0.3299 -0.7274 -0.2594
 5424TIP3    H137687   0.347   5.896  11.240 -0.7018 -0.6222 -0.8063
 5424TIP3    H237688   0.401   6.018  11.313 -0.1742 -1.3273  0.0060
 5425TIP3   OH237689   4.853   1.674   5.927 -0.4513 -0.0879 -0.3226
 5425TIP3    H137690   4.780   1.631   5.972  0.3542 -0.0862  1.0385
 5425TIP3    H237691   4.913   1.603   5.905  1.0014  0.2381  2.1535
 5426TIP3   OH237692   0.304   2.946  13.375  0.0069  0.4679  0.0689
 5426TIP3    H137693   0.376   3.008  13.384  0.1840  0.7549 -2.4826
 5426TIP3    H237694   0.225   2.998  13.389  0.2039  0.9698 -0.6342
 5427TIP3   OH237695   3.437   0.985   3.254 -0.4049  0.2426 -0.6866
 5427TIP3    H137696   3.407   0.976   3.345 -1.3655 -0.1558 -1.0350
 5427TIP3    H237697   3.519   0.936   3.251  0.3689  1.3904  0.2962
 5428TIP3   OH237698   5.692   6.375   4.400  0.2587  0.3827 -0.0590
 5428TIP3    H137699   5.749   6.331   4.463  0.1737 -0.4876 -0.5744
 5428TIP3    H237700   5.736   6.365   4.316  0.1169  1.0807 -0.2245
 5429TIP3   OH237701   4.514   1.693  15.729  0.5111  0.6948 -0.6604
 5429TIP3    H137702   4.509   1.622  15.794  0.4696  0.4991 -0.8770
 5429TIP3    H237703   4.482   1.654  15.648  0.7321  0.8885 -0.8415
 5430TIP3   OH237704   4.981   6.611   4.192  0.3845 -0.2458  0.5436
 5430TIP3    H137705   4.908   6.551   4.209 -2.4319  2.0130 -2.1290
 5430TIP3    H237706   5.023   6.576   4.114  1.3128 -0.8112  1.2872
 5431TIP3   OH237707   0.798   0.902   3.841 -0.5031 -0.1458 -0.1152
 5431TIP3    H137708   0.762   0.817   3.816 -0.5582  0.3861 -1.9380
 5431TIP3    H237709   0.857   0.925   3.769 -0.5555  1.4048  0.3158
 5432TIP3   OH237710   3.258   5.830  13.130  0.8152 -0.0708 -0.1277
 5432TIP3    H137711   3.273   5.745  13.089  0.9441  1.5923 -3.9978
 5432TIP3    H237712   3.163   5.834  13.144  0.8106 -0.8127  0.0810
 5433TIP3   OH237713   3.476   3.362  10.733  0.3139  0.2568  0.4242
 5433TIP3    H137714   3.419   3.292  10.765 -1.3874  1.6572  0.5492
 5433TIP3    H237715   3.439   3.386  10.648  0.7343  1.1978  0.5019
 5434TIP3   OH237716   3.343   3.552   1.001 -0.1557  0.6272  0.6435
 5434TIP3    H137717   3.261   3.601   0.991 -0.8224 -0.5648  0.0258
 5434TIP3    H237718   3.390   3.598   1.070 -1.3833  1.2946  1.0717
 5435TIP3   OH237719   5.846   5.252  13.601  0.2516  0.5842 -0.1330
 5435TIP3    H137720   5.913   5.231  13.535 -0.7179  0.6215 -1.1717
 5435TIP3    H237721   5.805   5.332  13.568 -0.2959  0.5623  0.4860
 5436TIP3   OH237722   5.485   4.259  13.138 -0.5620  0.1249 -0.4779
 5436TIP3    H137723   5.548   4.272  13.209 -0.7021  0.5480 -0.4273
 5436TIP3    H237724   5.402   4.290  13.174 -0.7918 -0.3811 -0.5619
 5437TIP3   OH237725   1.237   2.451  10.671  0.9558 -0.7835  0.2993
 5437TIP3    H137726   1.149   2.437  10.636  1.6913 -0.6820 -1.7399
 5437TIP3    H237727   1.238   2.543  10.698  0.7791 -0.4430 -0.8103
 5438TIP3   OH237728   4.048   1.056   2.982  0.8007  0.2579 -0.2006
 5438TIP3    H137729   4.135   1.019   2.995  0.3781 -0.4023  0.9314
 5438TIP3    H237730   4.034   1.112   3.058 -0.0675 -0.2859  0.0629
 5439TIP3   OH237731   3.170   2.839   6.340  0.2162 -0.2173 -0.5239
 5439TIP3    H137732   3.261   2.809   6.337 -0.2263 -1.5512 -2.8698
 5439TIP3    H237733   3.166   2.911   6.276 -0.1732  0.5362  0.3245
 5440TIP3   OH237734   0.276   0.293   1.814  0.5746  0.3471 -0.6982
 5440TIP3    H137735   0.233   0.364   1.861  0.6389 -1.4589  2.3597
 5440TIP3    H237736   0.346   0.336   1.765  1.6923  2.3267  2.3230
 5441TIP3   OH237737   3.885   2.298  12.691  0.2408 -0.3594  0.2687
 5441TIP3    H137738   3.933   2.295  12.774 -0.3699  1.9319  0.7507
 5441TIP3    H237739   3.799   2.260  12.711  0.4074 -0.6410  0.4502
 5442TIP3   OH237740   5.809   3.195   0.692  0.3703 -0.0801  0.2555
 5442TIP3    H137741   5.767   3.249   0.625 -0.9402  1.2205  2.0176
 5442TIP3    H237742   5.773   3.107   0.678 -1.5698  0.6237  0.5539
 5443TIP3   OH237743   3.288   5.991  14.017 -0.1104 -0.3286 -0.1841
 5443TIP3    H137744   3.362   6.007  13.959 -1.1469  2.2920 -0.9001
 5443TIP3    H237745   3.268   5.898  14.004  1.9508 -0.6894 -1.2453
 5444TIP3   OH237746   0.223   1.482  16.295 -0.0921  0.3063 -0.3511
 5444TIP3    H137747   0.262   1.522  16.217 -0.5732  0.7722 -0.3600
 5444TIP3    H237748   0.162   1.548  16.328 -1.0649 -0.5013 -0.4866
 5445TIP3   OH237749   2.304   3.918   6.368  0.3222 -0.5787 -0.1508
 5445TIP3    H137750   2.355   3.958   6.438 -1.2890 -1.8931  1.9088
 5445TIP3    H237751   2.337   3.828   6.363 -1.1337 -1.2147  0.6759
 5446TIP3   OH237752   0.908   6.190  14.086 -0.0034  0.1025 -0.1593
 5446TIP3    H137753   0.965   6.115  14.104 -0.9064 -0.9041 -1.3036
 5446TIP3    H237754   0.901   6.236  14.170  0.9794 -0.7888  0.4413
 5447TIP3   OH237755   5.768   5.915  13.875 -0.1221  0.2427 -0.3735
 5447TIP3    H137756   5.820   5.995  13.888 -0.1153 -0.1812  2.9585
 5447TIP3    H237757   5.691   5.945  13.827 -0.0637  2.2723  0.6693
 5448TIP3   OH237758   0.532   4.233  14.307 -0.3461  0.4578 -0.4203
 5448TIP3    H137759   0.517   4.214  14.400  2.0567  0.9642  0.1299
 5448TIP3    H237760   0.512   4.326  14.298 -0.4206  0.4457 -0.3782
 5449TIP3   OH237761   4.437   6.761  16.449  0.6009 -0.0910  0.3390
 5449TIP3    H137762   4.482   6.726  16.525  0.5824 -0.1212  0.3356
 5449TIP3    H237763   4.344   6.758  16.472  0.6896  2.1230  1.2812
 5450TIP3   OH237764   1.995   6.538  15.736  0.3852 -0.4095  0.0228
 5450TIP3    H137765   1.968   6.469  15.676  1.2100 -0.8476  0.1419
 5450TIP3    H237766   1.992   6.618  15.684 -1.9257 -0.2743  0.2399
 5451TIP3   OH237767   2.814   0.537   0.227 -0.5575  0.9766  0.4577
 5451TIP3    H137768   2.907   0.533   0.202 -0.1403 -0.9023  2.0503
 5451TIP3    H237769   2.767   0.532   0.144  0.7542  0.3530 -0.2959
 5452TIP3   OH237770   1.359   5.580   1.321  0.4596 -0.5502 -0.3836
 5452TIP3    H137771   1.442   5.620   1.347 -0.3327  2.0551 -1.4616
 5452TIP3    H237772   1.339   5.516   1.389  1.8305  1.0034  1.5709
 5453TIP3   OH237773   6.452   0.436  15.392  0.2324 -0.3075 -0.0302
 5453TIP3    H137774   6.468   0.490  15.469 -0.4879 -0.7696  0.4512
 5453TIP3    H237775   6.469   0.494  15.318 -0.5563  0.5845  0.4738
 5454TIP3   OH237776   0.934   5.911  15.227 -0.1266 -0.0083  0.0217
 5454TIP3    H137777   0.941   5.987  15.286  1.6234 -0.2237  0.1456
 5454TIP3    H237778   0.967   5.838  15.279 -2.1659 -0.9944  0.0457
 5455TIP3   OH237779   2.477   6.743  12.279  0.0384  0.1224  0.2474
 5455TIP3    H137780   2.419   6.816  12.255  2.2277  1.9865  0.2039
 5455TIP3    H237781   2.534   6.780  12.347 -0.7313 -2.5483  2.4988
 5456TIP3   OH237782   1.438   3.527   0.971 -0.4762  0.6208  0.8156
 5456TIP3    H137783   1.496   3.577   1.029  0.9638 -1.1574  0.9918
 5456TIP3    H237784   1.355   3.523   1.018 -0.5404  2.5412  0.9336
 5457TIP3   OH237785   5.435   3.807   2.440 -0.5407  0.5000 -0.0016
 5457TIP3    H137786   5.434   3.832   2.347  0.7476 -1.1465 -0.5096
 5457TIP3    H237787   5.409   3.715   2.440  2.5148 -0.4685  0.8760
 5458TIP3   OH237788   2.359   0.389   4.305 -0.7128  0.1729 -0.5389
 5458TIP3    H137789   2.342   0.396   4.399 -2.2205  0.2535 -0.7913
 5458TIP3    H237790   2.454   0.400   4.297 -0.5452  0.1013  0.9701
 5459TIP3   OH237791   5.364   0.271   1.492 -0.6138 -0.0077 -0.2584
 5459TIP3    H137792   5.279   0.297   1.528 -0.3118 -0.1397  0.5712
 5459TIP3    H237793   5.405   0.220   1.561  0.3430  0.4523 -0.4669
 5460TIP3   OH237794   3.182   5.281  15.680 -0.2381 -0.2491  0.0531
 5460TIP3    H137795   3.219   5.368  15.695 -1.5156  0.2199  0.6764
 5460TIP3    H237796   3.203   5.232  15.759 -1.2173  0.1400  0.5815
 5461TIP3   OH237797   1.770   5.135   1.310  0.3087  0.6028  1.0569
 5461TIP3    H137798   1.786   5.041   1.305  0.4198  0.6549  0.0988
 5461TIP3    H237799   1.778   5.157   1.402 -0.7835 -0.5154  1.4412
 5462TIP3   OH237800   4.654   2.380  16.670  0.3539  0.2001 -0.1155
 5462TIP3    H137801   4.706   2.449  16.712  1.0335  0.8023 -1.8763
 5462TIP3    H237802   4.571   2.380  16.718  1.0474  0.9255  1.1372
 5463TIP3   OH237803   5.387   4.302  14.560 -0.1362 -0.0681 -0.3416
 5463TIP3    H137804   5.479   4.295  14.535 -0.6177  0.3318 -2.4315
 5463TIP3    H237805   5.356   4.212  14.567  0.1729 -0.1982 -0.6429
 5464TIP3   OH237806   2.953   1.442  11.150  0.1004  1.2400  0.2347
 5464TIP3    H137807   2.867   1.481  11.165 -0.6036 -0.1412  0.0350
 5464TIP3    H237808   2.957   1.427  11.056 -0.3717 -0.6302  0.4645
 5465TIP3   OH237809   6.557   0.880   3.454 -0.8780  0.7201  0.4782
 5465TIP3    H137810   6.599   0.794   3.439  1.0488  1.4784  1.1614
 5465TIP3    H237811   6.467   0.859   3.475 -0.3770 -1.1797  0.9695
 5466TIP3   OH237812   1.242   6.730   0.617 -0.7982 -0.4408 -0.6699
 5466TIP3    H137813   1.243   6.810   0.564  1.0322 -0.8635 -1.3810
 5466TIP3    H237814   1.192   6.753   0.695  1.7225  2.2311  0.3427
 5467TIP3   OH237815   2.168   0.515   4.160 -0.0540 -0.3786  0.0044
 5467TIP3    H137816   2.110   0.533   4.234  0.5469  1.4085  0.0757
 5467TIP3    H237817   2.238   0.461   4.196 -1.8933 -3.1315 -0.2086
 5468TIP3   OH237818   5.366   4.932  12.150  0.2202 -0.4730 -0.1596
 5468TIP3    H137819   5.347   5.024  12.164 -0.2042 -0.6204  0.2802
 5468TIP3    H237820   5.437   4.912  12.211  1.1323 -0.1618 -1.0941
 5469TIP3   OH237821   1.195   5.524  15.786  0.0302 -0.3604  0.0190
 5469TIP3    H137822   1.208   5.617  15.806 -1.7653 -0.0718  0.0603
 5469TIP3    H237823   1.270   5.480  15.825 -0.0946  0.8743  1.7930
 5470TIP3   OH237824   2.552   0.503   5.538 -0.5031  0.0886  0.1273
 5470TIP3    H137825   2.470   0.458   5.558  0.0317 -1.4088 -0.8706
 5470TIP3    H237826   2.602   0.440   5.485  0.2999  1.8601 -1.3494
 5471TIP3   OH237827   6.181   4.278   4.228 -0.4951  0.5216 -0.4762
 5471TIP3    H137828   6.203   4.304   4.318 -0.3860 -2.7713  0.5794
 5471TIP3    H237829   6.090   4.250   4.233 -0.0543 -1.1329 -0.9488
 5472TIP3   OH237830   1.008   2.025   1.277 -0.2964  0.2250  0.2679
 5472TIP3    H137831   0.946   2.095   1.296 -1.0645 -0.3765  0.0527
 5472TIP3    H237832   1.094   2.066   1.283 -0.7624  1.4516 -0.9314
 5473TIP3   OH237833   4.208   0.563   3.158 -0.1809  0.2043 -0.5536
 5473TIP3    H137834   4.174   0.602   3.078 -1.1224 -2.2066 -1.4421
 5473TIP3    H237835   4.302   0.557   3.144 -0.2591  0.4250 -1.1864
 5474TIP3   OH237836   0.581   0.493  12.265 -0.1480  0.4620 -0.2106
 5474TIP3    H137837   0.637   0.566  12.236  1.0068 -0.5586 -0.6084
 5474TIP3    H237838   0.502   0.536  12.297  0.5141  1.9050 -0.4104
 5475TIP3   OH237839   0.955   0.090  16.905  0.1179  0.0240 -0.0665
 5475TIP3    H137840   0.940   0.179  16.874  1.4319  0.5296  0.6487
 5475TIP3    H237841   0.870   0.061  16.937 -0.4947  0.7352 -0.9747
 5476TIP3   OH237842   0.394   6.486  10.836  0.1763 -0.0829  0.3014
 5476TIP3    H137843   0.340   6.502  10.913  0.1371  0.2843  0.1993
 5476TIP3    H237844   0.333   6.452  10.770  0.1726 -0.1952  0.3613
 5477TIP3   OH237845   2.203   5.348  14.460  0.0873  0.2341  0.2573
 5477TIP3    H137846   2.145   5.275  14.436 -0.4976  0.2524  1.5413
 5477TIP3    H237847   2.228   5.330  14.551  3.6994 -0.7830 -0.7781
 5478TIP3   OH237848   4.536   2.437   2.176 -0.4346 -0.1855 -0.2518
 5478TIP3    H137849   4.500   2.357   2.213  2.4987 -0.9212  1.3108
 5478TIP3    H237850   4.578   2.408   2.094 -2.3642  0.4807 -1.5427
 5479TIP3   OH237851   1.562   1.635  11.423 -0.6503  0.5492 -0.1843
 5479TIP3    H137852   1.556   1.630  11.328  2.3028 -2.3140 -0.4088
 5479TIP3    H237853   1.477   1.605  11.455 -1.2148  0.2299 -1.9100
 5480TIP3   OH237854   4.214   6.385  12.255 -0.5076 -0.4021 -0.1023
 5480TIP3    H137855   4.308   6.392  12.242 -0.6196 -0.3103 -0.8857
 5480TIP3    H237856   4.204   6.311  12.316 -0.0298 -1.8500 -1.6878
 5481TIP3   OH237857   3.402   2.320  10.885  0.0038  0.1393 -0.3541
 5481TIP3    H137858   3.335   2.362  10.831  0.1253  0.3918 -0.3095
 5481TIP3    H237859   3.484   2.339  10.839  0.2703  1.4865  0.6000
 5482TIP3   OH237860   2.232   0.227  11.232  0.6413 -0.4522  0.8014
 5482TIP3    H137861   2.308   0.281  11.255  1.1463 -0.3719 -0.9596
 5482TIP3    H237862   2.157   0.285  11.244  1.1765  0.7555 -1.1831
 5483TIP3   OH237863   3.461   3.238  15.114 -0.0543  1.1143 -0.4292
 5483TIP3    H137864   3.399   3.165  15.111  1.7305 -0.4464 -1.0290
 5483TIP3    H237865   3.432   3.291  15.188 -0.1835 -1.3746  1.4105
 5484TIP3   OH237866   3.139   4.697   2.573 -0.3783 -0.3059 -0.1716
 5484TIP3    H137867   3.162   4.673   2.664 -0.3850  0.1697 -0.0450
 5484TIP3    H237868   3.127   4.613   2.530  0.8249 -0.5760 -0.0388
 5485TIP3   OH237869   2.459   5.729   3.055  0.4434  0.1994  0.1792
 5485TIP3    H137870   2.412   5.742   2.973  2.6570 -0.1273 -1.2411
 5485TIP3    H237871   2.527   5.665   3.034  0.4733 -0.6390  2.5513
 5486TIP3   OH237872   0.891   0.311  14.545  0.2087 -0.5677  0.3682
 5486TIP3    H137873   0.947   0.307  14.468  0.1542 -0.2001  0.3030
 5486TIP3    H237874   0.939   0.266  14.613  0.2363 -0.9381  0.1032
 5487TIP3   OH237875   6.646   2.240   6.467  0.4835  0.0975  0.5968
 5487TIP3    H137876   6.614   2.150   6.477  0.0246  0.2196  0.2261
 5487TIP3    H237877   6.662   2.269   6.557 -1.7286  0.4908  0.9235
 5488TIP3   OH237878   4.753   3.071  13.878 -0.2226  0.1693  0.4504
 5488TIP3    H137879   4.776   2.979  13.864 -0.2900  0.1655  0.3596
 5488TIP3    H237880   4.755   3.109  13.790  1.2293  0.5910  0.6476
 5489TIP3   OH237881   0.809   4.711   0.383 -0.2682  0.2920  0.1049
 5489TIP3    H137882   0.837   4.637   0.436 -1.9821 -0.7594 -0.3769
 5489TIP3    H237883   0.879   4.776   0.393  0.4447 -0.6880  1.9396
 5490TIP3   OH237884   5.662   4.752  11.133 -0.0401  0.2708  0.7184
 5490TIP3    H137885   5.573   4.787  11.132  0.1517  0.7889 -0.8797
 5490TIP3    H237886   5.651   4.657  11.137 -0.7262  0.2465 -0.9846
 5491TIP3   OH237887   1.509   0.354   3.147 -0.0862  0.3058  0.6218
 5491TIP3    H137888   1.515   0.433   3.201 -0.5204  1.6743 -1.1968
 5491TIP3    H237889   1.599   0.323   3.139  0.0476  0.4130  1.6280
 5492TIP3   OH237890   4.441   5.879  15.052 -0.1580 -0.1341 -0.6143
 5492TIP3    H137891   4.470   5.969  15.039  0.1086 -0.1053  0.1592
 5492TIP3    H237892   4.518   5.833  15.086 -0.5275 -0.4557 -0.2028
 5493TIP3   OH237893   6.170   6.538  11.749 -0.2134 -1.1030 -0.3924
 5493TIP3    H137894   6.256   6.503  11.724  1.3572  1.0590  1.5426
 5493TIP3    H237895   6.189   6.626  11.782 -2.9098 -1.2345  1.8815
 5494TIP3   OH237896   0.469   2.999  16.161  0.2332 -0.3579 -0.0266
 5494TIP3    H137897   0.437   2.944  16.089  0.2500 -0.2379 -0.1275
 5494TIP3    H237898   0.508   2.938  16.223 -0.4199 -0.5360  0.2192
 5495TIP3   OH237899   2.256   0.577   2.922  0.2945 -0.5562 -0.4386
 5495TIP3    H137900   2.201   0.536   2.989 -0.4100 -0.2452 -0.8170
 5495TIP3    H237901   2.283   0.505   2.865  0.7241 -0.7891  0.0506
 5496TIP3   OH237902   6.444   5.800  14.023  0.2290 -0.0851 -0.0079
 5496TIP3    H137903   6.456   5.718  13.975 -2.7808  0.5920 -2.2233
 5496TIP3    H237904   6.515   5.856  13.994 -1.0395  0.0401 -3.3493
 5497TIP3   OH237905   4.716   2.484  11.351 -0.4898 -0.4518 -0.1593
 5497TIP3    H137906   4.680   2.546  11.288  0.6621  0.4575  0.0384
 5497TIP3    H237907   4.661   2.407  11.343 -1.2097  0.1508 -1.2892
 5498TIP3   OH237908   5.504   3.961  15.174 -0.7238  0.0196  0.4572
 5498TIP3    H137909   5.466   4.045  15.199  1.6974  1.2609  0.2688
 5498TIP3    H237910   5.573   3.946  15.238  2.0494  0.6251 -2.1292
 5499TIP3   OH237911   3.219   5.058  16.301 -0.3998  0.0354  0.4177
 5499TIP3    H137912   3.279   5.082  16.230  0.3976 -2.5866  0.1226
 5499TIP3    H237913   3.266   5.084  16.381 -0.3260  0.9648  0.0884
 5500TIP3   OH237914   3.696   4.229   0.986 -0.4461 -0.2386  0.3863
 5500TIP3    H137915   3.701   4.187   1.072 -2.1681 -1.2676  0.0390
 5500TIP3    H237916   3.731   4.163   0.925  0.5801  0.4082  0.2574
 5501TIP3   OH237917   0.486   4.953  17.041 -0.4628 -0.3177  0.2057
 5501TIP3    H137918   0.443   4.945  17.126 -0.0910  0.0745  0.4339
 5501TIP3    H237919   0.519   5.043  17.039 -1.1488 -0.0699 -0.6783
 5502TIP3   OH237920   0.937   6.542  14.792  0.4527 -0.0247  0.6061
 5502TIP3    H137921   0.950   6.518  14.700  3.1928  0.3710  0.7970
 5502TIP3    H237922   0.842   6.553  14.801  0.1606  0.7728 -2.3721
 5503TIP3   OH237923   1.424   3.832   0.158 -0.3870 -0.4288  0.7020
 5503TIP3    H137924   1.399   3.740   0.149  0.7200 -0.7879  1.0867
 5503TIP3    H237925   1.416   3.868   0.070  0.6504 -1.3043  0.2195
 5504TIP3   OH237926   5.093   1.570   0.956  0.3758  0.3092 -0.2276
 5504TIP3    H137927   5.132   1.491   0.991 -0.4599  0.1554  0.3953
 5504TIP3    H237928   5.144   1.590   0.878  0.2044 -1.1991 -0.7484
 5505TIP3   OH237929   2.571   2.291  13.896 -0.3053  0.1245 -0.1548
 5505TIP3    H137930   2.624   2.229  13.945 -2.7237 -1.7935  0.2672
 5505TIP3    H237931   2.481   2.274  13.926 -1.3308  2.2795 -1.7291
 5506TIP3   OH237932   0.097   2.886   5.871  0.3567 -0.5146 -0.0118
 5506TIP3    H137933   0.057   2.914   5.953  0.5683  0.6920 -0.2978
 5506TIP3    H237934   0.041   2.814   5.840 -1.2817  0.7526 -0.1176
 5507TIP3   OH237935   3.618   5.751  13.199  0.0835 -0.3049  0.2661
 5507TIP3    H137936   3.533   5.715  13.221 -0.8239  1.3667 -0.3310
 5507TIP3    H237937   3.668   5.748  13.281 -1.2505  0.5192  1.1456
 5508TIP3   OH237938   4.050   5.548  13.885  0.0864  0.0306 -0.1516
 5508TIP3    H137939   4.136   5.577  13.917 -0.1328 -0.2643  0.7181
 5508TIP3    H237940   4.055   5.452  13.888  0.5612 -0.0796 -2.3509
 5509TIP3   OH237941   0.206   3.096  11.298  0.2492 -0.2541  0.0069
 5509TIP3    H137942   0.186   3.173  11.351  0.5357  1.0939 -1.7651
 5509TIP3    H237943   0.156   3.025  11.339 -0.3907  0.9656  1.4067
 5510TIP3   OH237944   4.285   3.460   3.756  0.1555  0.0149 -0.0846
 5510TIP3    H137945   4.204   3.468   3.705  0.2987 -6.1810 -2.1036
 5510TIP3    H237946   4.355   3.482   3.694  0.1584  0.1397 -0.0378
 5511TIP3   OH237947   5.919   4.071   3.636  0.3227 -0.4401 -0.1224
 5511TIP3    H137948   5.834   4.045   3.672 -0.2846 -0.1450 -1.3066
 5511TIP3    H237949   5.898   4.137   3.569  1.6977  2.2050  1.8560
 5512TIP3   OH237950   2.308   1.939   5.295  0.4959 -0.0053 -0.1518
 5512TIP3    H137951   2.356   1.989   5.360 -2.1441 -0.6636  2.4893
 5512TIP3    H237952   2.313   1.849   5.326  0.6152 -0.6349 -1.8731
 5513TIP3   OH237953   1.543   4.190   6.001  0.0073 -0.4968 -0.2503
 5513TIP3    H137954   1.552   4.279   6.032 -2.0452 -0.9763  2.0019
 5513TIP3    H237955   1.555   4.135   6.078 -2.1404 -1.9516 -0.8301
 5514TIP3   OH237956   5.368   6.771  13.261 -0.2890  0.3991 -0.2327
 5514TIP3    H137957   5.322   6.842  13.305  0.7447  0.0592  1.4423
 5514TIP3    H237958   5.359   6.791  13.168 -2.5517  1.1133  0.0872
 5515TIP3   OH237959   3.416   2.695  16.802 -0.4850  0.7524 -0.4063
 5515TIP3    H137960   3.420   2.756  16.876 -0.4343 -0.0394  0.2602
 5515TIP3    H237961   3.503   2.655  16.799 -0.9120 -0.2446  0.0129
 5516TIP3   OH237962   5.337   5.090   1.806  0.4272  0.2565  0.6188
 5516TIP3    H137963   5.331   5.166   1.864 -0.2745  1.2600 -0.7095
 5516TIP3    H237964   5.253   5.046   1.815 -0.7684  1.9032 -1.5227
 5517TIP3   OH237965   1.219   4.281   4.871  0.4535 -0.3249 -0.6142
 5517TIP3    H137966   1.174   4.201   4.844  0.2127 -0.2927 -0.3040
 5517TIP3    H237967   1.149   4.342   4.894  0.6530 -0.4887  0.4971
 5518TIP3   OH237968   0.455   2.165  15.210 -0.1150 -0.1937 -0.5848
 5518TIP3    H137969   0.368   2.135  15.235 -0.6136  0.3078 -1.6646
 5518TIP3    H237970   0.443   2.205  15.123  1.2418 -0.4227 -0.9013
 5519TIP3   OH237971   5.603   0.217  13.836  0.5297  0.2366 -0.0284
 5519TIP3    H137972   5.671   0.172  13.886 -0.6719 -3.5438 -1.3907
 5519TIP3    H237973   5.608   0.178  13.749 -1.5759  1.8388 -0.9593
 5520TIP3   OH237974   0.455   6.052   4.418 -0.0699 -0.4523  0.4082
 5520TIP3    H137975   0.507   5.974   4.436 -1.0897 -0.7928  2.0405
 5520TIP3    H237976   0.369   6.034   4.455 -1.0465  0.5647 -1.2164
 5521TIP3   OH237977   1.139   1.519   4.290 -0.1149 -0.0892  0.0169
 5521TIP3    H137978   1.101   1.606   4.279 -0.0969  0.0211  0.7613
 5521TIP3    H237979   1.170   1.495   4.203 -0.8832  0.2933 -0.3743
 5522TIP3   OH237980   1.386   1.924   1.527 -0.7788  0.6574  0.0423
 5522TIP3    H137981   1.450   1.879   1.582  0.1149  2.1998  0.3290
 5522TIP3    H237982   1.301   1.899   1.563 -0.3287 -0.8418  0.1170
 5523TIP3   OH237983   1.461   2.455   5.595  0.5851 -0.4857  0.0776
 5523TIP3    H137984   1.539   2.411   5.629  1.4573 -0.7071 -2.0413
 5523TIP3    H237985   1.488   2.546   5.581  0.4813 -0.5478 -0.6040
 5524TIP3   OH237986   1.180   1.794  14.144  0.5036 -0.2689 -0.2221
 5524TIP3    H137987   1.190   1.728  14.213 -0.9410  0.6487  0.9155
 5524TIP3    H237988   1.167   1.743  14.064 -1.2935 -1.4110  0.7411
 5525TIP3   OH237989   5.880   2.061   2.114  0.5445 -0.1048 -0.2545
 5525TIP3    H137990   5.912   1.971   2.123  1.6969  0.3863  0.9210
 5525TIP3    H237991   5.859   2.088   2.203  0.0068  0.7226 -0.6226
 5526TIP3   OH237992   6.457   5.531  13.932 -0.3844 -0.1002  0.1329
 5526TIP3    H137993   6.552   5.528  13.922 -0.4501  1.3034 -1.6073
 5526TIP3    H237994   6.425   5.453  13.886 -0.0428 -1.4743  2.1494
 5527TIP3   OH237995   4.296   5.332  16.104  0.4743  0.0892  0.8240
 5527TIP3    H137996   4.213   5.308  16.063  1.1629 -1.3656  0.1956
 5527TIP3    H237997   4.307   5.424  16.084 -0.8742  0.2520  0.7231
 5528TIP3   OH237998   6.714   4.880   1.052 -0.0287  0.0391  0.5613
 5528TIP3    H137999   6.633   4.830   1.044  0.5876 -1.2838  2.0977
 5528TIP3    H238000   6.706   4.926   1.135  0.4346  0.5916  0.3051
 5529TIP3   OH238001   1.204   5.435   3.246  0.0609 -0.0388  0.2416
 5529TIP3    H138002   1.288   5.401   3.214 -1.1370 -1.6875 -1.3520
 5529TIP3    H238003   1.176   5.497   3.179  0.0332  0.6195  0.8431
 5530TIP3   OH238004   1.840   4.784  16.564  0.2348 -0.2850  0.1127
 5530TIP3    H138005   1.809   4.840  16.493 -0.8821 -0.1271  0.7063
 5530TIP3    H238006   1.930   4.762  16.540 -0.0772 -0.1071 -1.2654
 5531TIP3   OH238007   0.194   1.492   2.826 -0.4704  0.1799 -0.3943
 5531TIP3    H138008   0.283   1.487   2.793 -0.0468  2.5136  0.1864
 5531TIP3    H238009   0.140   1.459   2.754  0.8396 -1.7234 -0.5688
 5532TIP3   OH238010   1.403   0.194   4.697 -0.1853 -0.3191  0.0490
 5532TIP3    H138011   1.312   0.183   4.668 -0.3635  1.2930 -0.0892
 5532TIP3    H238012   1.409   0.286   4.722  1.4750 -0.3592 -0.1163
 5533TIP3   OH238013   1.675   0.319  15.015 -0.2397  0.2612  0.3834
 5533TIP3    H138014   1.634   0.332  14.930 -0.5330 -1.9238  0.1261
 5533TIP3    H238015   1.685   0.407  15.051 -0.7803  1.1789 -1.5790
 5534TIP3   OH238016   4.853   2.309   3.753  0.4460  0.1617  0.4903
 5534TIP3    H138017   4.942   2.344   3.757  0.7348 -0.5317  0.2167
 5534TIP3    H238018   4.864   2.214   3.762 -0.0638 -0.1676 -1.7360
 5535TIP3   OH238019   5.578   0.076  17.177  0.0484 -0.4355  0.0924
 5535TIP3    H138020   5.541   0.131  17.108 -3.5682 -2.0939  0.4844
 5535TIP3    H238021   5.577   0.131  17.255 -1.7640 -0.3871  0.0796
 5536TIP3   OH238022   2.986   3.097   1.117 -0.2070  0.4243  0.1493
 5536TIP3    H138023   2.957   3.182   1.150  0.8296  0.9759 -0.3177
 5536TIP3    H238024   3.043   3.118   1.043 -0.0992 -0.6873 -0.1006
 5537TIP3   OH238025   4.124   2.406   5.748 -0.4341  0.4538  0.3098
 5537TIP3    H138026   4.219   2.416   5.744 -0.1991  0.0991  3.0965
 5537TIP3    H238027   4.091   2.496   5.752 -0.0455  0.5739  1.1748
 5538TIP3   OH238028   0.354   6.181  15.941 -0.5282  0.1131 -0.2935
 5538TIP3    H138029   0.310   6.140  16.016 -0.3020 -0.8897 -0.6966
 5538TIP3    H238030   0.397   6.108  15.896  0.2415  0.8633 -0.7877
 5539TIP3   OH238031   4.097   3.088   5.115 -0.2835  0.0824  0.3833
 5539TIP3    H138032   4.060   3.063   5.031  0.2637 -0.6148  0.3419
 5539TIP3    H238033   4.040   3.047   5.180 -1.5922  1.8470  0.4112
 5540TIP3   OH238034   5.824   5.709  13.222  0.1026  0.4408  0.5214
 5540TIP3    H138035   5.819   5.790  13.171 -0.3702  0.2140  0.2007
 5540TIP3    H238036   5.734   5.692  13.249  0.1510 -0.1443  0.3261
 5541TIP3   OH238037   0.321   0.791  13.921 -0.2171  0.0773  0.0675
 5541TIP3    H138038   0.377   0.759  13.992  0.2680  1.1904  0.2070
 5541TIP3    H238039   0.320   0.720  13.858  0.6178 -0.3211  0.4871
 5542TIP3   OH238040   2.964   2.008   1.529  0.5164  0.2078  0.1346
 5542TIP3    H138041   2.998   2.068   1.595  0.4510  0.4207 -0.0258
 5542TIP3    H238042   2.971   1.922   1.570 -2.0074  0.5422  1.5101
 5543TIP3   OH238043   2.150   6.038  13.240  0.1313 -0.2525  0.2592
 5543TIP3    H138044   2.147   5.990  13.157  2.5226 -0.7146  0.3746
 5543TIP3    H238045   2.221   6.101  13.228 -0.5935  0.8059  1.3938
 5544TIP3   OH238046   2.568   6.214  16.656  0.3379  0.5916  0.1095
 5544TIP3    H138047   2.647   6.247  16.699  1.3191 -0.6854 -0.6348
 5544TIP3    H238048   2.507   6.288  16.657  2.3160  2.3494 -1.2564
 5545TIP3   OH238049   6.184   5.739  11.624 -0.3398 -0.0456 -0.4631
 5545TIP3    H138050   6.154   5.691  11.547 -0.1995  0.6624 -0.9715
 5545TIP3    H238051   6.200   5.671  11.690 -2.0074 -0.5308 -0.5193
 5546TIP3   OH238052   2.427   4.532   4.840  0.5570  0.6184 -0.3857
 5546TIP3    H138053   2.453   4.485   4.761 -1.3213 -2.9165  0.9003
 5546TIP3    H238054   2.336   4.557   4.825  0.8355  1.8855 -0.1255
 5547TIP3   OH238055   5.050   5.629   0.639 -0.7838  0.1606  0.5725
 5547TIP3    H138056   5.083   5.703   0.691 -1.4010 -0.2714  1.6182
 5547TIP3    H238057   5.003   5.575   0.702 -0.4910 -1.0448 -0.2080
 5548TIP3   OH238058   2.914   0.130  15.268 -0.3835 -0.1827 -0.2205
 5548TIP3    H138059   2.833   0.166  15.305 -1.7841 -1.3153 -2.0047
 5548TIP3    H238060   2.887   0.093  15.183  1.6161 -2.3693  0.0035
 5549TIP3   OH238061   1.119   1.359   2.865 -0.1446  0.6542 -0.3308
 5549TIP3    H138062   1.126   1.266   2.844 -0.0095  0.9403 -1.6907
 5549TIP3    H238063   1.069   1.396   2.792  0.1895  1.7212 -0.0364
 5550TIP3   OH238064   5.062   0.127   5.948 -0.4362  0.5511 -0.3500
 5550TIP3    H138065   5.103   0.042   5.965 -2.8082 -1.0554 -2.0483
 5550TIP3    H238066   5.044   0.163   6.035 -4.3101 -3.2953  0.7727
 5551TIP3   OH238067   0.767   3.584   3.555 -0.1186  0.2561 -0.1190
 5551TIP3    H138068   0.827   3.572   3.628  0.0840  0.4065 -0.2614
 5551TIP3    H238069   0.724   3.668   3.572 -1.0941 -0.3610  0.5582
 5552TIP3   OH238070   6.261   3.615   2.873  0.1816 -0.2285 -0.2078
 5552TIP3    H138071   6.251   3.521   2.888 -1.3612  0.1850  1.7518
 5552TIP3    H238072   6.297   3.649   2.954 -1.5568  1.1663  0.0485
 5553TIP3   OH238073   0.657   0.601   1.511  0.0767  0.1989  0.0668
 5553TIP3    H138074   0.724   0.658   1.474 -0.5767  2.7706  2.5284
 5553TIP3    H238075   0.703   0.542   1.570  0.4719 -0.1281 -0.5606
 5554TIP3   OH238076   6.277   2.845   1.921  0.1953 -0.1749 -0.0088
 5554TIP3    H138077   6.186   2.816   1.917 -0.3755  1.1130  2.2109
 5554TIP3    H238078   6.287   2.904   1.847 -0.4481 -1.1197 -0.8774
 5555TIP3   OH238079   2.968   1.412  10.890 -0.5510  0.1968  0.4868
 5555TIP3    H138080   3.029   1.377  10.825 -1.4943 -2.2934  0.8565
 5555TIP3    H238081   2.972   1.507  10.877  1.4975 -0.0364 -1.1730
 5556TIP3   OH238082   1.184   5.730  13.370  0.2402  0.2591  0.1578
 5556TIP3    H138083   1.094   5.708  13.345 -0.3516  1.6457  0.9030
 5556TIP3    H238084   1.182   5.735  13.466  0.1985  3.5295  0.1226
 5557TIP3   OH238085   0.841   5.986   6.073  0.0226  0.7598  0.1705
 5557TIP3    H138086   0.838   5.898   6.110 -0.8464 -0.0537 -1.6889
 5557TIP3    H238087   0.933   6.012   6.080  0.3410 -0.4147  0.4980
 5558TIP3   OH238088   5.388   2.288  11.900 -0.9795 -0.6406  0.0592
 5558TIP3    H138089   5.310   2.318  11.947  0.1538  0.5462  1.2697
 5558TIP3    H238090   5.444   2.366  11.894 -0.7739 -0.8756 -2.7655
 5559TIP3   OH238091   6.579   5.048  14.855 -0.1107 -0.4192  1.1349
 5559TIP3    H138092   6.596   5.060  14.949  1.2061 -0.1460  0.8849
 5559TIP3    H238093   6.515   5.115  14.834  3.0996  2.8964  0.8975
 5560TIP3   OH238094   3.243   3.534  13.368 -0.2731  0.0726 -0.2354
 5560TIP3    H138095   3.206   3.474  13.303  0.3770 -0.9745  0.3258
 5560TIP3    H238096   3.208   3.503  13.452  3.1894 -2.1834  0.5780
 5561TIP3   OH238097   5.279   4.910   4.895 -0.0791 -0.1147  0.3895
 5561TIP3    H138098   5.342   4.974   4.862  0.7044 -0.9299  0.2762
 5561TIP3    H238099   5.220   4.961   4.951  1.5783  0.4013  1.7176
 5562TIP3   OH238100   4.200   4.483   1.435 -0.1944 -0.6464  0.1788
 5562TIP3    H138101   4.254   4.407   1.416  0.8141  0.5248 -2.0881
 5562TIP3    H238102   4.263   4.555   1.445 -1.2145  0.7227 -2.2977
 5563TIP3   OH238103   5.733   0.877   1.769 -0.3695 -0.0206  0.6949
 5563TIP3    H138104   5.811   0.897   1.822 -0.2124  1.2186  0.0411
 5563TIP3    H238105   5.685   0.960   1.765 -1.4688 -0.6399  0.6500
 5564TIP3   OH238106   3.252   0.325  12.214 -0.0394  0.0493  0.3318
 5564TIP3    H138107   3.256   0.295  12.124 -0.1928  2.4334 -0.5494
 5564TIP3    H238108   3.262   0.420  12.208 -2.9726  0.6402  2.5656
 5565TIP3   OH238109   3.078   1.567  15.692  0.5257  0.0142  0.9156
 5565TIP3    H138110   3.000   1.521  15.662  0.3994  0.3055  0.7867
 5565TIP3    H238111   3.044   1.640  15.744  0.6842  0.5419  0.2936
 5566TIP3   OH238112   5.672   0.741  12.992 -0.0665 -0.1959  0.4685
 5566TIP3    H138113   5.588   0.694  12.990  0.0954 -0.5203 -1.8857
 5566TIP3    H238114   5.722   0.698  13.061 -1.4662 -0.6292  1.2704
 5567TIP3   OH238115   5.691   5.003   0.099 -0.1210  0.4822 -0.6434
 5567TIP3    H138116   5.614   5.000   0.156 -0.4273  1.1267 -1.0208
 5567TIP3    H238117   5.656   5.002   0.010  0.4070 -2.3751 -0.9023
 5568TIP3   OH238118   6.389   5.101   0.104 -0.8466  0.1077  0.3258
 5568TIP3    H138119   6.352   5.097   0.193 -1.1215  2.3072  0.3687
 5568TIP3    H238120   6.470   5.151   0.114 -0.1465 -0.8173 -0.4885
 5569TIP3   OH238121   1.069   5.302  13.000  0.5758 -0.2923  0.0694
 5569TIP3    H138122   1.107   5.214  13.001 -0.4989 -0.8004 -1.1695
 5569TIP3    H238123   1.019   5.307  13.081  0.5627 -0.8654  0.1016
 5570TIP3   OH238124   2.131   4.102   6.207 -0.0253 -0.5614 -0.7539
 5570TIP3    H138125   2.169   4.033   6.261 -1.0084 -2.2543 -2.1210
 5570TIP3    H238126   2.199   4.169   6.202  0.5455 -0.8792  1.5253
 5571TIP3   OH238127   4.905   3.950  16.331  0.1408 -0.3367  0.6299
 5571TIP3    H138128   4.837   3.909  16.278  0.6649 -1.6835  0.9658
 5571TIP3    H238129   4.931   4.027  16.280 -0.2875 -0.8680 -0.4269
 5572TIP3   OH238130   0.307   3.326   3.640 -0.5954  0.0493  0.1394
 5572TIP3    H138131   0.388   3.347   3.592 -1.8226  0.9279 -1.6534
 5572TIP3    H238132   0.290   3.404   3.693 -0.1608 -0.2373  0.7159
 5573TIP3   OH238133   5.471   1.060  13.594  0.5990 -0.2531 -0.2056
 5573TIP3    H138134   5.391   1.066  13.646 -0.0614  0.1345 -1.2283
 5573TIP3    H238135   5.503   0.971  13.610  1.5459  0.4518  2.4030
 5574TIP3   OH238136   1.996   0.272   5.618  0.1479 -0.3398 -0.1055
 5574TIP3    H138137   2.064   0.307   5.560 -0.4795 -0.8744 -1.1889
 5574TIP3    H238138   1.937   0.347   5.633  2.5060  1.1283  3.4259
 5575TIP3   OH238139   3.910   1.843  17.206  0.7719  0.1883 -0.5234
 5575TIP3    H138140   3.833   1.860  17.260  0.5945  1.1432 -1.0479
 5575TIP3    H238141   3.915   1.748  17.200  0.4292  0.0782  0.6392
 5576TIP3   OH238142   6.647   1.452  13.658  0.1123  0.0907 -0.0223
 5576TIP3    H138143   6.640   1.538  13.616 -0.8603  1.4535  2.6843
 5576TIP3    H238144   6.559   1.434  13.692  0.7517 -0.9990  1.1803
 5577TIP3   OH238145   0.767   6.440  15.389 -0.2960 -0.5438  0.1289
 5577TIP3    H138146   0.703   6.496  15.432  1.0770  0.9843  0.2924
 5577TIP3    H238147   0.770   6.361  15.444  0.2136  0.6778  1.9759
 5578TIP3   OH238148   6.097   1.426   1.505 -0.6424 -0.0559 -0.7890
 5578TIP3    H138149   6.131   1.339   1.525 -0.3000  0.3162  0.3430
 5578TIP3    H238150   6.152   1.457   1.433 -0.4240 -0.5778 -0.8517
 5579TIP3   OH238151   5.564   1.484   2.512 -0.3088 -0.1419  0.1577
 5579TIP3    H138152   5.640   1.531   2.547 -0.0755 -0.9654  0.7958
 5579TIP3    H238153   5.523   1.444   2.589 -0.4782 -1.0101 -0.3664
 5580TIP3   OH238154   0.896   2.362  14.090 -0.2654 -0.2084 -0.1445
 5580TIP3    H138155   0.946   2.339  14.012 -0.0496  1.6821 -0.6024
 5580TIP3    H238156   0.820   2.303  14.087 -0.0058 -0.5156 -1.5141
 5581TIP3   OH238157   6.368   2.652  14.593 -0.0800 -0.4949 -0.8005
 5581TIP3    H138158   6.443   2.595  14.603  0.4495  0.2818 -0.2339
 5581TIP3    H238159   6.294   2.600  14.625  0.2858 -1.0725 -0.8737
 5582TIP3   OH238160   4.621   5.061  15.875  0.1120  0.4454  0.0886
 5582TIP3    H138161   4.603   5.101  15.960 -0.4826  1.4561 -0.4967
 5582TIP3    H238162   4.624   5.134  15.814  1.1844 -0.2027 -0.6755
 5583TIP3   OH238163   6.555   1.725  11.143 -0.3949  0.2738  0.2355
 5583TIP3    H138164   6.565   1.818  11.124 -0.4255  0.1878 -0.2251
 5583TIP3    H238165   6.634   1.685  11.106 -1.7521 -0.2593 -2.2933
 5584TIP3   OH238166   0.208   0.285   3.968  0.0099 -0.2026 -0.4369
 5584TIP3    H138167   0.231   0.252   3.881 -1.1188 -1.3746 -0.3240
 5584TIP3    H238168   0.172   0.372   3.952  0.8795  0.0654 -1.0057
 5585TIP3   OH238169   0.173   0.350  16.250  0.3482 -0.1911 -0.1897
 5585TIP3    H138170   0.172   0.397  16.167  0.0820  1.5087  0.7268
 5585TIP3    H238171   0.086   0.311  16.257 -1.0667  2.8831  0.9739
 5586TIP3   OH238172   4.241   3.929  12.460 -0.0668 -0.2610  0.0729
 5586TIP3    H138173   4.333   3.903  12.453  0.1847 -0.0447  2.1010
 5586TIP3    H238174   4.207   3.922  12.370  1.2440 -2.7711 -0.3033
 5587TIP3   OH238175   0.355   1.307   3.106  0.0712 -0.8281  0.2178
 5587TIP3    H138176   0.296   1.265   3.044 -1.8035  0.5027  1.0124
 5587TIP3    H238177   0.298   1.344   3.174  1.6794  1.5096  0.4422
 5588TIP3   OH238178   2.460   5.745  12.971 -0.6783 -0.6361 -0.2276
 5588TIP3    H138179   2.468   5.809  13.042 -0.2521 -1.2323  0.2718
 5588TIP3    H238180   2.389   5.778  12.917  0.5704  1.0995 -0.8764
 5589TIP3   OH238181   3.409   4.417  15.877 -0.7245 -0.1734 -0.1533
 5589TIP3    H138182   3.475   4.348  15.867 -0.5190 -0.3485  2.0013
 5589TIP3    H238183   3.429   4.457  15.962 -1.7388  1.5897 -0.6930
 5590TIP3   OH238184   3.402   2.490   3.369  0.3742 -0.1426 -0.8424
 5590TIP3    H138185   3.378   2.514   3.279  1.8191 -3.5164 -2.2842
 5590TIP3    H238186   3.322   2.451   3.405  0.0866  0.2781 -1.0155
 5591TIP3   OH238187   6.640   5.407  11.162  0.5651 -0.2198 -0.6312
 5591TIP3    H138188   6.717   5.441  11.116  1.5699  0.3165  1.3533
 5591TIP3    H238189   6.573   5.400  11.094  2.2209 -0.3228 -2.3457
 5592TIP3   OH238190   1.122   3.380   2.723 -0.4010 -0.3799 -0.2442
 5592TIP3    H138191   1.121   3.439   2.648  3.0337 -0.2086 -0.3251
 5592TIP3    H238192   1.063   3.420   2.786 -0.7553  1.3177 -1.5745
 5593TIP3   OH238193   6.458   0.757  15.084 -0.3133  0.7413  0.6959
 5593TIP3    H138194   6.444   0.821  15.015 -2.2959 -0.0948  0.2662
 5593TIP3    H238195   6.395   0.780  15.153 -1.1439 -0.7618  0.4817
 5594TIP3   OH238196   3.710   0.943   3.265  0.1103  0.5282  0.2511
 5594TIP3    H138197   3.747   0.976   3.347 -0.7406 -1.4821  1.5143
 5594TIP3    H238198   3.777   0.886   3.229 -0.0830  0.2662  0.3048
 5595TIP3   OH238199   2.278   2.510   5.730 -0.7514 -0.2814  0.1111
 5595TIP3    H138200   2.184   2.507   5.708 -0.5395 -1.3256 -0.7556
 5595TIP3    H238201   2.297   2.422   5.762  0.0045 -0.1627 -0.0151
 5596TIP3   OH238202   0.283   5.337  13.026 -0.1621 -0.3877  0.1279
 5596TIP3    H138203   0.297   5.405  12.961 -2.2455  1.3399  1.3534
 5596TIP3    H238204   0.341   5.360  13.099 -0.1826 -0.4457  0.1634
 5597TIP3   OH238205   5.143   2.708   3.945 -0.5823  0.1975 -0.0783
 5597TIP3    H138206   5.197   2.723   3.867  0.2748 -0.4824  0.3733
 5597TIP3    H238207   5.060   2.676   3.911  0.4984 -2.2160 -0.6733
 5598TIP3   OH238208   0.015   0.318  14.670 -0.4615  0.1406 -0.2506
 5598TIP3    H138209  -0.042   0.375  14.722 -1.7084 -0.7590 -0.5741
 5598TIP3    H238210  -0.032   0.306  14.588  0.6902  0.1722 -0.9250
 5599TIP3   OH238211   4.499   4.761  11.494  0.7862 -0.2210  0.0317
 5599TIP3    H138212   4.446   4.765  11.414 -0.8422  0.4598  1.1094
 5599TIP3    H238213   4.589   4.754  11.462  0.3331  1.6782 -1.9029
 5600TIP3   OH238214   2.622   4.867  11.542 -0.7516  0.0442 -0.0182
 5600TIP3    H138215   2.715   4.849  11.553 -0.8866 -0.5002  0.2719
 5600TIP3    H238216   2.607   4.949  11.589 -0.4136  0.1536 -0.1010
 5601TIP3   OH238217   5.550   4.234   2.636 -0.1429  0.7348  0.0083
 5601TIP3    H138218   5.463   4.192   2.635  0.2667 -0.1325 -0.6610
 5601TIP3    H238219   5.565   4.258   2.545  0.9600 -0.4976 -0.1543
 5602TIP3   OH238220   2.819   5.904  14.091 -0.0479 -0.0956  0.1812
 5602TIP3    H138221   2.880   5.833  14.066  1.0318  1.2479 -1.2091
 5602TIP3    H238222   2.824   5.965  14.018 -2.1487  0.6797  0.6488
 5603TIP3   OH238223   0.030   4.741  13.976  0.5301  0.3470  0.0237
 5603TIP3    H138224   0.021   4.703  13.888  1.6341 -3.0361  1.1962
 5603TIP3    H238225   0.105   4.695  14.014 -1.5079 -0.3662  3.6390
 5604TIP3   OH238226   0.494   4.132   3.876 -0.5511 -0.2301  0.1409
 5604TIP3    H138227   0.590   4.127   3.872 -0.6158 -1.3791 -0.2536
 5604TIP3    H238228   0.476   4.168   3.963  0.2461  0.5108  0.0150
 5605TIP3   OH238229   1.826   2.917   4.565 -0.4800 -0.2902  0.3958
 5605TIP3    H138230   1.922   2.920   4.559 -0.4357 -0.6553  0.8022
 5605TIP3    H238231   1.809   2.860   4.641 -1.0107  0.3925  0.7981
 5606TIP3   OH238232   6.540   5.587   3.890 -0.6225  0.1569 -0.1599
 5606TIP3    H138233   6.518   5.567   3.981 -0.5746 -0.1378 -0.2124
 5606TIP3    H238234   6.539   5.683   3.885  0.0554  0.1906  0.3236
 5607TIP3   OH238235   6.628   4.437   4.021 -0.1622 -0.4512 -1.0197
 5607TIP3    H138236   6.584   4.359   4.053 -0.3145  0.5260  1.3640
 5607TIP3    H238237   6.712   4.438   4.067  0.0347  0.5324 -1.3717
 5608TIP3   OH238238   4.804   6.411   2.540 -0.1999 -0.3369 -0.2243
 5608TIP3    H138239   4.775   6.486   2.489  1.1918 -0.6069 -1.4903
 5608TIP3    H238240   4.837   6.448   2.622  1.2322  0.5757 -1.1602
 5609TIP3   OH238241   1.210   3.956  12.773 -1.0585  0.4077  0.1641
 5609TIP3    H138242   1.120   3.930  12.752 -1.1622  1.1444 -0.3340
 5609TIP3    H238243   1.200   4.020  12.844 -0.7562 -1.4832  2.0207
 5610TIP3   OH238244   6.528   0.327   6.046  0.2996 -0.0728  0.1548
 5610TIP3    H138245   6.499   0.361   6.131 -0.4627  0.8509 -0.4593
 5610TIP3    H238246   6.513   0.399   5.985  0.2399 -0.9435 -0.8874
 5611TIP3   OH238247   5.663   6.000   4.852 -0.3693  0.0256 -0.0426
 5611TIP3    H138248   5.630   5.934   4.792 -1.0723 -0.5133  0.9081
 5611TIP3    H238249   5.606   6.076   4.838  1.1571  0.9110 -1.9708
 5612TIP3   OH238250   5.525   1.653   0.389 -0.5227  0.0863 -0.0885
 5612TIP3    H138251   5.511   1.601   0.310 -2.6409 -1.0457  0.9596
 5612TIP3    H238252   5.468   1.729   0.378 -1.1163 -0.2668  0.4921
 5613TIP3   OH238253   6.422   6.010   2.932  0.5562 -0.2132 -0.3576
 5613TIP3    H138254   6.497   5.950   2.925 -0.0054 -0.7988 -1.9742
 5613TIP3    H238255   6.356   5.971   2.874 -1.6003 -0.5275  2.1166
 5614TIP3   OH238256   6.690   5.262   3.402 -0.0345 -0.4051 -0.3363
 5614TIP3    H138257   6.601   5.245   3.373 -0.4195  2.0221 -0.8081
 5614TIP3    H238258   6.684   5.266   3.497 -0.3656 -0.6396 -0.3463
 5615TIP3   OH238259   3.381   1.714  14.531 -0.2923 -0.7134  0.3266
 5615TIP3    H138260   3.464   1.695  14.576 -0.2676 -1.0436  0.1460
 5615TIP3    H238261   3.404   1.780  14.465  0.1665 -1.9332 -0.7864
 5616TIP3   OH238262   0.863   4.725  14.290 -0.4391 -0.9040 -0.0855
 5616TIP3    H138263   0.837   4.803  14.241 -1.2268 -0.7275  0.5884
 5616TIP3    H238264   0.781   4.692  14.327  0.1601 -0.9713  1.2100
 5617TIP3   OH238265   5.127   1.154   4.397 -0.2091  0.3144 -0.3086
 5617TIP3    H138266   5.193   1.217   4.369  1.0583 -0.5693  0.5714
 5617TIP3    H238267   5.085   1.195   4.473  0.8861 -0.0351  0.5092
 5618TIP3   OH238268   5.069   3.307   1.547  0.1505 -0.1836  0.4123
 5618TIP3    H138269   5.154   3.330   1.584  0.9199 -0.6984 -0.9438
 5618TIP3    H238270   5.055   3.216   1.574  0.9659 -0.7411 -0.9117
 5619TIP3   OH238271   1.579   5.099  13.672  0.6930 -0.0406 -0.3725
 5619TIP3    H138272   1.510   5.034  13.663  0.2797  0.3828 -0.2510
 5619TIP3    H238273   1.538   5.182  13.651  1.6945 -0.0138 -2.5075
 5620TIP3   OH238274   2.958   1.820   4.400 -0.5352 -0.0710  0.0962
 5620TIP3    H138275   2.869   1.805   4.432 -0.8252 -0.9432 -1.0167
 5620TIP3    H238276   2.951   1.898   4.344 -0.6368 -0.2117 -0.0903
 5621TIP3   OH238277   6.449   5.331  10.981  0.0410 -0.3018  0.0548
 5621TIP3    H138278   6.411   5.294  11.060  0.3663  1.7432  1.2226
 5621TIP3    H238279   6.375   5.344  10.922 -0.4362 -0.3543  0.6381
 5622TIP3   OH238280   3.412   0.134   4.268 -0.1801  0.0555 -0.1753
 5622TIP3    H138281   3.375   0.050   4.296  0.7290 -0.0749  0.6705
 5622TIP3    H238282   3.335   0.188   4.248 -0.9438  0.2334  2.7632
 5623TIP3   OH238283   2.039   3.094  14.215  0.0040 -0.0696 -0.3208
 5623TIP3    H138284   2.124   3.049  14.212  0.2953  0.5071 -1.0586
 5623TIP3    H238285   2.005   3.074  14.302  0.7329 -0.6149 -0.1472
 5624TIP3   OH238286   5.816   6.204  15.719 -0.7850  0.3740 -0.0223
 5624TIP3    H138287   5.758   6.167  15.652 -0.5993  1.5267 -0.8642
 5624TIP3    H238288   5.901   6.163  15.701 -0.7870  0.5127 -0.3592
 5625TIP3   OH238289   4.772   6.027  16.276  0.3228 -0.1676  0.1181
 5625TIP3    H138290   4.835   5.974  16.226  0.4101 -0.4822  0.5484
 5625TIP3    H238291   4.705   6.051  16.212  0.9009  0.2157 -0.3635
 5626TIP3   OH238292   0.282   2.650  16.218  0.3345 -0.9883 -0.0348
 5626TIP3    H138293   0.324   2.719  16.166  0.5487 -1.8515 -1.0307
 5626TIP3    H238294   0.209   2.620  16.164 -1.1883 -0.0021  1.3646
 5627TIP3   OH238295   1.224   0.305  14.564 -0.3836  0.0574 -0.4730
 5627TIP3    H138296   1.180   0.388  14.547 -0.3469  0.2466  0.3154
 5627TIP3    H238297   1.167   0.261  14.627  0.0376 -0.1405 -0.2295
 5628TIP3   OH238298   1.313   0.817   5.613 -0.1208  0.9541  0.0843
 5628TIP3    H138299   1.353   0.858   5.690 -1.0411  0.9077  0.6046
 5628TIP3    H238300   1.223   0.798   5.640 -0.0144 -0.4861 -0.4906
 5629TIP3   OH238301   4.058   1.841  12.498  0.2813 -0.2728 -0.0983
 5629TIP3    H138302   4.061   1.845  12.593  0.3185  0.4744 -0.1233
 5629TIP3    H238303   4.057   1.932  12.470 -2.0054 -0.4254 -0.7455
 5630TIP3   OH238304   1.972   1.722  11.506 -0.8408  0.8793  0.0969
 5630TIP3    H138305   1.909   1.794  11.510 -0.7098  0.9174  1.9555
 5630TIP3    H238306   1.974   1.698  11.413 -2.9222  1.4587 -0.1504
 5631TIP3   OH238307   4.360   4.484  14.238 -0.3838 -0.2587 -0.4584
 5631TIP3    H138308   4.410   4.566  14.229  1.8886 -0.9736  3.1975
 5631TIP3    H238309   4.269   4.512  14.238  0.2276  2.0187 -1.2704
 5632TIP3   OH238310   2.609   3.653   3.893  0.3719 -0.1625 -0.1765
 5632TIP3    H138311   2.600   3.740   3.932 -0.7967  0.7664 -2.3778
 5632TIP3    H238312   2.689   3.617   3.932  0.9786  1.9630  0.6374
 5633TIP3   OH238313   0.476   3.644   4.571  0.2249 -0.4048 -0.0731
 5633TIP3    H138314   0.426   3.725   4.563  0.5379 -0.3288 -1.5742
 5633TIP3    H238315   0.557   3.669   4.616  0.0783 -0.0015 -0.0361
 5634TIP3   OH238316   5.000   0.677   4.696 -0.5561  0.2947  0.4874
 5634TIP3    H138317   4.914   0.670   4.737 -0.4143 -0.8439  0.6498
 5634TIP3    H238318   5.004   0.602   4.636  1.0253 -0.8500  1.9008
 5635TIP3   OH238319   3.584   4.853  13.594 -0.6042 -0.1585 -0.3056
 5635TIP3    H138320   3.654   4.918  13.591 -1.3866  0.6826 -0.9878
 5635TIP3    H238321   3.555   4.853  13.685 -0.4797  0.3299 -0.2612
 5636TIP3   OH238322   3.819   0.243   3.185 -0.0765 -0.2414 -0.1963
 5636TIP3    H138323   3.754   0.205   3.125  1.3393 -3.7779  0.2247
 5636TIP3    H238324   3.899   0.247   3.133 -0.0149  1.7448 -0.0036
 5637TIP3   OH238325   4.298   6.010   2.673  0.5666 -0.5579  0.2715
 5637TIP3    H138326   4.294   5.968   2.587  0.1757 -0.3149  0.1635
 5637TIP3    H238327   4.256   5.948   2.733 -3.8240  1.2025 -0.5423
 5638TIP3   OH238328   6.614   6.400   3.424 -0.5330 -0.3968  0.6295
 5638TIP3    H138329   6.550   6.465   3.454 -0.0548 -0.1448  1.1286
 5638TIP3    H238330   6.699   6.444   3.433 -0.4605  1.1302 -4.6037
 5639TIP3   OH238331   1.168   4.707   3.425 -0.1021 -0.1666  0.2425
 5639TIP3    H138332   1.227   4.761   3.373 -0.7826 -0.2952 -0.6753
 5639TIP3    H238333   1.225   4.644   3.469  0.5136  0.1909 -0.0405
 5640TIP3   OH238334   5.164   3.046  14.094 -0.1038  0.3394  0.0256
 5640TIP3    H138335   5.233   2.982  14.107 -1.1263 -0.8217 -0.0440
 5640TIP3    H238336   5.178   3.079  14.005  0.7673  0.6582  0.2699
 5641TIP3   OH238337   1.888   6.311   4.789  0.4250 -0.4664  0.9524
 5641TIP3    H138338   1.872   6.266   4.706 -0.6634 -0.0853  0.9484
 5641TIP3    H238339   1.976   6.348   4.779 -0.6676  1.8668 -1.1173
 5642TIP3   OH238340   0.736   4.221  16.449 -0.1000 -0.5973 -0.2268
 5642TIP3    H138341   0.696   4.135  16.461  0.2232 -0.7712 -0.3949
 5642TIP3    H238342   0.724   4.240  16.356 -1.9254  0.4152  0.1599
 5643TIP3   OH238343   3.366   2.829  14.328  0.2546 -0.5619 -0.9104
 5643TIP3    H138344   3.358   2.834  14.423  1.9307 -1.6872 -0.6622
 5643TIP3    H238345   3.291   2.776  14.300  0.6986 -1.7035 -0.0019
 5644TIP3   OH238346   2.358   3.508   1.556 -0.5218 -0.4575  0.6156
 5644TIP3    H138347   2.264   3.517   1.571 -0.2229  0.7628  1.8718
 5644TIP3    H238348   2.364   3.469   1.469 -2.1666  1.0052 -0.2130
 5645TIP3   OH238349   3.680   4.024   2.304 -0.3551  0.0074  0.7148
 5645TIP3    H138350   3.588   4.017   2.327 -0.2122  0.9116  1.6441
 5645TIP3    H238351   3.726   3.992   2.382  0.1270 -1.9689 -0.3235
 5646TIP3   OH238352   4.609   0.749  15.222 -0.3682 -0.3779  0.2663
 5646TIP3    H138353   4.665   0.819  15.190  2.0407 -1.3347  2.0329
 5646TIP3    H238354   4.658   0.669  15.203 -1.2114 -1.2840  1.7315
 5647TIP3   OH238355   6.631   5.378  10.764  0.1421  0.2278  0.2634
 5647TIP3    H138356   6.576   5.391  10.687  0.3199 -3.4961 -0.6561
 5647TIP3    H238357   6.571   5.346  10.832  0.4140  1.0540  0.9222
 5648TIP3   OH238358   3.039   0.926  12.303 -0.3737  1.2453  0.1625
 5648TIP3    H138359   3.039   0.941  12.208 -0.3551  1.4357  0.1943
 5648TIP3    H238360   3.129   0.902  12.323 -0.7150 -0.4051 -0.1278
 5649TIP3   OH238361   4.838   1.492   3.644 -0.6181 -0.4537 -0.1920
 5649TIP3    H138362   4.823   1.583   3.669  1.2702 -0.1364 -0.1348
 5649TIP3    H238363   4.884   1.496   3.561 -1.1568 -1.3912 -0.5551
 5650TIP3   OH238364   3.353   3.092  16.002 -0.2092 -0.1585 -0.1626
 5650TIP3    H138365   3.447   3.087  16.017 -0.3029 -0.3458  0.3835
 5650TIP3    H238366   3.333   3.185  16.006 -0.4052 -0.2607  2.0397
 5651TIP3   OH238367   6.081   3.248  11.563  0.3412 -0.0632  0.3079
 5651TIP3    H138368   6.132   3.328  11.571  2.3527 -1.2430  0.0758
 5651TIP3    H238369   6.118   3.190  11.630 -2.8276 -0.0132  2.3493
 5652TIP3   OH238370   6.240   6.212  11.355  0.1232 -0.1947 -0.1406
 5652TIP3    H138371   6.155   6.209  11.398  0.0600  3.6606  0.3943
 5652TIP3    H238372   6.224   6.180  11.266 -2.1824  1.4083 -0.3864
 5653TIP3   OH238373   4.125   4.413  11.369  0.8457 -0.1293 -0.7622
 5653TIP3    H138374   4.141   4.326  11.334 -1.4704 -1.1447  0.4552
 5653TIP3    H238375   4.206   4.436  11.414  2.5226 -0.3689 -3.4182
 5654TIP3   OH238376   2.342   3.439  16.642  0.3855  0.4124  0.3622
 5654TIP3    H138377   2.357   3.384  16.718 -1.3395 -0.1202  0.3556
 5654TIP3    H238378   2.391   3.397  16.572  0.1232 -0.4063  0.6607
 5655TIP3   OH238379   2.197   2.272   0.594 -0.2689  0.0967 -0.4464
 5655TIP3    H138380   2.126   2.231   0.545  0.0252 -1.0497  0.0607
 5655TIP3    H238381   2.204   2.360   0.556 -0.9458 -0.2892 -1.5238
 5656TIP3   OH238382   0.552   3.812  16.321 -0.0185  0.1423 -0.0308
 5656TIP3    H138383   0.566   3.900  16.286 -0.3212 -0.0160 -0.5668
 5656TIP3    H238384   0.462   3.814  16.355  1.0271  1.0213  2.9880
 5657TIP3   OH238385   3.989   0.795  16.711  0.2464  0.1792 -0.3873
 5657TIP3    H138386   3.937   0.823  16.786  3.4418  1.0550  1.6890
 5657TIP3    H238387   3.936   0.727  16.669 -1.6712 -0.3704  2.6305
 5658TIP3   OH238388   5.211   5.903   4.321  0.1869  0.2767  0.2795
 5658TIP3    H138389   5.181   5.845   4.251  0.3451  0.1409  0.3260
 5658TIP3    H238390   5.185   5.860   4.402  1.5637 -0.4405  0.3678
 5659TIP3   OH238391   4.502   1.381  15.448 -0.5373 -0.3239  0.6292
 5659TIP3    H138392   4.477   1.383  15.356 -0.7803 -0.4814  0.6899
 5659TIP3    H238393   4.429   1.424  15.494 -0.1088  0.3656  0.6802
 5660TIP3   OH238394   5.055   1.183  15.641  0.6595 -0.3124  0.0761
 5660TIP3    H138395   5.020   1.260  15.685 -1.0116  0.2517 -2.0554
 5660TIP3    H238396   5.010   1.109  15.682 -0.7179  0.1813 -0.5074
 5661TIP3   OH238397   2.627   3.056  17.228 -0.0511 -0.4981  0.1058
 5661TIP3    H138398   2.547   3.080  17.274 -0.6237 -1.2789 -0.4662
 5661TIP3    H238399   2.609   3.076  17.136  0.5652 -0.2737  0.0293
 5662TIP3   OH238400   4.419   4.330   1.765 -0.4380  0.0838  0.2472
 5662TIP3    H138401   4.502   4.290   1.791 -0.3159  0.0575 -0.1767
 5662TIP3    H238402   4.442   4.420   1.742 -0.0913 -0.5326 -2.1279
 5663TIP3   OH238403   5.811   0.825   4.497 -0.6658 -0.3161  0.8027
 5663TIP3    H138404   5.776   0.867   4.419  0.1604  1.2055  1.2050
 5663TIP3    H238405   5.799   0.732   4.482 -1.0837 -0.0224 -0.8635
 5664TIP3   OH238406   6.380   4.027  16.186  0.0410 -0.4642 -0.0937
 5664TIP3    H138407   6.455   4.057  16.134 -0.1505  1.0976  0.4911
 5664TIP3    H238408   6.355   3.944  16.145  2.0510 -1.0104 -0.3443
 5665TIP3   OH238409   2.151   1.114   2.618 -0.5468  0.1890  0.0883
 5665TIP3    H138410   2.145   1.072   2.704  1.0674 -0.7978 -0.2557
 5665TIP3    H238411   2.062   1.144   2.600 -1.1231 -0.4939  1.6511
 5666TIP3   OH238412   5.492   0.573   6.264  0.2406  0.1111 -0.0228
 5666TIP3    H138413   5.442   0.654   6.249 -2.7439 -1.4362  0.8492
 5666TIP3    H238414   5.581   0.595   6.235 -1.3910  2.2612 -4.3399
 5667TIP3   OH238415   4.701   0.524  11.656  0.1962  0.0765 -0.0666
 5667TIP3    H138416   4.759   0.580  11.709 -0.2686 -0.6859  1.3136
 5667TIP3    H238417   4.640   0.585  11.615  1.6476  0.8559 -1.1754
 5668TIP3   OH238418   3.968   5.817   5.511 -0.1306  0.1252  0.3962
 5668TIP3    H138419   3.928   5.767   5.582 -0.1030 -0.0890  0.2591
 5668TIP3    H238420   3.894   5.853   5.462 -0.1671  1.4106  1.3277
 5669TIP3   OH238421   4.880   3.238   2.779 -0.2961  0.4408  0.2306
 5669TIP3    H138422   4.918   3.324   2.763 -1.0548  0.9791  1.1604
 5669TIP3    H238423   4.795   3.241   2.735 -0.9788  0.7504  1.4952
 5670TIP3   OH238424   2.261   2.665   4.534  0.2517 -0.3332  0.5159
 5670TIP3    H138425   2.343   2.698   4.498 -0.7891  0.5624 -1.1625
 5670TIP3    H238426   2.286   2.589   4.587  2.0448 -0.8120 -0.9274
 5671TIP3   OH238427   6.457   3.854   2.700 -0.0198 -0.4336  0.6639
 5671TIP3    H138428   6.497   3.810   2.775 -0.0683 -0.5888  0.5984
 5671TIP3    H238429   6.415   3.931   2.738  2.3923  1.1130  0.4537
 5672TIP3   OH238430   6.596   2.783   2.155 -0.2202  0.0732 -0.5067
 5672TIP3    H138431   6.577   2.698   2.115 -1.7453  0.2120 -0.1168
 5672TIP3    H238432   6.515   2.809   2.197  1.0044  0.4581  1.7816
 5673TIP3   OH238433   0.275   4.422  10.610  0.3435 -0.0169  0.4916
 5673TIP3    H138434   0.326   4.345  10.584  0.3728  0.5458 -1.2731
 5673TIP3    H238435   0.313   4.494  10.559 -1.3651  0.6537  0.0967
 5674TIP3   OH238436   0.623   1.405   6.193  0.2784  0.6026  0.2564
 5674TIP3    H138437   0.556   1.361   6.246 -0.8927  1.9699 -0.0427
 5674TIP3    H238438   0.655   1.476   6.248  1.3531  0.1210  0.2967
 5675TIP3   OH238439   5.648   5.832   3.128  0.2006 -0.1573  0.5806
 5675TIP3    H138440   5.691   5.776   3.065  0.4142  0.1791  0.4250
 5675TIP3    H238441   5.558   5.839   3.097  0.1425 -0.5159  0.6709
 5676TIP3   OH238442   4.529   3.989   3.457  0.4621 -0.0614  0.3288
 5676TIP3    H138443   4.479   3.952   3.530 -1.4241  1.7445  0.0488
 5676TIP3    H238444   4.500   3.939   3.381  0.3564 -0.1442  0.4226
 5677TIP3   OH238445   3.530   3.240   6.858 -0.2143  0.3267 -0.0267
 5677TIP3    H138446   3.523   3.314   6.918 -2.2774 -0.3064  0.5849
 5677TIP3    H238447   3.623   3.216   6.860  0.3618  2.3735  0.3496
 5678TIP3   OH238448   5.572   5.912  17.366 -0.4267 -0.3682 -0.6021
 5678TIP3    H138449   5.600   5.836  17.417  0.0045  0.7904  0.9654
 5678TIP3    H238450   5.649   5.935  17.314 -0.9949 -1.7988 -2.1873
 5679TIP3   OH238451   3.268   3.042  11.334 -0.4380  0.2871  0.1480
 5679TIP3    H138452   3.221   3.091  11.400 -0.0126 -0.5550  1.1016
 5679TIP3    H238453   3.305   2.967  11.381  0.2950 -0.0604 -0.9343
 5680TIP3   OH238454   2.293   1.325  14.973 -0.1331 -0.3750 -0.7781
 5680TIP3    H138455   2.370   1.338  15.029 -1.2311 -2.4321  1.4050
 5680TIP3    H238456   2.234   1.397  14.996 -0.4437 -1.0224  0.5879
 5681TIP3   OH238457   5.289   4.805  15.739  0.0320  0.1212  0.5237
 5681TIP3    H138458   5.195   4.788  15.730  0.0609 -0.7082  1.6481
 5681TIP3    H238459   5.327   4.720  15.760  1.0463  0.4476  0.0645
 5682TIP3   OH238460   5.402   2.933  17.243 -0.0123 -0.0896 -0.2135
 5682TIP3    H138461   5.436   2.895  17.162 -0.8349  1.2181 -1.2122
 5682TIP3    H238462   5.332   2.991  17.215 -1.7321 -1.1594  1.6346
 5683TIP3   OH238463   2.393   3.517  17.322  0.2909  0.0852 -0.3879
 5683TIP3    H138464   2.303   3.509  17.355  0.0988 -0.7968 -1.0826
 5683TIP3    H238465   2.443   3.548  17.397 -0.4806 -0.0528  0.1985
 5684TIP3   OH238466   2.654   4.828   4.269 -0.7672  0.1585 -0.0564
 5684TIP3    H138467   2.605   4.910   4.257 -1.4287 -0.1072  0.7198
 5684TIP3    H238468   2.588   4.759   4.264 -0.2633 -0.3130 -0.3642
 5685TIP3   OH238469   0.399   6.118  13.124  0.2713  0.5442  0.4427
 5685TIP3    H138470   0.387   6.134  13.217 -1.2328  0.3788  0.3082
 5685TIP3    H238471   0.355   6.191  13.081  0.8084  0.5310 -0.1375
 5686TIP3   OH238472   5.641   1.377  12.893 -0.5597 -0.0661 -0.1029
 5686TIP3    H138473   5.621   1.290  12.926 -0.7925 -0.0120 -0.0973
 5686TIP3    H238474   5.555   1.416  12.875 -0.4374 -0.1178 -0.8198
 5687TIP3   OH238475   4.941   0.276  10.899  0.1923  0.3428  0.0434
 5687TIP3    H138476   5.018   0.316  10.939  1.3147 -1.7707  0.1526
 5687TIP3    H238477   4.974   0.196  10.858 -1.5377  0.6185 -2.0962
 5688TIP3   OH238478   3.179   3.373   0.244  0.0855 -0.2829  0.2317
 5688TIP3    H138479   3.169   3.390   0.150 -2.7395  0.3019  0.5245
 5688TIP3    H238480   3.214   3.284   0.249  0.9740 -0.0589 -1.3558
 5689TIP3   OH238481   4.635   3.111   2.853 -0.1109  0.2846 -0.2497
 5689TIP3    H138482   4.657   3.168   2.926 -0.5088 -2.3176  2.0484
 5689TIP3    H238483   4.720   3.081   2.820  0.1356  2.5805 -1.9353
 5690TIP3   OH238484   6.409   5.115  16.160 -0.2009  0.6764 -0.7734
 5690TIP3    H138485   6.343   5.077  16.218  0.8182  1.7597  1.1623
 5690TIP3    H238486   6.402   5.210  16.173  2.0884  0.8080 -0.0710
 5691TIP3   OH238487   5.319   0.128  12.979 -0.3525 -0.5616 -0.3784
 5691TIP3    H138488   5.301   0.091  12.893 -0.5407 -0.1317 -0.5273
 5691TIP3    H238489   5.319   0.223  12.965 -2.2381 -0.4135  0.4412
 5692TIP3   OH238490   6.478   5.880  11.681 -0.1742  0.2710 -0.0202
 5692TIP3    H138491   6.524   5.956  11.644 -1.4378 -0.4997 -3.6115
 5692TIP3    H238492   6.392   5.913  11.704 -0.9845 -0.1329 -2.2927
 5693TIP3   OH238493   1.710   4.646   4.172  0.4985 -0.1286  0.2558
 5693TIP3    H138494   1.682   4.735   4.151  0.1725  0.6302  3.4130
 5693TIP3    H238495   1.629   4.595   4.174  0.6303 -0.4296 -1.0365
 5694TIP3   OH238496   2.989   4.490  14.481 -0.1947 -0.2515 -0.5469
 5694TIP3    H138497   3.052   4.420  14.496  0.4589  0.6175  0.9932
 5694TIP3    H238498   3.040   4.561  14.442 -0.1798  0.4542  0.7001
 5695TIP3   OH238499   2.595   3.456   2.001 -0.1271  0.1568 -0.3319
 5695TIP3    H138500   2.555   3.414   1.925  0.3618 -0.4608 -0.2583
 5695TIP3    H238501   2.571   3.400   2.075 -1.6476  1.4109  0.1980
 5696TIP3   OH238502   5.967   3.361   4.755  0.3007  0.4592  0.1521
 5696TIP3    H138503   5.989   3.442   4.801  1.1931  1.1088 -1.3085
 5696TIP3    H238504   5.912   3.390   4.682 -0.6716 -0.4684  0.4919
 5697TIP3   OH238505   6.298   3.209  12.796 -0.1241 -0.0984 -0.3112
 5697TIP3    H138506   6.393   3.196  12.802 -0.0281  0.1410 -1.2020
 5697TIP3    H238507   6.260   3.128  12.830  0.3079  1.0279  3.4034
 5698TIP3   OH238508   3.067   1.228  16.429  0.1674 -0.3850 -0.3904
 5698TIP3    H138509   2.994   1.288  16.442  1.2248  0.9584 -0.5146
 5698TIP3    H238510   3.033   1.163  16.367 -0.3041  1.4361 -2.1724
 5699TIP3   OH238511   2.415   3.260  13.245 -0.5276 -1.1153 -0.1958
 5699TIP3    H138512   2.460   3.198  13.302 -2.6923 -2.0273  0.6463
 5699TIP3    H238513   2.381   3.206  13.173  1.1172 -0.1757 -1.7416
 5700TIP3   OH238514   0.479   2.419   4.825  0.2742 -0.1317  0.2139
 5700TIP3    H138515   0.442   2.364   4.893  0.4385 -0.1304  0.3046
 5700TIP3    H238516   0.526   2.358   4.767 -0.7434 -0.2693 -0.4900
 5701TIP3   OH238517   0.109   5.738   0.708 -0.4622 -0.9322  0.4340
 5701TIP3    H138518   0.180   5.693   0.663 -1.1373 -0.7211 -0.8704
 5701TIP3    H238519   0.141   5.828   0.720 -1.0751 -0.4143 -1.5394
 5702TIP3   OH238520   0.166   6.109   3.614  0.6076 -0.3526  0.3114
 5702TIP3    H138521   0.125   6.064   3.540 -0.7101  1.1454  0.0830
 5702TIP3    H238522   0.095   6.157   3.655  1.8125  0.8715  1.0262
 5703TIP3   OH238523   0.254   4.568  11.392 -0.4979  0.1058  0.1559
 5703TIP3    H138524   0.215   4.634  11.335  1.5608 -0.2355 -1.7956
 5703TIP3    H238525   0.315   4.616  11.448  0.9384 -0.0717 -1.2066
 5704TIP3   OH238526   5.853   0.401  13.943  0.1759 -0.2175  0.7346
 5704TIP3    H138527   5.862   0.313  13.978  0.9274 -0.4604 -0.0307
 5704TIP3    H238528   5.943   0.431  13.931  0.0372 -0.6810 -2.2624
 5705TIP3   OH238529   5.241   3.461   0.060 -0.0022 -0.6258 -0.5111
 5705TIP3    H138530   5.196   3.477  -0.023  0.3480  0.3110 -0.5290
 5705TIP3    H238531   5.278   3.374   0.050  1.6911  0.2104 -2.1227
 5706TIP3   OH238532   1.038   1.964  13.922  0.7076 -0.9386  0.1112
 5706TIP3    H138533   1.075   1.876  13.914 -0.0803 -1.1214 -2.4160
 5706TIP3    H238534   1.112   2.019  13.944  1.5701 -1.9891 -0.0704
 5707TIP3   OH238535   6.392   1.836   2.198 -0.7511 -0.2708 -0.5600
 5707TIP3    H138536   6.361   1.914   2.152 -2.5594  0.4586  1.6991
 5707TIP3    H238537   6.416   1.867   2.285 -0.2970 -2.0486 -0.0040
 5708TIP3   OH238538   0.542   2.360   2.367 -0.1256  0.1474 -0.1282
 5708TIP3    H138539   0.450   2.372   2.389  0.0621 -0.7885  1.3821
 5708TIP3    H238540   0.586   2.435   2.407  0.0034 -0.6021  1.1911
 5709TIP3   OH238541   2.982   1.543  15.182 -0.7057  0.1048  0.4755
 5709TIP3    H138542   3.035   1.525  15.105  0.3977  1.1176  0.9731
 5709TIP3    H238543   3.026   1.499  15.254 -1.2227 -0.0744  0.6905
 5710TIP3   OH238544   4.344   5.081  13.090 -0.1291 -0.6392  0.5428
 5710TIP3    H138545   4.309   5.163  13.056 -1.7128 -0.9420  1.3655
 5710TIP3    H238546   4.337   5.090  13.185 -1.7411 -2.2953  0.6235
 5711TIP3   OH238547   0.450   1.244   0.180  0.6310  0.1732  0.2134
 5711TIP3    H138548   0.380   1.273   0.240  0.7075  0.7275  0.0439
 5711TIP3    H238549   0.489   1.169   0.224 -1.6369 -1.7090 -0.8070
 5712TIP3   OH238550   0.081   0.085   1.489 -0.1411 -0.3249  0.3365
 5712TIP3    H138551   0.099   0.091   1.395  1.9945  0.1966  0.7291
 5712TIP3    H238552   0.013   0.150   1.505  3.0327  3.4598 -0.0975
 5713TIP3   OH238553   3.153   3.103  14.208 -0.6442  1.0081  0.1818
 5713TIP3    H138554   3.208   3.101  14.286 -2.3068 -0.6737  1.4193
 5713TIP3    H238555   3.066   3.124  14.241 -1.1650  1.4814 -1.4129
 5714TIP3   OH238556   3.382   0.634   3.101  0.0185  0.3989  0.0685
 5714TIP3    H138557   3.458   0.684   3.070  1.8357 -0.3535  2.9741
 5714TIP3    H238558   3.406   0.542   3.087 -1.4545  0.1552 -1.1831
 5715TIP3   OH238559   2.515   0.753  15.670  0.2045 -0.1090 -0.2914
 5715TIP3    H138560   2.573   0.683  15.640  1.2692  0.3930  0.5232
 5715TIP3    H238561   2.537   0.764  15.762 -1.3115  0.0066  0.0844
 5716TIP3   OH238562   4.780   0.984  13.394  0.1820 -0.1706  0.2975
 5716TIP3    H138563   4.867   0.962  13.426  0.5634  0.4218 -0.3114
 5716TIP3    H238564   4.768   0.929  13.316  1.1660  1.6987 -1.2704
 5717TIP3   OH238565   3.676   1.284  15.514  0.9468  0.6374  0.1547
 5717TIP3    H138566   3.594   1.272  15.466  0.4281 -0.5442  1.2611
 5717TIP3    H238567   3.744   1.254  15.453  0.4914  0.9417 -0.5142
 5718TIP3   OH238568   0.661   5.500  14.990  0.4849 -0.5300 -0.4726
 5718TIP3    H138569   0.612   5.430  14.946  0.6045 -0.1892 -1.1746
 5718TIP3    H238570   0.625   5.504  15.078  0.1848 -1.1915 -0.5617
 5719TIP3   OH238571   6.753   0.664   2.520 -0.4906 -0.2823  0.1321
 5719TIP3    H138572   6.808   0.597   2.560 -1.4863 -0.4781  1.1988
 5719TIP3    H238573   6.808   0.743   2.519  0.2247 -0.7729  0.0679
 5720TIP3   OH238574   3.935   3.403  14.329 -0.3271  0.7361 -0.4897
 5720TIP3    H138575   3.954   3.426  14.420 -0.2030 -1.1303 -0.0041
 5720TIP3    H238576   3.962   3.480  14.278 -0.1195  1.6899  1.0095
 5721TIP3   OH238577   0.804   4.052  14.429 -0.0576 -0.5391  0.3473
 5721TIP3    H138578   0.764   3.979  14.381  0.1098 -0.7072  0.4604
 5721TIP3    H238579   0.840   4.011  14.508 -1.3035 -0.0960  1.1696
 5722TIP3   OH238580   4.322   0.240  12.792 -0.9275  0.0843 -0.2192
 5722TIP3    H138581   4.321   0.219  12.885  1.4197 -1.1855 -0.3982
 5722TIP3    H238582   4.249   0.191  12.755 -0.1067 -1.7876  0.5456
 5723TIP3   OH238583   5.541   4.178  14.253 -0.6328 -0.5296 -0.3657
 5723TIP3    H138584   5.496   4.258  14.280 -0.2543 -0.2428 -0.5758
 5723TIP3    H238585   5.489   4.145  14.179 -1.1212 -0.8002  0.0882
 5724TIP3   OH238586   0.786   4.195   1.818  0.1457  0.0874 -0.2367
 5724TIP3    H138587   0.717   4.216   1.756  1.3856 -1.9408 -2.5031
 5724TIP3    H238588   0.864   4.239   1.784  0.7023 -0.4688  0.2663
 5725TIP3   OH238589   6.216   2.817   6.066  0.6331  0.0801 -0.0923
 5725TIP3    H138590   6.281   2.766   6.017  0.1328 -0.4527 -0.2058
 5725TIP3    H238591   6.166   2.863   5.998 -0.6058 -1.3005 -0.1684
 5726TIP3   OH238592   0.105   1.638  15.131 -0.6316 -0.5847 -0.1571
 5726TIP3    H138593   0.079   1.558  15.084 -2.2661 -0.9012  1.2215
 5726TIP3    H238594   0.201   1.634  15.132 -0.6698 -2.7112  0.1477
 5727TIP3   OH238595   6.228   1.483  11.514 -0.0947  0.2080 -0.8684
 5727TIP3    H138596   6.159   1.476  11.448 -0.8427 -0.7112 -0.0111
 5727TIP3    H238597   6.230   1.576  11.537  0.8075  0.7384 -2.8109
 5728TIP3   OH238598   1.294   6.170   3.870 -0.2478 -0.4981  0.8449
 5728TIP3    H138599   1.301   6.218   3.952 -1.5754 -0.1292  0.7589
 5728TIP3    H238600   1.290   6.237   3.802  0.5945 -0.7956  0.4778
 5729TIP3   OH238601   1.923   6.192  16.162 -0.6714  0.6810  0.4373
 5729TIP3    H138602   1.932   6.172  16.069  0.3863  0.3510  0.5945
 5729TIP3    H238603   1.922   6.288  16.166  1.4217  0.7683  0.2180
 5730TIP3   OH238604   2.961   4.860  14.937  0.1620 -0.4734 -0.4375
 5730TIP3    H138605   3.022   4.910  14.882 -0.1419  1.0461  0.5508
 5730TIP3    H238606   2.930   4.923  15.002 -2.0275 -1.3493 -0.5532
 5731TIP3   OH238607   3.367   2.680   4.642 -0.3957 -0.7681 -0.1604
 5731TIP3    H138608   3.400   2.725   4.719 -0.6415  2.4491 -1.7478
 5731TIP3    H238609   3.276   2.708   4.635  0.1451  0.7628 -2.6057
 5732TIP3   OH238610   2.831   2.468   1.437 -0.0732  0.2423  0.0606
 5732TIP3    H138611   2.843   2.559   1.466 -0.6527 -0.2846  2.1070
 5732TIP3    H238612   2.785   2.476   1.354 -0.2390  1.8315  0.2606
 5733TIP3   OH238613   2.434   0.219   1.217  0.5847  0.0799  0.5905
 5733TIP3    H138614   2.434   0.142   1.161  0.7821  1.2448 -1.0760
 5733TIP3    H238615   2.429   0.184   1.306 -3.0489 -1.8108 -0.1507
 5734TIP3   OH238616   2.346   0.146   2.961  0.1086 -0.2473 -0.0684
 5734TIP3    H138617   2.253   0.137   2.985 -0.2556  1.5419 -0.6307
 5734TIP3    H238618   2.392   0.145   3.045 -0.3698 -1.4492  0.2029
 5735TIP3   OH238619   2.082   5.952   2.822 -0.0086 -0.0159 -0.0801
 5735TIP3    H138620   2.151   5.891   2.849  1.3190  1.3097 -0.3377
 5735TIP3    H238621   2.129   6.024   2.779 -1.4287  1.5345  0.8187
 5736TIP3   OH238622   0.090   0.913  14.009  0.8202  0.4441 -0.3211
 5736TIP3    H138623   0.078   0.873  14.095  0.7192  1.3999  0.1196
 5736TIP3    H238624   0.173   0.878  13.977  1.0435  0.3811  0.3332
 5737TIP3   OH238625   3.852   2.069   1.102 -0.2839  0.8422  0.0504
 5737TIP3    H138626   3.770   2.074   1.054 -0.6441 -1.1842  0.3383
 5737TIP3    H238627   3.837   2.120   1.181 -1.4394  0.1823  0.2852
 5738TIP3   OH238628   6.339   6.629  11.262 -0.1854 -0.0056 -0.5048
 5738TIP3    H138629   6.264   6.634  11.202  0.6653  0.9640 -1.5302
 5738TIP3    H238630   6.405   6.580  11.212 -0.3537 -1.4943  0.6638
 5739TIP3   OH238631   3.929   6.649   6.395 -0.1161  0.1092  0.2960
 5739TIP3    H138632   3.984   6.615   6.465 -0.3106  1.5122  1.1717
 5739TIP3    H238633   3.986   6.709   6.346 -0.2949 -0.0208 -0.0803
 5740TIP3   OH238634   6.385   5.383  11.406 -0.3068 -0.5760 -0.0131
 5740TIP3    H138635   6.347   5.421  11.326 -0.6302  2.1714  1.3194
 5740TIP3    H238636   6.431   5.456  11.447  0.7092 -2.1710  1.8376
 5741TIP3   OH238637   0.607   6.268   5.669  0.7665 -0.6087  0.3449
 5741TIP3    H138638   0.683   6.219   5.702  1.1427 -1.8430 -2.1290
 5741TIP3    H238639   0.643   6.351   5.638  1.0429 -0.9936 -0.3804
 5742TIP3   OH238640   3.317   0.679  15.700 -0.0430 -0.6439 -0.3198
 5742TIP3    H138641   3.318   0.626  15.779  0.4964 -1.1828 -0.6790
 5742TIP3    H238642   3.338   0.618  15.629  2.1180  0.2884 -0.5784
 5743TIP3   OH238643   4.496   6.703   0.602  0.1331 -0.5604 -0.0819
 5743TIP3    H138644   4.479   6.609   0.602  0.6412 -0.6533 -0.1434
 5743TIP3    H238645   4.410   6.742   0.588 -0.3356 -0.9580  1.4428
 5744TIP3   OH238646   0.659   0.970  12.156  0.5407 -0.6041  0.2148
 5744TIP3    H138647   0.622   1.058  12.146  0.8121 -0.6427 -1.4769
 5744TIP3    H238648   0.659   0.954  12.250  2.7623  2.2192  0.8488
 5745TIP3   OH238649   6.240   4.470  13.997  0.1298  0.7058  0.5574
 5745TIP3    H138650   6.298   4.545  13.984  0.0118  0.7824  0.4594
 5745TIP3    H238651   6.175   4.501  14.060 -0.4305  0.9834 -0.1326
 5746TIP3   OH238652   6.460   6.689   1.546 -0.0608 -0.0038 -0.1137
 5746TIP3    H138653   6.487   6.616   1.602  0.0338  1.5053  1.9103
 5746TIP3    H238654   6.405   6.744   1.603  0.7373  2.0414 -1.2237
 5747TIP3   OH238655   1.926   1.308   0.965  0.7113  0.3418 -0.0482
 5747TIP3    H138656   1.860   1.371   0.939  0.4531  0.8335  1.6861
 5747TIP3    H238657   1.929   1.245   0.892  0.4897  1.9366 -1.4893
 5748TIP3   OH238658   1.865   2.750   4.839 -0.3345  0.2517 -0.6076
 5748TIP3    H138659   1.834   2.667   4.804 -1.1997  0.4712 -0.4006
 5748TIP3    H238660   1.852   2.742   4.934  0.6194  0.2093 -0.4727
 5749TIP3   OH238661   3.359   1.811   1.596 -0.3396  0.0190 -0.1505
 5749TIP3    H138662   3.381   1.727   1.554 -0.0784  0.0021  0.0213
 5749TIP3    H238663   3.443   1.851   1.615 -0.4544 -0.0089  0.4296
 5750TIP3   OH238664   5.934   3.118   6.054 -0.2530 -0.2054  0.7215
 5750TIP3    H138665   5.970   3.084   5.972  0.0122 -0.1168  0.7986
 5750TIP3    H238666   5.966   3.058   6.121 -1.2891 -0.8522  0.6482
 5751TIP3   OH238667   0.496   4.134  17.369 -0.7761  0.1563 -0.3313
 5751TIP3    H138668   0.521   4.042  17.375 -4.2015 -0.9142 -0.4185
 5751TIP3    H238669   0.540   4.176  17.443  0.5564 -1.5829 -0.0614
 5752TIP3   OH238670   0.358   1.785  17.013  0.0263  0.5385  0.2069
 5752TIP3    H138671   0.347   1.750  16.925  1.1975 -1.2457  0.7048
 5752TIP3    H238672   0.290   1.851  17.022 -1.1420 -0.3683 -1.4640
 5753TIP3   OH238673   1.332   1.916  15.473 -0.3841  0.4712  0.8455
 5753TIP3    H138674   1.256   1.973  15.482 -1.3162 -0.8701  1.9227
 5753TIP3    H238675   1.397   1.969  15.427 -2.7136  0.9725 -2.2170
 5754TIP3   OH238676   4.795   1.970   6.100  0.0816 -0.3812  0.1572
 5754TIP3    H138677   4.862   1.918   6.057 -0.1949  1.1738 -2.3750
 5754TIP3    H238678   4.837   2.054   6.119 -0.7026  0.1099 -0.1725
 5755TIP3   OH238679   4.546   6.461   2.725 -0.1869  0.1764  0.0563
 5755TIP3    H138680   4.477   6.468   2.659 -0.3919  1.9342  0.4084
 5755TIP3    H238681   4.627   6.477   2.677 -0.1184 -0.6775 -0.1333
 5756TIP3   OH238682   4.841   2.218   4.354 -0.0302 -0.1344  0.4041
 5756TIP3    H138683   4.931   2.238   4.379 -0.1194 -0.7770  1.2769
 5756TIP3    H238684   4.791   2.228   4.435 -0.8057  0.5143 -0.1324
 5757TIP3   OH238685   6.766   4.639  11.653  0.2929 -0.1498  0.0790
 5757TIP3    H138686   6.695   4.639  11.718  0.9150 -0.5740  0.7704
 5757TIP3    H238687   6.730   4.689  11.580 -0.6349 -0.1406  0.5143
 5758TIP3   OH238688   0.552   2.262   5.670  0.4331  0.4348 -0.0819
 5758TIP3    H138689   0.607   2.187   5.649 -0.6290  0.0246 -1.5907
 5758TIP3    H238690   0.613   2.335   5.683  1.3527 -0.1855 -0.8553
 5759TIP3   OH238691   1.699   4.594   4.465 -0.0479  0.1920  0.9853
 5759TIP3    H138692   1.694   4.511   4.511 -1.0207 -0.5642 -0.4012
 5759TIP3    H238693   1.784   4.592   4.420 -0.6904 -0.7676 -0.2617
 5760TIP3   OH238694   4.787   0.161   4.383  0.4472 -0.3908  0.5220
 5760TIP3    H138695   4.790   0.117   4.468 -3.6829 -1.9929  0.0823
 5760TIP3    H238696   4.701   0.204   4.381  0.4735 -0.2127 -2.7461
 5761TIP3   OH238697   5.335   0.585  13.690 -0.1721 -0.7156 -0.5638
 5761TIP3    H138698   5.280   0.548  13.758  0.2456  1.2765  0.9542
 5761TIP3    H238699   5.275   0.636  13.636  0.0029  0.9352  0.7157
 5762TIP3   OH238700   4.209   3.467   2.783 -0.0919  0.0950 -0.2747
 5762TIP3    H138701   4.175   3.458   2.872 -0.3140 -2.0249 -0.5180
 5762TIP3    H238702   4.132   3.459   2.727 -0.0389  2.0419 -0.6736
 5763TIP3   OH238703   2.273   4.063  17.001 -0.0917 -0.4646  0.3131
 5763TIP3    H138704   2.207   4.035  16.939 -1.0764 -0.5235  1.3533
 5763TIP3    H238705   2.259   4.008  17.078  0.7705 -0.0567  0.7816
 5764TIP3   OH238706   6.320   2.190  16.127 -0.6800  0.3361  0.3709
 5764TIP3    H138707   6.303   2.244  16.204  0.0191  1.5133 -0.2667
 5764TIP3    H238708   6.415   2.183  16.122 -0.6756  0.9079 -0.7880
 5765TIP3   OH238709   1.947   6.397  14.235 -0.2082 -0.3885  0.6273
 5765TIP3    H138710   1.953   6.491  14.252  1.3786 -0.3814  0.1051
 5765TIP3    H238711   1.986   6.385  14.149  0.2696 -1.6250  0.9948
 5766TIP3   OH238712   4.694   6.305  14.442 -0.5012  0.1957 -0.2272
 5766TIP3    H138713   4.706   6.210  14.433 -1.4059  0.1902 -1.7299
 5766TIP3    H238714   4.783   6.340  14.444 -0.1528 -0.5492 -1.6135
 5767TIP3   OH238715   1.903   3.157  13.183  0.6909 -0.0151 -0.1221
 5767TIP3    H138716   1.838   3.174  13.251  1.3259  0.3931  0.3915
 5767TIP3    H238717   1.857   3.176  13.101 -0.3417 -1.3649  0.1291
 5768TIP3   OH238718   4.682   4.456  11.480  0.2205 -0.0177 -0.0185
 5768TIP3    H138719   4.679   4.517  11.554  0.9382 -0.1000  0.0909
 5768TIP3    H238720   4.776   4.440  11.467  0.0379 -1.7265  0.4708
 5769TIP3   OH238721   4.807   6.414   6.358 -0.1915 -0.1856  0.2920
 5769TIP3    H138722   4.876   6.350   6.373  0.5131 -0.6805 -3.8064
 5769TIP3    H238723   4.844   6.497   6.388  0.3879 -1.0562  2.1327
 5770TIP3   OH238724   1.511   6.300  14.675 -0.1706  0.1313 -0.5836
 5770TIP3    H138725   1.564   6.223  14.696 -0.7116  0.0388  0.5277
 5770TIP3    H238726   1.507   6.349  14.757  0.8437  1.7868 -1.4805
 5771TIP3   OH238727   1.338   3.916   1.460  0.1555  0.0251 -0.2528
 5771TIP3    H138728   1.335   3.989   1.398 -0.4170  0.5817  0.4081
 5771TIP3    H238729   1.247   3.887   1.468  0.0804  0.5252  0.9538
 5772TIP3   OH238730   6.590   4.272  17.005 -0.5511  0.3384  0.7302
 5772TIP3    H138731   6.512   4.319  16.974  0.7418  1.6598 -0.6604
 5772TIP3    H238732   6.658   4.292  16.941  0.9311 -0.8891  1.8292
 5773TIP3   OH238733   4.111   2.336  17.182 -0.4136  0.1015  0.4214
 5773TIP3    H138734   4.170   2.276  17.228 -1.8279  0.2736  2.6077
 5773TIP3    H238735   4.038   2.281  17.154 -0.1514  0.2399 -0.5895
 5774TIP3   OH238736   2.377   3.420   3.012  0.3761 -0.1702 -0.1342
 5774TIP3    H138737   2.414   3.378   2.934  1.2078 -1.0628  0.7225
 5774TIP3    H238738   2.368   3.349   3.076 -0.1179  0.5869  0.6575
 5775TIP3   OH238739   5.013   3.172  17.371  0.1705 -0.7078  0.1977
 5775TIP3    H138740   5.075   3.180  17.444  1.0867  0.0491 -0.6407
 5775TIP3    H238741   4.931   3.205  17.406  0.2570 -1.6026  1.2918
 5776TIP3   OH238742   0.641   1.959   0.784 -0.3319 -0.6735  0.4009
 5776TIP3    H138743   0.620   1.973   0.691  1.9110 -1.0587 -0.2428
 5776TIP3    H238744   0.702   1.885   0.783  1.8355  0.9487  1.8674
 5777TIP3   OH238745   5.473   0.993   1.690  0.0930  0.7562 -0.0953
 5777TIP3    H138746   5.480   0.902   1.661  0.8091  0.2449  1.5391
 5777TIP3    H238747   5.382   1.003   1.717 -0.5495  1.2054 -2.2774
 5778TIP3   OH238748   2.740   5.926  12.861 -0.3526 -0.4416 -0.0740
 5778TIP3    H138749   2.827   5.938  12.899 -0.1292  1.7102 -1.1585
 5778TIP3    H238750   2.687   5.892  12.934  0.7643  0.7354  1.3424
 5779TIP3   OH238751   2.128   3.849   2.908  0.1452 -0.0265 -0.4611
 5779TIP3    H138752   2.155   3.776   2.963 -1.9004  0.5532  1.4395
 5779TIP3    H238753   2.197   3.915   2.919  2.1539 -1.6503 -2.4183
 5780TIP3   OH238754   2.938   1.963  16.685 -0.1451  0.1029  0.2987
 5780TIP3    H138755   2.880   1.926  16.751 -1.2924 -1.2508 -1.4062
 5780TIP3    H238756   2.910   1.924  16.602  1.6994  1.1955 -0.9236
 5781TIP3   OH238757   5.998   4.733  15.765 -1.1545  0.0246  0.1608
 5781TIP3    H138758   6.009   4.827  15.751 -2.4206  0.3112  0.9368
 5781TIP3    H238759   6.072   4.693  15.719 -0.3866  1.4132  0.1313
 5782TIP3   OH238760   2.313   1.084  13.560  0.5901 -0.2145 -0.2737
 5782TIP3    H138761   2.245   1.150  13.571  0.1974 -0.1467 -2.5363
 5782TIP3    H238762   2.293   1.017  13.626 -1.9368 -0.3777 -1.1023
 5783TIP3   OH238763   2.560   5.562   2.328  0.5328 -0.1687  0.0258
 5783TIP3    H138764   2.470   5.591   2.342 -0.1530 -1.0882 -1.9488
 5783TIP3    H238765   2.556   5.467   2.341  1.2533 -0.1901  0.1131
 5784TIP3   OH238766   4.796   0.120  15.567 -0.3408  0.4521  0.3253
 5784TIP3    H138767   4.737   0.045  15.571  1.6335 -1.2337 -0.5698
 5784TIP3    H238768   4.857   0.106  15.640  1.0520  0.2339 -0.8310
 5785TIP3   OH238769   0.796   5.877  14.271  0.3205 -0.3339  0.3829
 5785TIP3    H138770   0.803   5.921  14.186 -1.0674 -1.3078 -0.2631
 5785TIP3    H238771   0.884   5.883  14.308  0.3643  2.4338  0.0751
 5786TIP3   OH238772   4.233   0.514  12.460 -0.3181  0.2729 -0.4336
 5786TIP3    H138773   4.272   0.428  12.447  0.4073  0.8087 -2.0859
 5786TIP3    H238774   4.154   0.497  12.511  0.2853 -1.2495  0.0404
 5787TIP3   OH238775   0.448   6.597  13.364  0.2079  0.2854 -0.3132
 5787TIP3    H138776   0.447   6.692  13.358  0.8904  0.3821  0.7869
 5787TIP3    H238777   0.474   6.568  13.277  0.4505  1.1334 -0.5311
 5788TIP3   OH238778   5.258   4.246   3.600  0.5131 -0.3477  0.0106
 5788TIP3    H138779   5.208   4.220   3.677  1.0503 -0.0028  0.4883
 5788TIP3    H238780   5.263   4.342   3.606  3.7709 -0.4677  1.6656
 5789TIP3   OH238781   4.569   5.638   3.727 -0.2362 -0.1209  0.0878
 5789TIP3    H138782   4.548   5.545   3.715 -0.4230 -0.0259 -0.3169
 5789TIP3    H238783   4.486   5.680   3.747 -0.4855  0.2684 -1.6023
 5790TIP3   OH238784   5.150   4.561  15.539  0.3411  0.3167  0.2500
 5790TIP3    H138785   5.157   4.559  15.634  1.5172  1.9840  0.2528
 5790TIP3    H238786   5.233   4.523  15.508 -1.4175 -3.5954 -0.2543
 5791TIP3   OH238787   5.093   5.545   1.014 -0.1625 -0.3515 -0.3054
 5791TIP3    H138788   5.161   5.505   0.960  0.4072 -0.5558  0.5363
 5791TIP3    H238789   5.056   5.473   1.064  2.1543  0.2733  2.6322
 5792TIP3   OH238790   3.800   2.363   5.199 -0.0667  0.1668 -0.1517
 5792TIP3    H138791   3.741   2.417   5.145  0.3844  1.5656  0.6806
 5792TIP3    H238792   3.849   2.310   5.136 -0.4211  0.8511 -1.0358
 5793TIP3   OH238793   5.769   2.682  13.637 -0.0215 -0.1461  0.2376
 5793TIP3    H138794   5.741   2.718  13.553  0.3771  1.0117  0.5879
 5793TIP3    H238795   5.705   2.716  13.700  0.0421 -0.5083  0.5026
 5794TIP3   OH238796   3.909   4.076  16.262 -0.3896 -0.2075 -0.1912
 5794TIP3    H138797   3.940   4.075  16.353 -1.4870 -0.5341  0.1964
 5794TIP3    H238798   3.988   4.067  16.210  0.2684  0.0445  0.7311
 5795TIP3   OH238799   3.719   5.205  16.944 -0.4139  0.8333  0.0369
 5795TIP3    H138800   3.740   5.146  17.017  0.5751 -0.4893 -1.2492
 5795TIP3    H238801   3.647   5.161  16.898  0.0265  0.8515 -0.6776
 5796TIP3   OH238802   2.370   5.169  15.673  0.2051 -0.4770 -0.3967
 5796TIP3    H138803   2.377   5.231  15.746 -0.8335 -0.4444 -0.3141
 5796TIP3    H238804   2.372   5.083  15.715 -0.9671 -0.4522 -0.2585
 5797TIP3   OH238805   0.052   1.756  13.875  0.7827  0.0103  0.3933
 5797TIP3    H138806  -0.040   1.736  13.857 -0.1277  0.5661  3.7308
 5797TIP3    H238807   0.059   1.851  13.862  0.5647  0.1488  1.2587
 5798TIP3   OH238808   4.280   6.728   4.374  0.0398 -0.3444 -0.2623
 5798TIP3    H138809   4.190   6.761   4.382 -0.9040 -2.9329  0.7348
 5798TIP3    H238810   4.317   6.737   4.462 -0.1902 -1.7236 -0.0029
 5799TIP3   OH238811   3.876   1.717  15.558 -0.3008 -0.1948  0.0860
 5799TIP3    H138812   3.794   1.670  15.574  0.7820 -1.9557  0.7162
 5799TIP3    H238813   3.897   1.758  15.642 -1.2563  1.5654 -0.4673
 5800TIP3   OH238814   3.501   4.891   4.733 -0.1087  0.2958  0.3701
 5800TIP3    H138815   3.424   4.874   4.678  0.6358  1.2362 -1.0235
 5800TIP3    H238816   3.563   4.822   4.709  0.3661  0.9374 -0.2931
 5801TIP3   OH238817   0.832   0.928  13.971  0.1242  0.3172  0.1350
 5801TIP3    H138818   0.740   0.945  13.991  0.0933  0.7101 -0.3206
 5801TIP3    H238819   0.837   0.935  13.876  1.7005  6.2357  0.2734
 5802TIP3   OH238820   4.866   3.280   0.449  0.0415  0.0662  0.3101
 5802TIP3    H138821   4.784   3.317   0.418  1.0176  0.8783 -1.5094
 5802TIP3    H238822   4.859   3.187   0.429 -0.9382 -0.1310  1.4389
 5803TIP3   OH238823   5.656   0.357  12.567  0.5982 -0.2340  0.1433
 5803TIP3    H138824   5.581   0.378  12.512 -0.3446  2.2134  2.1873
 5803TIP3    H238825   5.628   0.283  12.620  0.3011 -0.4415 -0.2969
 5804TIP3   OH238826   6.242   4.660  14.809 -0.4609  0.3440 -0.3634
 5804TIP3    H138827   6.328   4.678  14.847  0.0473 -3.5762  0.8011
 5804TIP3    H238828   6.252   4.680  14.716  1.2896  1.1562 -0.0434
 5805TIP3   OH238829   3.864   1.062  11.172 -0.0217  0.1020  0.6548
 5805TIP3    H138830   3.890   1.128  11.108 -0.5881 -0.8461 -0.5985
 5805TIP3    H238831   3.770   1.054  11.161  0.3434 -3.6593 -2.1598
 5806TIP3   OH238832   1.427   1.705  11.767  0.3682 -0.2019 -0.2915
 5806TIP3    H138833   1.341   1.738  11.740  0.3958  0.3936  0.2965
 5806TIP3    H238834   1.411   1.669  11.855  0.6847 -0.2228 -0.2429
 5807TIP3   OH238835   6.664   3.976  15.386 -0.1072  0.0085 -0.0808
 5807TIP3    H138836   6.637   3.896  15.429  1.8694  0.0726  1.4284
 5807TIP3    H238837   6.592   4.037  15.401 -0.0936 -0.4145  1.9345
 5808TIP3   OH238838   2.567   1.636  12.164 -0.4096  0.4226 -0.2842
 5808TIP3    H138839   2.597   1.589  12.242  1.0900  2.1678  0.2672
 5808TIP3    H238840   2.612   1.593  12.092 -2.8078 -2.0712 -0.4737
 5809TIP3   OH238841   2.033   3.984  15.423  0.0037  0.5667 -0.4286
 5809TIP3    H138842   2.012   3.987  15.516  1.3121 -1.6062  0.0201
 5809TIP3    H238843   2.116   4.032  15.415 -0.5357  1.4795 -0.6404
 5810TIP3   OH238844   6.422   5.242   1.266  0.3660  0.7205  1.3795
 5810TIP3    H138845   6.360   5.307   1.300 -0.9189  0.7387 -0.8410
 5810TIP3    H238846   6.417   5.251   1.171  1.7009 -1.2316  1.0637
 5811TIP3   OH238847   4.473   1.126   5.920 -0.7075 -0.5213 -0.6732
 5811TIP3    H138848   4.482   1.175   5.838  2.2491 -0.8289 -0.6466
 5811TIP3    H238849   4.451   1.037   5.892 -1.4034 -0.2499 -1.0089
 5812TIP3   OH238850   3.614   3.560  15.958  0.1328 -0.0836 -0.3112
 5812TIP3    H138851   3.592   3.484  16.013  0.7400 -0.4027 -0.5016
 5812TIP3    H238852   3.529   3.592  15.927 -0.0643 -1.6228 -1.4728
 5813TIP3   OH238853   4.939   1.213  11.181 -0.0695  0.0603  0.5281
 5813TIP3    H138854   4.959   1.122  11.157  1.7219  0.7483 -0.8160
 5813TIP3    H238855   5.024   1.257  11.180 -1.1683  2.3153 -1.3490
 5814TIP3   OH238856   3.854   6.268   4.059  0.2842  0.4247 -0.1120
 5814TIP3    H138857   3.835   6.338   3.996  0.9508  0.2187 -0.5604
 5814TIP3    H238858   3.781   6.269   4.120 -0.1893  0.8756 -0.6804
 5815TIP3   OH238859   2.168   6.747  15.175 -0.6935 -0.3071 -0.0433
 5815TIP3    H138860   2.155   6.781  15.087  0.1568 -0.2288 -0.1420
 5815TIP3    H238861   2.105   6.675  15.183 -1.6205  0.4552 -0.2782
 5816TIP3   OH238862   0.846   2.897  11.276  0.5271  0.0989 -0.0575
 5816TIP3    H138863   0.887   2.909  11.362  0.6553 -0.9350  0.0354
 5816TIP3    H238864   0.919   2.889  11.215  0.5518 -2.6141  0.2221
 5817TIP3   OH238865   6.668   0.676  11.395 -0.0793 -0.0095 -0.6008
 5817TIP3    H138866   6.743   0.620  11.375 -0.3772 -1.0732  1.1263
 5817TIP3    H238867   6.692   0.761  11.359  1.0852 -0.8203 -1.8333
 5818TIP3   OH238868   6.656   3.924   1.275  0.5956  0.4634  0.3251
 5818TIP3    H138869   6.748   3.940   1.256  0.7224  1.5145  1.6373
 5818TIP3    H238870   6.608   3.985   1.218  0.8576  1.7842  1.4481
 5819TIP3   OH238871   0.425   3.326  14.061 -0.5204  0.5527  0.0026
 5819TIP3    H138872   0.416   3.303  13.969 -0.2137 -1.2980  0.3965
 5819TIP3    H238873   0.336   3.343  14.091 -0.6241  1.1042 -0.6082
 5820TIP3   OH238874   5.621   1.504   4.833  0.3668  0.2784 -0.2118
 5820TIP3    H138875   5.656   1.561   4.764 -0.3291 -0.4988 -1.2399
 5820TIP3    H238876   5.592   1.425   4.787 -1.2355  0.2288  0.7825
 5821TIP3   OH238877   5.847   0.112  13.969  0.0148 -0.3325  0.0732
 5821TIP3    H138878   5.936   0.141  13.990 -0.1224 -0.5828  1.0706
 5821TIP3    H238879   5.855   0.017  13.959 -0.3010 -0.4939  1.1828
 5822TIP3   OH238880   1.065   4.987  14.011 -0.2832 -0.2696 -0.1087
 5822TIP3    H138881   1.072   4.893  13.996 -1.9559 -0.5075  0.4012
 5822TIP3    H238882   1.109   5.002  14.094 -0.7358 -0.7591  0.2288
 5823TIP3   OH238883   3.806   3.932  15.865  0.2061  0.5940  0.4867
 5823TIP3    H138884   3.749   3.897  15.796  0.4645 -0.6753  0.8804
 5823TIP3    H238885   3.871   3.985  15.818  0.9820 -1.0625 -0.3939
 5824TIP3   OH238886   2.887   4.656  17.139  0.1873  0.5129  0.3038
 5824TIP3    H138887   2.860   4.624  17.225  0.5759  0.7738  0.5229
 5824TIP3    H238888   2.974   4.693  17.153  0.8333 -0.6537 -0.4644
 5825TIP3   OH238889   0.901   5.459   3.114 -0.2633  0.3217 -0.0705
 5825TIP3    H138890   0.958   5.425   3.183  2.1300  0.2124 -1.9535
 5825TIP3    H238891   0.859   5.535   3.154  1.1495  0.3648  1.4842
 5826TIP3   OH238892   4.363   5.369  16.988 -0.3327 -0.0978 -0.0877
 5826TIP3    H138893   4.448   5.336  16.959 -0.7064 -1.2012  0.0135
 5826TIP3    H238894   4.302   5.298  16.970 -1.0731  0.3095  0.7191
 5827TIP3   OH238895   1.761   2.537   1.117  0.0397 -0.4544 -0.3748
 5827TIP3    H138896   1.793   2.450   1.090 -1.1032 -0.9825 -0.0828
 5827TIP3    H238897   1.673   2.520   1.151 -0.7733  1.0209 -1.6517
 5828TIP3   OH238898   1.202   2.620  16.060  0.0814 -0.1093 -0.4823
 5828TIP3    H138899   1.230   2.671  16.136 -0.7046  0.8025 -0.7882
 5828TIP3    H238900   1.267   2.549  16.054  0.9448  0.5890  0.2170
 5829TIP3   OH238901   4.638   2.782   6.068 -0.1082  0.1734  0.0015
 5829TIP3    H138902   4.649   2.873   6.040 -1.1883 -0.3738 -2.3925
 5829TIP3    H238903   4.621   2.788   6.162  2.0202  2.2553  0.3415
 5830TIP3   OH238904   2.749   3.094  11.374 -0.0266 -0.0541  0.3223
 5830TIP3    H138905   2.667   3.056  11.405 -0.4227 -0.4698 -1.1351
 5830TIP3    H238906   2.789   3.024  11.322  0.1168  0.8997 -0.8961
 5831TIP3   OH238907   1.137   2.526   4.995 -0.4725  0.0114 -0.3207
 5831TIP3    H138908   1.076   2.459   5.027  0.3008  0.4744  2.3459
 5831TIP3    H238909   1.220   2.479   4.986 -0.4558  0.1147 -0.7039
 5832TIP3   OH238910   1.369   1.137  11.697 -0.2449  0.1609 -0.1304
 5832TIP3    H138911   1.434   1.181  11.751  0.2481 -0.1118 -0.4909
 5832TIP3    H238912   1.356   1.196  11.623  0.1086 -0.0965 -0.4042
 5833TIP3   OH238913   0.644   1.712  16.319  0.0727  0.0957 -0.5205
 5833TIP3    H138914   0.662   1.802  16.295  0.0033  0.1338 -0.4302
 5833TIP3    H238915   0.566   1.717  16.374 -0.6257 -0.1322 -1.4690
 5834TIP3   OH238916   1.951   3.079  17.175 -0.4762 -0.3019 -0.2123
 5834TIP3    H138917   1.880   3.016  17.169  2.6541 -4.3571  1.3206
 5834TIP3    H238918   2.007   3.059  17.100  0.0666  1.5598 -0.3650
 5835TIP3   OH238919   1.984   3.257  12.811  0.4972 -0.1761  0.0968
 5835TIP3    H138920   1.905   3.239  12.861  0.3830 -0.1468 -0.0715
 5835TIP3    H238921   2.039   3.308  12.870 -0.1676  0.9603 -0.2339
 5836TIP3   OH238922   3.227   5.594   3.235  0.1639 -0.5044  0.3927
 5836TIP3    H138923   3.267   5.541   3.304  0.5528 -0.7914 -0.0541
 5836TIP3    H238924   3.242   5.545   3.155 -2.1834 -1.3021  0.3403
 5837TIP3   OH238925   5.161   0.779   0.830  0.3108 -0.0160  0.1262
 5837TIP3    H138926   5.071   0.751   0.849  0.0883 -0.0632 -0.9428
 5837TIP3    H238927   5.179   0.846   0.896 -0.6059  0.1691  0.2147
 5838TIP3   OH238928   5.841   2.361  11.601 -0.6954  0.4007  0.2320
 5838TIP3    H138929   5.807   2.368  11.512 -0.6952 -1.0809  0.0806
 5838TIP3    H238930   5.835   2.449  11.637 -1.9578  0.7555 -0.7835
 5839TIP3   OH238931   1.215   3.550   1.406 -0.0015 -0.2363 -0.3391
 5839TIP3    H138932   1.282   3.537   1.472  0.3824 -0.1508 -0.7080
 5839TIP3    H238933   1.204   3.645   1.401  0.0801 -0.2354 -0.5058
 5840TIP3   OH238934   4.187   3.891  13.733 -0.2130  0.2820 -0.0834
 5840TIP3    H138935   4.145   3.904  13.648 -0.2030 -3.1501 -0.7377
 5840TIP3    H238936   4.269   3.846  13.714 -0.7475 -1.6384  1.7415
 5841TIP3   OH238937   4.884   3.981   3.489  0.3343  0.9095  0.0524
 5841TIP3    H138938   4.858   3.927   3.563  0.7587  1.2792  0.4807
 5841TIP3    H238939   4.802   3.998   3.442  0.5166 -2.6909 -1.9399
 5842TIP3   OH238940   0.144   5.360  13.482  0.5267 -0.0488  0.4176
 5842TIP3    H138941   0.170   5.445  13.446  1.2064 -0.2301  0.4721
 5842TIP3    H238942   0.061   5.341  13.439 -0.7120  1.6035  1.9297
 5843TIP3   OH238943   5.283   6.741  11.491  0.2179  1.0342 -0.0959
 5843TIP3    H138944   5.328   6.753  11.407 -0.5986  0.1761 -0.6768
 5843TIP3    H238945   5.249   6.651  11.487 -0.3973  1.2155  0.8838
 5844TIP3   OH238946   0.395   5.328  15.282  0.1939  0.6782  0.1739
 5844TIP3    H138947   0.308   5.349  15.318 -0.1373 -0.2108 -0.0884
 5844TIP3    H238948   0.437   5.413  15.271 -0.2908  1.0669  1.1862
 5845TIP3   OH238949   4.943   2.687   2.478 -0.2870  0.3689 -0.4490
 5845TIP3    H138950   5.016   2.700   2.417  1.1338 -1.1755  0.8098
 5845TIP3    H238951   4.868   2.671   2.422  1.0010 -1.1773 -1.8548
 5846TIP3   OH238952   0.064   6.286   4.877  0.4329  0.6952 -0.1304
 5846TIP3    H138953   0.005   6.263   4.806 -0.6111  1.1751  0.5517
 5846TIP3    H238954   0.150   6.291   4.836  0.1958 -1.1010 -0.9342
 5847TIP3   OH238955   0.307   6.457  14.846 -0.0215 -0.0268 -0.1349
 5847TIP3    H138956   0.362   6.523  14.803 -0.9516  0.1151 -1.1693
 5847TIP3    H238957   0.328   6.375  14.800  0.1824 -0.2015  0.2675
 5848TIP3   OH238958   5.445   3.382  11.746 -0.1896 -0.1527 -0.6962
 5848TIP3    H138959   5.502   3.345  11.813  0.3555  0.7751 -0.6412
 5848TIP3    H238960   5.406   3.459  11.786  0.0570  0.3505 -1.4036
 5849TIP3   OH238961   2.102   0.051   1.246  0.4224 -0.0269 -0.0943
 5849TIP3    H138962   2.039   0.051   1.174  1.4326  1.8454 -1.0832
 5849TIP3    H238963   2.061   0.104   1.314  0.2609 -0.1546 -0.0939
 5850TIP3   OH238964   6.658   0.607   4.958  0.4142  0.5206 -0.4214
 5850TIP3    H138965   6.688   0.561   4.879  1.0656 -2.1220  1.2103
 5850TIP3    H238966   6.599   0.675   4.926  1.6675  0.4054 -3.2378
 5851TIP3   OH238967   6.554   0.358  11.487  0.8798  0.4959  0.1516
 5851TIP3    H138968   6.567   0.403  11.403  2.1190  2.3869  1.2822
 5851TIP3    H238969   6.612   0.282  11.482  1.3121  0.8553 -0.5190
 5852TIP3   OH238970   0.284   2.375  13.777 -0.2016 -0.2114 -0.4507
 5852TIP3    H138971   0.373   2.355  13.747 -0.2905  0.5445 -1.2520
 5852TIP3    H238972   0.262   2.457  13.733 -0.2290  1.1375  1.9517
 5853TIP3   OH238973   5.873   1.493   2.152 -0.0005  0.1956  0.6925
 5853TIP3    H138974   5.812   1.434   2.197  0.4765  0.3651  1.5783
 5853TIP3    H238975   5.959   1.452   2.165  0.1315  0.1817 -0.1841
 5854TIP3   OH238976   6.615   1.611   2.194 -0.0081 -0.1345 -0.5001
 5854TIP3    H138977   6.621   1.699   2.156 -1.0075 -0.1177 -0.6492
 5854TIP3    H238978   6.577   1.626   2.281  2.9965 -0.0746  0.9516
 5855TIP3   OH238979   4.819   0.156   1.805  0.1026 -0.4430  0.4344
 5855TIP3    H138980   4.731   0.120   1.801 -0.0409 -0.2128  1.4255
 5855TIP3    H238981   4.854   0.143   1.716 -0.2428 -2.2229  0.5260
 5856TIP3   OH238982   1.208   1.404  12.736 -0.1317  0.2933 -0.4623
 5856TIP3    H138983   1.139   1.470  12.731  0.2616  0.7679  0.1958
 5856TIP3    H238984   1.287   1.449  12.708  0.2924  0.3374  0.7613
 5857TIP3   OH238985   4.831   2.285  16.179 -0.1788  0.9910  0.0289
 5857TIP3    H138986   4.778   2.221  16.228  1.6774  0.1612  1.0465
 5857TIP3    H238987   4.882   2.232  16.118  0.3066  1.6618 -0.1542
 5858TIP3   OH238988   6.063   6.734   4.759 -0.0759  0.1038 -0.2144
 5858TIP3    H138989   6.030   6.679   4.830  1.1152 -0.4629 -0.0712
 5858TIP3    H238990   6.055   6.823   4.793  1.9816 -0.2205  1.3646
 5859TIP3   OH238991   6.400   3.947   5.602 -0.5943 -0.2354 -0.4564
 5859TIP3    H138992   6.325   3.962   5.659 -0.4652  0.1150 -0.3768
 5859TIP3    H238993   6.453   3.882   5.650 -0.9668 -0.6746 -0.6314
 5860TIP3   OH238994   0.407   0.536   2.992 -0.7422  0.5282  0.1902
 5860TIP3    H138995   0.345   0.559   2.924 -1.6515 -1.3827  0.3092
 5860TIP3    H238996   0.354   0.493   3.059  0.5918 -0.4821  0.6399
 5861TIP3   OH238997   0.018   1.770   6.100  0.1580  0.0243  0.2244
 5861TIP3    H138998  -0.002   1.825   6.175  0.4053 -1.1483  1.1792
 5861TIP3    H238999  -0.042   1.696   6.107 -0.4591  0.3368 -1.2617
 5862TIP3   OH239000   0.919   1.457  13.036 -0.0208 -0.0335  0.0908
 5862TIP3    H139001   0.935   1.466  13.130 -1.1558 -3.5676  0.7923
 5862TIP3    H239002   0.838   1.505  13.021 -0.8055 -0.8861  1.3791
 5863TIP3   OH239003   0.635   6.003  12.184  0.4113 -0.3935 -0.0223
 5863TIP3    H139004   0.713   6.058  12.185  1.5402 -1.9399 -0.1182
 5863TIP3    H239005   0.668   5.914  12.169 -1.3792 -1.0653 -0.2245
 5864TIP3   OH239006   0.555   6.244  14.898  0.1267  0.3978  0.4673
 5864TIP3    H139007   0.620   6.182  14.930 -0.8052 -1.7304 -1.4728
 5864TIP3    H239008   0.596   6.286  14.823  0.1614  0.9457  0.7882
 5865TIP3   OH239009   3.781   0.940   1.670 -0.4354  0.2121  0.1994
 5865TIP3    H139010   3.765   1.032   1.687 -0.4672  0.2557 -0.0535
 5865TIP3    H239011   3.876   0.933   1.660 -0.6017  0.7838 -2.8045
 5866TIP3   OH239012   0.115   5.051   3.915  0.3911 -0.0289  0.1614
 5866TIP3    H139013   0.125   4.995   3.838  0.9275 -1.2991  1.1104
 5866TIP3    H239014   0.137   5.139   3.884 -2.0835  0.0092 -1.7738
 5867TIP3   OH239015   2.841   0.049  11.317  0.3348  0.4943  0.1693
 5867TIP3    H139016   2.896  -0.005  11.260 -0.2183  1.0222 -0.8897
 5867TIP3    H239017   2.834  -0.002  11.398  2.0283  0.2388  0.1765
 5868TIP3   OH239018   2.796   2.885   4.452  0.3303  0.4531  0.2265
 5868TIP3    H139019   2.796   2.975   4.485 -1.2240  0.8077 -0.6469
 5868TIP3    H239020   2.707   2.853   4.468  0.3839 -0.3626 -0.9454
 5869TIP3   OH239021   1.450   6.461  11.326 -0.1357 -0.0675  0.7329
 5869TIP3    H139022   1.410   6.405  11.259 -1.2788  1.7746 -0.1926
 5869TIP3    H239023   1.430   6.416  11.409  1.0691 -2.2462 -0.0742
 5870TIP3   OH239024   6.562   1.133  15.200 -0.5901 -0.2315 -0.3308
 5870TIP3    H139025   6.507   1.097  15.130 -0.4951  0.1548 -0.6099
 5870TIP3    H239026   6.588   1.220  15.168 -1.1552  0.2646  0.4983
 5871TIP3   OH239027   2.106   4.163   3.466 -0.3818 -0.2648 -0.3444
 5871TIP3    H139028   2.024   4.209   3.451 -0.5895 -0.7205 -0.6102
 5871TIP3    H239029   2.139   4.142   3.379  1.7343  2.8364 -0.4737
 5872TIP3   OH239030   1.864   3.397   4.690  0.3248  0.0417 -0.1621
 5872TIP3    H139031   1.773   3.426   4.684 -0.2571 -1.8236 -1.2338
 5872TIP3    H239032   1.879   3.348   4.609  1.6381 -1.4018  0.8871
 5873TIP3   OH239033   3.051   4.881   0.677 -0.1781 -0.2297 -0.2548
 5873TIP3    H139034   3.108   4.828   0.732 -0.6674 -0.5827 -0.0760
 5873TIP3    H239035   2.982   4.821   0.650 -0.6976  0.2941 -0.1119
 5874TIP3   OH239036   1.802   4.928  11.464  0.2216  0.0937  0.2561
 5874TIP3    H139037   1.780   5.004  11.412  1.3725 -0.5264 -1.2112
 5874TIP3    H239038   1.792   4.854  11.405 -0.5278 -0.8876  1.5428
 5875TIP3   OH239039   2.852   4.388   2.373  0.1012  0.4335  0.3284
 5875TIP3    H139040   2.766   4.345   2.364 -0.2253  1.1932 -0.3000
 5875TIP3    H239041   2.915   4.323   2.342 -0.2206 -0.2420  1.0808
 5876TIP3   OH239042   6.761   2.501  13.926 -0.5040  0.4757 -0.0624
 5876TIP3    H139043   6.857   2.504  13.927 -0.1757 -2.9097 -2.7172
 5876TIP3    H239044   6.735   2.550  14.004  3.3345  1.7705  0.6254
 5877TIP3   OH239045   6.205   3.035  13.393 -0.3111  0.1650  0.4295
 5877TIP3    H139046   6.188   3.030  13.487 -0.3307 -0.9948  0.3842
 5877TIP3    H239047   6.263   2.961  13.376  0.0502  0.6277 -0.4066
 5878TIP3   OH239048   4.701   5.698  12.375 -0.1119  0.3418 -0.5764
 5878TIP3    H139049   4.766   5.721  12.309  1.7289 -1.6124  0.4403
 5878TIP3    H239050   4.734   5.735  12.456  0.0998 -1.2056  0.0731
 5879TIP3   OH239051   6.666   0.494  14.034 -0.0370 -0.1253  0.3298
 5879TIP3    H139052   6.643   0.524  14.122  1.5054 -0.1106  0.7601
 5879TIP3    H239053   6.754   0.460  14.042  0.6537  1.0398 -1.4604
 5880TIP3   OH239054   5.899   3.817   0.351 -0.5185 -0.5058 -0.4613
 5880TIP3    H139055   5.883   3.865   0.433 -0.5472  0.5113 -1.0449
 5880TIP3    H239056   5.907   3.726   0.378 -1.8339 -0.3657  0.5313
 5881TIP3   OH239057   1.124   1.833   6.524 -0.1583 -0.2523  0.2135
 5881TIP3    H139058   1.039   1.793   6.505  0.0843 -1.3630  1.3791
 5881TIP3    H239059   1.142   1.811   6.615  0.3706  1.8486  0.6808
 5882TIP3   OH239060   6.053   2.978  11.156  0.3970  0.2622  0.0683
 5882TIP3    H139061   5.968   2.948  11.125  1.0694 -0.8019 -0.8392
 5882TIP3    H239062   6.052   2.960  11.250 -0.6234  0.9171  0.1986
 5883TIP3   OH239063   5.696   6.149   6.457  0.3694 -0.6140 -0.2136
 5883TIP3    H139064   5.616   6.179   6.501  1.4852 -0.2167  1.6789
 5883TIP3    H239065   5.707   6.060   6.489  1.5507 -0.0972  0.8830
 5884TIP3   OH239066   6.344   2.869  11.316 -0.1098 -0.6523 -0.2789
 5884TIP3    H139067   6.342   2.906  11.228 -0.7731  0.8428  0.3160
 5884TIP3    H239068   6.253   2.846  11.335  0.2720 -2.5605 -0.5801
 5885TIP3   OH239069   0.396   5.028   3.120  0.1989 -0.2654 -0.5988
 5885TIP3    H139070   0.361   5.096   3.178  1.5658  0.0419 -0.0838
 5885TIP3    H239071   0.478   5.065   3.087 -0.5105 -0.4654 -2.7152
 5886TIP3   OH239072   0.617   2.584  14.936  0.4088 -0.0884 -0.6660
 5886TIP3    H139073   0.645   2.613  15.023  2.2909 -0.0157 -1.2527
 5886TIP3    H239074   0.605   2.665  14.886 -1.6654 -0.0758 -0.2449
 5887TIP3   OH239075   6.683   1.263  16.187  0.5110 -0.6106 -0.3945
 5887TIP3    H139076   6.724   1.282  16.103 -1.6211 -0.2926 -1.4245
 5887TIP3    H239077   6.616   1.331  16.198  0.2199 -1.1036  1.1894
 5888TIP3   OH239078   0.694   3.965   4.436 -0.6340  0.2185 -0.2134
 5888TIP3    H139079   0.713   4.015   4.515 -0.0480 -0.2346 -0.0583
 5888TIP3    H239080   0.776   3.964   4.387 -0.1152 -1.9410  0.5556
 5889TIP3   OH239081   6.770   2.969   6.127 -0.4258  0.4292 -0.6649
 5889TIP3    H139082   6.694   3.025   6.144  0.2237  1.1723 -0.1631
 5889TIP3    H239083   6.764   2.900   6.194 -0.6410  0.5015 -0.6078
 5890TIP3   OH239084   5.229   0.696  14.974  0.3332 -0.4090 -0.2903
 5890TIP3    H139085   5.240   0.694  14.879 -0.0060  0.2156 -0.3474
 5890TIP3    H239086   5.224   0.604  14.999 -1.2973 -0.5676 -1.0926
 5891TIP3   OH239087   0.604   1.376   1.586 -0.0050  0.2293  0.3351
 5891TIP3    H139088   0.580   1.286   1.607  0.6201 -0.9528 -3.2582
 5891TIP3    H239089   0.537   1.404   1.522  0.9214  1.5603 -0.1015
 5892TIP3   OH239090   2.512   0.137  11.398  0.1412  0.7641  0.3894
 5892TIP3    H139091   2.495   0.108  11.308 -0.3160 -1.5358  1.1560
 5892TIP3    H239092   2.607   0.138  11.405  0.2010  1.6078 -0.2781
 5893TIP3   OH239093   1.949   6.573  12.267  0.7456  0.2403 -0.5615
 5893TIP3    H139094   2.036   6.567  12.306  0.5051 -0.8910 -0.1477
 5893TIP3    H239095   1.891   6.594  12.340  0.5387 -0.0596 -0.6346
 5894TIP3   OH239096   5.160   3.890  13.256 -0.5016 -0.0856  0.0615
 5894TIP3    H139097   5.251   3.882  13.227 -0.1552 -1.4142  1.3941
 5894TIP3    H239098   5.109   3.886  13.175  0.6267  0.9477 -0.7290
 5895TIP3   OH239099   0.916   4.145  11.375 -0.0739 -0.8513  0.8042
 5895TIP3    H139100   0.938   4.058  11.408 -1.4498 -1.6266 -0.2237
 5895TIP3    H239101   0.828   4.161  11.408 -0.7021 -0.8118 -0.8472
 5896TIP3   OH239102   3.829   5.402   3.046 -0.6369 -0.0363  0.4589
 5896TIP3    H139103   3.846   5.455   2.967 -0.0605  0.9903  1.2459
 5896TIP3    H239104   3.769   5.455   3.098  1.0775  0.5675  1.9341
 5897TIP3   OH239105   3.171   3.264   5.978  0.2785  0.2059 -0.7963
 5897TIP3    H139106   3.250   3.264   6.032 -1.1308 -1.0206  1.4123
 5897TIP3    H239107   3.125   3.344   6.004 -1.4601 -1.4374  1.6729
 5898TIP3   OH239108   0.338   4.060  15.317  0.0897  0.4764  0.1132
 5898TIP3    H139109   0.326   4.053  15.412  0.5970  0.6571  0.1941
 5898TIP3    H239110   0.428   4.031  15.302 -0.1650 -0.0812 -0.3797
 5899TIP3   OH239111   3.529   2.842  12.276 -0.4696 -0.5562  0.5376
 5899TIP3    H139112   3.596   2.909  12.263  0.8324 -2.0241 -0.5672
 5899TIP3    H239113   3.447   2.891  12.276  0.5625  1.3120  2.1275
 5900TIP3   OH239114   4.741   0.625  11.237 -0.2565  0.2815 -0.7244
 5900TIP3    H139115   4.811   0.565  11.212  0.5564  0.0205  1.9425
 5900TIP3    H239116   4.778   0.680  11.305 -2.5988  0.0798  0.8637
 5901TIP3   OH239117   0.769   1.248   6.795 -0.9469 -0.5790  0.1936
 5901TIP3    H139118   0.789   1.259   6.888 -0.4917 -1.1066  0.1657
 5901TIP3    H239119   0.783   1.334   6.757  2.1216 -1.0257  0.0394
 5902TIP3   OH239120   1.918   3.117   2.802 -0.0458 -0.4127 -0.3079
 5902TIP3    H139121   2.012   3.132   2.800 -0.1160  0.0128 -0.6509
 5902TIP3    H239122   1.885   3.181   2.864 -0.0887 -0.6920 -0.0413
 5903TIP3   OH239123   5.989   5.603   0.878 -0.2240 -0.5883  0.2315
 5903TIP3    H139124   6.033   5.552   0.946  2.6854  0.7007 -0.5286
 5903TIP3    H239125   6.029   5.573   0.797 -1.4263  0.0677 -0.6258
 5904TIP3   OH239126   5.785   4.856  17.190  0.0564  0.6319 -0.7883
 5904TIP3    H139127   5.760   4.811  17.109  1.0999 -1.2888 -0.1018
 5904TIP3    H239128   5.798   4.786  17.253  2.6049  1.8085  0.1255
 5905TIP3   OH239129   4.501   4.844   4.331 -0.2890  0.2381 -0.0389
 5905TIP3    H139130   4.501   4.912   4.264 -3.0917 -0.4093 -0.8560
 5905TIP3    H239131   4.521   4.890   4.412  2.0003  1.2427 -1.0795
 5906TIP3   OH239132   6.144   0.783  16.875  0.3868  0.0082 -0.7626
 5906TIP3    H139133   6.215   0.724  16.898  1.1031  1.0633 -0.1841
 5906TIP3    H239134   6.176   0.870  16.898 -1.2928  0.4678  0.0888
 5907TIP3   OH239135   3.803   2.641   5.331 -0.0332  0.4003 -0.0776
 5907TIP3    H139136   3.805   2.718   5.388 -0.1181  1.4518 -1.4565
 5907TIP3    H239137   3.892   2.605   5.336 -0.3831 -0.3151  1.7246
 5908TIP3   OH239138   5.395   4.513   3.860 -0.3203 -0.0426 -0.3354
 5908TIP3    H139139   5.409   4.587   3.919  0.0872 -0.8436  0.6005
 5908TIP3    H239140   5.351   4.551   3.784  1.3498  1.4391 -0.6100
 5909TIP3   OH239141   1.950   0.796   4.574  0.4620 -0.4681  0.4348
 5909TIP3    H139142   1.961   0.752   4.658  2.7604  1.1614  1.0826
 5909TIP3    H239143   1.863   0.834   4.578  0.4512 -0.5969  2.0020
 5910TIP3   OH239144   0.695   4.451  10.613 -0.1580 -0.1670 -0.0905
 5910TIP3    H139145   0.631   4.382  10.629  1.0093 -1.1102  0.7203
 5910TIP3    H239146   0.779   4.410  10.632  0.6368  1.2342 -0.4604
 5911TIP3   OH239147   1.572   4.297   0.397  0.0648 -0.6033  0.1630
 5911TIP3    H139148   1.483   4.277   0.428  0.3146 -0.5359  0.9443
 5911TIP3    H239149   1.603   4.214   0.361 -0.9901 -0.1726 -1.8551
 5912TIP3   OH239150   5.074   6.466   3.954 -0.1364  0.1263  0.1204
 5912TIP3    H139151   5.152   6.497   3.908 -0.3539  0.1912 -0.2107
 5912TIP3    H239152   5.001   6.504   3.905 -0.3525  1.2511  1.2872
 5913TIP3   OH239153   1.943   5.290   5.897 -0.1314 -0.5285  0.5319
 5913TIP3    H139154   1.962   5.218   5.838  0.5773  0.2230 -0.1862
 5913TIP3    H239155   1.885   5.253   5.964 -2.1205 -1.0672 -1.4017
 5914TIP3   OH239156   5.762   3.445  17.084 -0.2180 -0.3521 -0.3856
 5914TIP3    H139157   5.829   3.505  17.117  1.0782 -0.9742 -1.7857
 5914TIP3    H239158   5.761   3.373  17.148 -0.4727  0.2571  0.3122
 5915TIP3   OH239159   3.095   1.688  11.638 -0.1605  0.1989 -0.7050
 5915TIP3    H139160   3.116   1.602  11.601 -0.2462 -1.3378  2.4908
 5915TIP3    H239161   3.002   1.700  11.618 -1.2661 -2.4244  2.0668
 5916TIP3   OH239162   0.863   0.033   1.527  0.1509 -0.3716 -0.6895
 5916TIP3    H139163   0.866   0.010   1.434 -2.6468  1.6429 -1.4126
 5916TIP3    H239164   0.798  -0.026   1.564  0.8149 -0.7618 -0.1351
 5917TIP3   OH239165   6.387   1.692   3.660 -0.8565  0.5362 -0.1100
 5917TIP3    H139166   6.469   1.643   3.650 -0.2981  0.7714  2.4633
 5917TIP3    H239167   6.318   1.626   3.648 -0.2387 -0.0264 -0.6122
 5918TIP3   OH239168   1.836   2.361   2.437 -0.7090  0.0362  0.2707
 5918TIP3    H139169   1.874   2.328   2.519 -1.0905  0.3982  0.6024
 5918TIP3    H239170   1.852   2.292   2.373  0.4471  0.1640  0.4092
 5919TIP3   OH239171   0.987   2.247   1.044 -0.3377 -0.0583 -0.4800
 5919TIP3    H139172   0.898   2.266   1.072 -0.1085  0.2100  0.1005
 5919TIP3    H239173   0.978   2.208   0.958 -1.3100 -3.7307  1.0869
 5920TIP3   OH239174   0.318   0.190   2.292 -0.0835 -0.2924  0.0421
 5920TIP3    H139175   0.334   0.100   2.263  0.1464 -0.0475 -0.6207
 5920TIP3    H239176   0.378   0.203   2.365 -1.3611 -1.2442  1.3232
 5921TIP3   OH239177   0.698   2.173  16.219 -0.3459  0.5601  0.3918
 5921TIP3    H139178   0.665   2.107  16.158  1.2724  1.6623 -1.8091
 5921TIP3    H239179   0.625   2.234  16.229 -1.1049 -0.3698  0.7319
 5922TIP3   OH239180   2.284   0.827  16.971 -0.0897  0.3238 -0.5875
 5922TIP3    H139181   2.302   0.895  17.036 -0.2035 -0.2131  0.0196
 5922TIP3    H239182   2.370   0.795  16.946 -0.0292  0.8047 -1.0002
 5923TIP3   OH239183   0.956   2.773  16.407 -0.2624 -0.0330  0.1251
 5923TIP3    H139184   0.933   2.866  16.404  0.0120  0.1222  1.8389
 5923TIP3    H239185   1.027   2.764  16.344  0.4647  1.1641  0.7388
 5924TIP3   OH239186   4.030   0.460  12.997  0.3550 -0.3307  0.0489
 5924TIP3    H139187   4.065   0.540  12.957  0.3778  0.4211  1.5296
 5924TIP3    H239188   4.100   0.428  13.053 -0.2248 -0.5028  0.6873
 5925TIP3   OH239189   6.538   3.594   6.488  0.0586 -0.9201  0.0101
 5925TIP3    H139190   6.474   3.538   6.533 -0.6388 -0.2635 -0.1547
 5925TIP3    H239191   6.541   3.674   6.540 -0.9078 -0.0665 -1.1911
 5926TIP3   OH239192   5.145   3.072  11.727  0.3685  0.3704 -0.2433
 5926TIP3    H139193   5.240   3.065  11.737  0.3922  0.6912 -0.2288
 5926TIP3    H239194   5.132   3.081  11.632  0.3775  0.6575 -0.2193
 5927TIP3   OH239195   5.192   4.334  12.254 -0.6017 -0.1152 -0.1437
 5927TIP3    H139196   5.234   4.267  12.308 -1.3991  0.1132  0.7858
 5927TIP3    H239197   5.244   4.413  12.268 -1.6658  0.3551  1.5654
 5928TIP3   OH239198   1.369   6.406   4.679  0.6026 -0.2298  0.5006
 5928TIP3    H139199   1.464   6.398   4.684  0.8110  1.1073 -0.6319
 5928TIP3    H239200   1.340   6.321   4.646  1.4158 -0.6186  0.7511
 5929TIP3   OH239201   5.744   3.302   2.867  0.5378  0.4453 -0.7205
 5929TIP3    H139202   5.692   3.376   2.837 -1.6398 -0.8143 -0.2979
 5929TIP3    H239203   5.790   3.271   2.788 -1.7316 -0.1955 -1.8796
 5930TIP3   OH239204   1.974   2.661  17.043  0.3329 -0.0306  0.0476
 5930TIP3    H139205   1.903   2.597  17.046  0.2144 -0.0315 -1.8863
 5930TIP3    H239206   1.946   2.726  16.978  0.9233  1.4433  1.1956
 5931TIP3   OH239207   5.568   0.631   5.432 -0.3310  0.1131 -0.6068
 5931TIP3    H139208   5.602   0.653   5.519 -0.8801  1.0911 -0.6207
 5931TIP3    H239209   5.474   0.652   5.438 -0.6387 -1.0701 -1.0336
 5932TIP3   OH239210   4.330   4.956  11.160  0.1560  0.4832 -0.7650
 5932TIP3    H139211   4.333   4.865  11.192  1.7061  0.1891 -1.6668
 5932TIP3    H239212   4.370   4.952  11.073  2.9422  2.4309  0.2739
 5933TIP3   OH239213   0.394   5.135   5.855  0.3804  0.7626  0.6769
 5933TIP3    H139214   0.396   5.040   5.848  1.6395  0.8653 -0.8794
 5933TIP3    H239215   0.349   5.152   5.938 -1.1598 -1.1331  0.2809
 5934TIP3   OH239216   1.242   6.704   2.241  0.6864  0.3792 -0.1221
 5934TIP3    H139217   1.265   6.612   2.253 -1.4276 -0.2162 -0.2948
 5934TIP3    H239218   1.179   6.723   2.311  0.0044  1.2703 -0.9504
 5935TIP3   OH239219   0.047   4.770  15.388 -0.0665  0.0307  0.3430
 5935TIP3    H139220   0.002   4.752  15.306  1.5720 -0.7818 -0.4370
 5935TIP3    H239221  -0.018   4.814  15.443 -1.0532  1.0256 -1.5495
 5936TIP3   OH239222   2.989   3.495  17.175 -0.3075 -0.1445  0.3062
 5936TIP3    H139223   2.988   3.426  17.109  0.3741 -0.2494  0.3988
 5936TIP3    H239224   3.026   3.571  17.129  0.5012 -0.3157  0.6533
 5937TIP3   OH239225   6.172   5.068   3.217  0.4061 -0.0106  0.6808
 5937TIP3    H139226   6.198   5.034   3.131  0.7774  0.8326  0.4538
 5937TIP3    H239227   6.151   4.990   3.268 -1.0582 -0.4804 -0.5562
 5938TIP3   OH239228   4.637   4.166   3.286  0.6360 -0.2853 -0.2227
 5938TIP3    H139229   4.685   4.097   3.240  0.7117 -0.3225 -0.0882
 5938TIP3    H239230   4.573   4.120   3.340  0.0726 -0.2145 -0.8141
 5939TIP3   OH239231   3.375   0.701  11.171  0.2296  0.1673  0.3288
 5939TIP3    H139232   3.460   0.664  11.147  0.9321  0.5628  2.0235
 5939TIP3    H239233   3.311   0.642  11.132  1.1864  0.9244 -2.6928
 5940TIP3   OH239234   6.409   3.032  11.534  0.6537 -0.3043  0.0801
 5940TIP3    H139235   6.388   2.967  11.467 -2.8421  0.7652 -0.0418
 5940TIP3    H239236   6.346   3.016  11.604  2.0497  0.7240  1.6583
 5941TIP3   OH239237   3.391   5.255  13.554 -0.1365 -0.5076  0.0966
 5941TIP3    H139238   3.348   5.169  13.555  0.2160 -0.7225 -1.4096
 5941TIP3    H239239   3.467   5.244  13.612  0.2747 -1.4331 -0.5802
 5942TIP3   OH239240   3.536   5.589   6.303  0.6780  0.0973 -0.0853
 5942TIP3    H139241   3.560   5.598   6.395  1.4794  1.1005 -0.3766
 5942TIP3    H239242   3.578   5.663   6.260 -0.6343  0.2966 -1.0807
 5943TIP3   OH239243   6.229   0.643   3.165  0.4761 -0.3041 -0.5383
 5943TIP3    H139244   6.243   0.591   3.086  0.3395 -1.1207 -0.0251
 5943TIP3    H239245   6.141   0.621   3.194  0.8583 -0.7044  0.3569
 5944TIP3   OH239246   3.873   5.247   3.601 -0.8058 -0.1518  0.4535
 5944TIP3    H139247   3.898   5.325   3.651 -1.4399  0.6929 -0.4812
 5944TIP3    H239248   3.784   5.228   3.630 -0.9076 -0.0961  0.1797
 5945TIP3   OH239249   4.856   3.397  16.607  0.3555  0.6803 -0.0331
 5945TIP3    H139250   4.870   3.372  16.515 -1.0134  1.1573 -0.3966
 5945TIP3    H239251   4.802   3.327  16.643 -0.8988  1.5435 -0.1968
 5946TIP3   OH239252   0.768   6.236  15.615  0.2795 -0.0719  0.0188
 5946TIP3    H139253   0.703   6.168  15.631  0.6113 -0.7962 -1.4972
 5946TIP3    H239254   0.749   6.303  15.680 -0.7920 -1.0977  0.8073
 5947TIP3   OH239255   1.986   0.505  10.430 -0.1076  0.3074  0.1566
 5947TIP3    H139256   1.956   0.466  10.512 -2.0016  2.0997  0.3854
 5947TIP3    H239257   1.906   0.535  10.387  1.0644  1.6955 -1.1424
 5948TIP3   OH239258   5.652   0.906   2.466  0.7607 -0.3990 -0.2299
 5948TIP3    H139259   5.676   0.958   2.389 -0.0665  0.0946 -0.1604
 5948TIP3    H239260   5.583   0.956   2.508  0.8629 -0.9179  0.5654
 5949TIP3   OH239261   2.803   6.039  17.228  0.8809  0.1335 -0.0618
 5949TIP3    H139262   2.834   6.070  17.312  0.0445 -1.4144  0.8746
 5949TIP3    H239263   2.762   5.954  17.247  0.7898 -0.3281 -2.0407
 5950TIP3   OH239264   2.261   5.049   0.683  0.1848 -0.2143  0.4296
 5950TIP3    H139265   2.266   5.008   0.770 -1.7567 -3.1623 -0.6668
 5950TIP3    H239266   2.167   5.055   0.666  0.4192 -2.6957 -2.6173
 5951TIP3   OH239267   5.076   3.233   4.343  0.3000 -1.0883  0.0985
 5951TIP3    H139268   5.006   3.291   4.313  0.8607 -0.1157  0.6064
 5951TIP3    H239269   5.105   3.273   4.425  0.8137 -2.0093  0.3691
 5952TIP3   OH239270   5.301   5.733   4.775  0.3744  0.1045  0.2578
 5952TIP3    H139271   5.256   5.769   4.851 -1.7486  0.8686 -1.2752
 5952TIP3    H239272   5.270   5.642   4.769 -0.5782  0.4509 -0.4395
 5953TIP3   OH239273   2.375   2.389  11.367 -0.6330 -0.7890 -0.2535
 5953TIP3    H139274   2.417   2.460  11.416 -0.5362  1.7106 -3.6123
 5953TIP3    H239275   2.448   2.334  11.337 -0.4325 -0.5719 -0.1665
 5954TIP3   OH239276   0.975   5.709   3.658 -0.0070  0.2504  0.0233
 5954TIP3    H139277   0.882   5.691   3.645  0.0811 -0.4955  0.3691
 5954TIP3    H239278   0.998   5.770   3.587 -1.1154  1.7344  0.8782
 5955TIP3   OH239279   4.732   5.174   2.981 -0.1609  0.2388 -0.2100
 5955TIP3    H139280   4.659   5.157   3.040  0.2012 -0.3386  0.0777
 5955TIP3    H239281   4.784   5.093   2.983  0.3882  0.5784 -0.5458
 5956TIP3   OH239282   2.354   1.446   1.511 -0.5209 -0.1467 -0.0358
 5956TIP3    H139283   2.431   1.402   1.473  0.2761 -0.2790  1.6230
 5956TIP3    H239284   2.383   1.536   1.527 -1.6853  0.6415 -2.0836
 5957TIP3   OH239285   2.274   4.105  11.568  0.0463 -0.1370 -0.1292
 5957TIP3    H139286   2.353   4.128  11.519 -0.2736 -0.4918 -0.8423
 5957TIP3    H239287   2.204   4.154  11.524 -0.2898 -0.6762 -0.2002
 5958TIP3   OH239288   4.922   6.547  17.098 -0.1934  0.0446  0.4127
 5958TIP3    H139289   4.844   6.501  17.067 -0.1786 -0.7053  1.4622
 5958TIP3    H239290   4.896   6.640  17.097 -0.9013 -0.1470  0.2094
 5959TIP3   OH239291   4.368   3.617  12.143  0.3117 -0.1626  0.0277
 5959TIP3    H139292   4.448   3.566  12.131 -0.1859 -0.4529 -2.7235
 5959TIP3    H239293   4.336   3.591  12.229  1.5290 -2.4259 -0.1074
 5960TIP3   OH239294   2.683   3.709   0.415  0.1428  0.2704  0.1272
 5960TIP3    H139295   2.743   3.658   0.361 -1.6233 -0.5224 -1.1871
 5960TIP3    H239296   2.643   3.645   0.474 -1.3318  0.2552 -0.8354
 5961TIP3   OH239297   2.953   5.666  13.789  0.2528  0.6099 -0.3791
 5961TIP3    H139298   2.925   5.589  13.741  0.5548  0.3724 -0.1754
 5961TIP3    H239299   2.871   5.712  13.810  0.1782  1.3006 -2.0545
 5962TIP3   OH239300   5.140   4.929   0.230 -0.0207 -0.1648 -0.3436
 5962TIP3    H139301   5.165   4.900   0.143  2.8170  0.3952  0.1768
 5962TIP3    H239302   5.079   5.001   0.215  0.6682  0.1321 -1.8943
 5963TIP3   OH239303   3.771   2.853   0.536  0.8742 -0.4967 -0.3108
 5963TIP3    H139304   3.842   2.917   0.541  0.2858  0.1033  0.9995
 5963TIP3    H239305   3.780   2.800   0.615 -0.4879  0.0093  0.2228
 5964TIP3   OH239306   4.270   2.626  14.542 -0.3469 -0.5154  0.5687
 5964TIP3    H139307   4.357   2.588  14.555  0.1292 -0.0184 -0.9179
 5964TIP3    H239308   4.223   2.561  14.490  0.4989  0.7795 -2.0580
 5965TIP3   OH239309   4.086   3.890  13.443  0.4048 -0.0908 -0.3657
 5965TIP3    H139310   4.077   3.795  13.434  0.4076 -0.1059 -0.2097
 5965TIP3    H239311   4.024   3.926  13.380 -1.0879 -0.1854  0.9898
 5966TIP3   OH239312   6.576   0.584  12.294  0.2936 -0.1500  0.4200
 5966TIP3    H139313   6.662   0.571  12.334  0.0371 -0.9971  0.7158
 5966TIP3    H239314   6.591   0.649  12.226  0.9109  0.6868  1.3305
 5967TIP3   OH239315   4.597   3.468  13.997  0.4733 -0.0136 -0.1302
 5967TIP3    H139316   4.656   3.466  13.922 -2.2843 -1.0132 -2.4421
 5967TIP3    H239317   4.557   3.555  13.994  1.4194  0.5014  1.1572
 5968TIP3   OH239318   4.039   2.722  13.234 -0.2054 -0.0085  0.0789
 5968TIP3    H139319   3.946   2.741  13.246 -0.3803 -0.0074 -1.1543
 5968TIP3    H239320   4.081   2.807  13.225 -0.0264  0.0042  0.9298
 5969TIP3   OH239321   1.866   6.390  16.497  0.0941 -0.0297 -0.0661
 5969TIP3    H139322   1.797   6.455  16.504 -0.1673 -0.3456  0.3228
 5969TIP3    H239323   1.821   6.306  16.504  0.4983 -0.2407  0.0376
 5970TIP3   OH239324   1.971   5.460  16.910  0.5415  0.2355 -0.2236
 5970TIP3    H139325   2.003   5.507  16.833  0.7085  0.3354 -0.0911
 5970TIP3    H239326   1.938   5.377  16.874  0.9625  0.1215 -0.3613
 5971TIP3   OH239327   3.095   3.710  14.324 -0.1667  0.0078  0.0864
 5971TIP3    H139328   3.137   3.677  14.404  2.3767 -0.8554 -1.4914
 5971TIP3    H239329   3.084   3.633  14.269  1.5566  1.0266 -1.8129
 5972TIP3   OH239330   5.619   6.395   0.581  0.4972  0.2821  0.0848
 5972TIP3    H139331   5.589   6.485   0.572  2.5332  0.9844 -0.1620
 5972TIP3    H239332   5.674   6.396   0.659  1.4904 -0.4572 -0.5790
 5973TIP3   OH239333   4.758   5.251  12.069 -0.1855  0.1343 -0.2856
 5973TIP3    H139334   4.685   5.309  12.091  1.1833  2.8581 -2.4400
 5973TIP3    H239335   4.836   5.300  12.093  1.0658 -2.2283  0.8417
 5974TIP3   OH239336   1.603   4.767  12.885  0.4906 -0.3262  0.4061
 5974TIP3    H139337   1.559   4.722  12.812 -2.0004  0.8814  1.0673
 5974TIP3    H239338   1.602   4.703  12.956 -2.8703  0.4927  1.2821
 5975TIP3   OH239339   1.821   5.051   5.113 -0.2181  0.0939  0.1665
 5975TIP3    H139340   1.810   4.958   5.133  1.5303 -0.7930 -2.5041
 5975TIP3    H239341   1.763   5.068   5.039  0.6326  0.6805 -0.3921
 5976TIP3   OH239342   6.462   1.938   5.601  0.1892 -0.1603 -0.2142
 5976TIP3    H139343   6.370   1.964   5.602  0.4829  1.0097 -0.9932
 5976TIP3    H239344   6.499   1.983   5.525  1.5800  0.0091  0.5195
 5977TIP3   OH239345   3.884   2.240   1.353  0.0506  0.0657  0.0308
 5977TIP3    H139346   3.873   2.335   1.347  1.5113  0.2817  0.4066
 5977TIP3    H239347   3.973   2.228   1.385 -0.9510 -1.3585  2.6861
 5978TIP3   OH239348   5.609   1.665  14.612  0.3214  0.4297  0.1456
 5978TIP3    H139349   5.645   1.692  14.696  0.4970 -0.8404  0.5026
 5978TIP3    H239350   5.664   1.592  14.585  0.1574  0.7112 -0.9930
 5979TIP3   OH239351   3.834   5.541   2.468  0.4569 -0.9707 -0.5180
 5979TIP3    H139352   3.864   5.632   2.468 -1.2469 -0.3580 -0.9525
 5979TIP3    H239353   3.840   5.514   2.560  0.5176 -0.2451 -0.3002
 5980TIP3   OH239354   3.877   3.065   0.794  0.1129 -0.0617 -0.0700
 5980TIP3    H139355   3.804   3.126   0.790  0.4553  0.6376  2.4659
 5980TIP3    H239356   3.838   2.983   0.823  0.0538 -0.2840 -0.7628
 5981TIP3   OH239357   0.591   3.154   4.395 -0.1319 -0.1928  0.0333
 5981TIP3    H139358   0.549   3.085   4.447  0.3693 -0.7891 -0.3330
 5981TIP3    H239359   0.546   3.234   4.419 -0.8023 -0.6733  0.3871
 5982TIP3   OH239360   2.661   5.276  13.730  0.5475 -0.7622  0.3929
 5982TIP3    H139361   2.584   5.263  13.674 -0.6572 -0.1853  1.8567
 5982TIP3    H239362   2.697   5.188  13.742 -0.4705 -1.1782  0.4713
 5983TIP3   OH239363   3.549   5.757  16.402  0.0374  0.1411 -1.0924
 5983TIP3    H139364   3.584   5.775  16.314  0.5951  2.0013 -0.5418
 5983TIP3    H239365   3.490   5.830  16.420  1.9300  1.2931  1.0665
 5984TIP3   OH239366   0.207   1.001   1.016 -0.6025 -0.3563 -0.5704
 5984TIP3    H139367   0.149   0.929   1.043 -0.2205 -0.4021  0.1631
 5984TIP3    H239368   0.284   0.957   0.981  0.6426 -0.4070  1.9751
 5985TIP3   OH239369   6.268   2.470   5.068  0.5513 -0.0823 -0.1405
 5985TIP3    H139370   6.342   2.414   5.091 -1.2560 -1.8325  2.0007
 5985TIP3    H239371   6.195   2.409   5.056 -0.9618  1.6638 -0.3141
 5986TIP3   OH239372   5.916   2.265   1.902  0.4405  0.3923  0.4309
 5986TIP3    H139373   5.956   2.223   1.979  1.0682  0.4845  0.1626
 5986TIP3    H239374   5.844   2.207   1.877  0.4767  0.1617  0.8547
 5987TIP3   OH239375   6.200   5.124  12.643 -0.4520  0.8364 -0.2064
 5987TIP3    H139376   6.286   5.166  12.654 -1.4882  3.0691  0.0854
 5987TIP3    H239377   6.194   5.062  12.715  0.4842  1.4855  0.4531
 5988TIP3   OH239378   3.553   3.434  16.737  0.0634 -0.3455  0.3572
 5988TIP3    H139379   3.489   3.408  16.671  0.1958  1.3757 -0.5134
 5988TIP3    H239380   3.638   3.409  16.701 -0.0134 -2.1555  1.2850
 5989TIP3   OH239381   3.627   3.479  10.985 -0.0528 -0.0866 -0.1969
 5989TIP3    H139382   3.607   3.458  10.894  2.1448 -0.2815 -0.6746
 5989TIP3    H239383   3.556   3.538  11.011 -2.3271 -2.2329 -1.0888
 5990TIP3   OH239384   5.072   2.872   1.145  0.3195  0.0435  0.3324
 5990TIP3    H139385   5.106   2.788   1.178  0.3136  1.0065  2.9861
 5990TIP3    H239386   5.145   2.933   1.155 -0.1361  0.6791 -0.1585
 5991TIP3   OH239387   2.466   2.077   5.116  0.1477  0.1308 -0.0893
 5991TIP3    H139388   2.433   2.050   5.030 -1.5644  0.2965  0.4859
 5991TIP3    H239389   2.421   2.019   5.177 -1.6611  2.5307  0.9868
 5992TIP3   OH239390   2.027   2.278   3.032 -0.5577 -0.1999 -0.0092
 5992TIP3    H139391   2.062   2.335   3.100  0.8082 -0.3635 -0.5372
 5992TIP3    H239392   2.015   2.335   2.956 -0.9231 -0.2563  0.0044
 5993TIP3   OH239393   2.256   3.741   4.964 -0.3909  0.0371 -0.0106
 5993TIP3    H139394   2.240   3.802   5.037  2.3483 -1.3046  1.9041
 5993TIP3    H239395   2.219   3.658   4.994  2.1460 -0.9303  0.7165
 5994TIP3   OH239396   6.475   1.398   1.698 -0.0609  0.5357 -0.7113
 5994TIP3    H139397   6.485   1.356   1.784  0.9121 -1.7653 -1.8598
 5994TIP3    H239398   6.486   1.491   1.715 -0.7704  0.2320  1.7804
 5995TIP3   OH239399   3.244   5.389  12.557  0.0597 -0.0418 -0.3302
 5995TIP3    H139400   3.171   5.337  12.591 -0.0211  0.1332 -0.2377
 5995TIP3    H239401   3.264   5.350  12.472  1.0608 -1.2685  0.4294
 5996TIP3   OH239402   0.723   5.399   3.535  0.3774 -0.8245  0.0222
 5996TIP3    H139403   0.701   5.491   3.522 -2.3337 -1.3522  0.2063
 5996TIP3    H239404   0.819   5.396   3.533  0.5210  1.8831 -0.5592
 5997TIP3   OH239405   5.341   1.978  12.166  0.9793 -0.2585  0.2949
 5997TIP3    H139406   5.432   2.008  12.170  0.5835  1.2528 -1.2200
 5997TIP3    H239407   5.315   1.967  12.258  2.5714 -0.4241  0.7541
 5998TIP3   OH239408   0.662   2.905  11.081 -0.1053  0.2186  0.2374
 5998TIP3    H139409   0.590   2.966  11.096 -0.7272 -0.6206  0.7548
 5998TIP3    H239410   0.726   2.927  11.149  0.8178  1.9178 -1.0946
 5999TIP3   OH239411   5.233   5.812  14.775 -0.1452  0.2195  0.9173
 5999TIP3    H139412   5.292   5.841  14.844  0.3098 -0.1197  0.6770
 5999TIP3    H239413   5.242   5.716  14.775  1.3651  0.2960 -0.8997
 6000TIP3   OH239414   4.315   3.748  11.632 -0.0727  0.2196 -0.4661
 6000TIP3    H139415   4.264   3.687  11.578  0.2301 -1.1014  0.6629
 6000TIP3    H239416   4.403   3.709  11.634 -0.0062  0.4034  0.7001
 6001TIP3   OH239417   5.073   6.463   5.577 -0.0939 -0.3006  0.5455
 6001TIP3    H139418   4.980   6.458   5.556 -0.4869  0.6042  1.9250
 6001TIP3    H239419   5.085   6.553   5.608  0.9422 -0.7923  1.6562
 6002TIP3   OH239420   3.893   2.557  12.589  0.3064  0.3363  0.0298
 6002TIP3    H139421   3.935   2.558  12.503  2.6843  1.2298  1.0891
 6002TIP3    H239422   3.902   2.467  12.619 -0.0508  0.1421 -0.4442
 6003TIP3   OH239423   5.709   1.408  14.414  0.6420 -0.1061  0.1115
 6003TIP3    H139424   5.709   1.345  14.485  1.0705  0.1409  0.3300
 6003TIP3    H239425   5.616   1.423  14.396  0.4837  1.1502  1.7911
 6004TIP3   OH239426   1.440   4.373   1.180 -0.0058 -0.3343  0.0406
 6004TIP3    H139427   1.418   4.438   1.247  0.3336 -1.7494  1.5976
 6004TIP3    H239428   1.535   4.366   1.185  0.2438  0.8426 -1.9193
 6005TIP3   OH239429   3.544   2.182  13.621 -0.2001 -0.1401  0.1315
 6005TIP3    H139430   3.569   2.187  13.529  0.2625  0.6963  0.3001
 6005TIP3    H239431   3.513   2.092  13.632  1.3583 -0.7755 -0.4261
 6006TIP3   OH239432   2.832   3.048  11.692  0.0057  0.0969 -0.4791
 6006TIP3    H139433   2.864   2.985  11.627 -0.9870 -0.0119 -0.8687
 6006TIP3    H239434   2.737   3.048  11.682 -0.1466  0.3562  0.7237
 6007TIP3   OH239435   3.604   2.592  11.054  0.3813  0.0590 -0.0067
 6007TIP3    H139436   3.637   2.503  11.054  3.8045  1.1516 -1.2984
 6007TIP3    H239437   3.610   2.621  10.963  0.3357  1.8969  0.5160
 6008TIP3   OH239438   3.090   0.423   2.827 -0.3488 -0.0446  0.0211
 6008TIP3    H139439   3.175   0.384   2.808 -0.1848 -0.2091  1.0245
 6008TIP3    H239440   3.100   0.462   2.914 -1.2051  0.1926  0.0269
 6009TIP3   OH239441   2.565   4.574   2.312  0.1286 -0.1121 -0.1508
 6009TIP3    H139442   2.621   4.539   2.381  0.8268  1.2478 -0.0053
 6009TIP3    H239443   2.624   4.587   2.238  0.2734  2.3421  0.3363
 6010TIP3   OH239444   0.932   3.902  11.522 -0.3885  0.4398 -0.2609
 6010TIP3    H139445   0.994   3.911  11.594  0.1686 -2.1090 -0.3204
 6010TIP3    H239446   0.944   3.812  11.491 -1.3437  1.1058 -2.8694
 6011TIP3   OH239447   6.009   6.384  11.599 -0.6048  0.4466  0.3237
 6011TIP3    H139448   6.008   6.306  11.654 -4.4080  0.0037 -0.0927
 6011TIP3    H239449   6.077   6.440  11.638  0.0783 -1.7469  2.5429
 6012TIP3   OH239450   0.376   5.228  12.371  0.0833 -0.5311 -0.0839
 6012TIP3    H139451   0.392   5.243  12.464  0.5633 -1.1464 -0.0623
 6012TIP3    H239452   0.399   5.136  12.357 -0.7992 -0.6809 -0.6370
 6013TIP3   OH239453   5.606   2.465  13.099  0.3308  0.7948 -0.0395
 6013TIP3    H139454   5.528   2.493  13.148 -0.6765 -0.8750 -0.6043
 6013TIP3    H239455   5.662   2.543  13.098  0.1471  1.1267  3.1771
 6014TIP3   OH239456   5.167   0.574   0.491 -0.7706  0.2539  0.0435
 6014TIP3    H139457   5.222   0.525   0.430 -0.9291  0.6482 -0.4216
 6014TIP3    H239458   5.079   0.563   0.457 -1.6664 -3.6349  2.8683
 6015TIP3   OH239459   4.447   6.140  15.058 -0.3296  0.4957 -0.0513
 6015TIP3    H139460   4.503   6.209  15.094 -0.7731  1.0461 -0.4117
 6015TIP3    H239461   4.384   6.122  15.127  0.2411 -0.0959  0.3397
 6016TIP3   OH239462   2.362   3.040   6.890 -0.5749 -0.4894 -0.0956
 6016TIP3    H139463   2.307   2.978   6.938 -0.1011 -0.9893 -0.1887
 6016TIP3    H239464   2.360   3.009   6.799 -2.2229  0.9841 -0.6197
 6017TIP3   OH239465   4.722   4.455   5.273  0.6588  0.1324  0.0193
 6017TIP3    H139466   4.646   4.412   5.234 -0.2000  0.7833  0.9044
 6017TIP3    H239467   4.691   4.484   5.359  1.6528  1.1859  0.0464
 6018TIP3   OH239468   0.702   3.803   0.667  0.7649 -0.4149 -0.3810
 6018TIP3    H139469   0.687   3.759   0.584 -0.7278 -1.6735  0.4985
 6018TIP3    H239470   0.697   3.733   0.733 -0.2217  0.8387  0.9440
 6019TIP3   OH239471   0.453   3.967  11.694 -0.0695  0.0950 -0.2581
 6019TIP3    H139472   0.437   4.047  11.644  0.2957  0.2380 -0.1477
 6019TIP3    H239473   0.515   3.918  11.641  0.8587  0.5556  0.3623
 6020TIP3   OH239474   4.655   0.879  16.824 -0.0927 -0.2583 -0.0613
 6020TIP3    H139475   4.658   0.884  16.919 -0.6767 -3.1980  0.1765
 6020TIP3    H239476   4.577   0.827  16.804  1.7063 -2.4767 -1.9427
 6021TIP3   OH239477   0.301   2.588   6.383  0.6928 -0.6008  0.8464
 6021TIP3    H139478   0.275   2.680   6.380  0.2531 -0.7502 -0.4240
 6021TIP3    H239479   0.221   2.541   6.405  1.2249 -0.5966  3.0329
 6022TIP3   OH239480   5.965   1.663   1.132  0.4000 -0.1602  0.1986
 6022TIP3    H139481   5.880   1.657   1.089  0.2572 -0.5871  0.5408
 6022TIP3    H239482   6.027   1.675   1.060  0.4027 -2.7968 -0.3343
 6023TIP3   OH239483   4.372   0.050   5.258 -0.6868 -0.1142  0.1308
 6023TIP3    H139484   4.421   0.024   5.336  0.2609  1.4608  0.0945
 6023TIP3    H239485   4.369  -0.029   5.205  1.1229 -0.4780  0.5145
 6024TIP3   OH239486   0.863   6.763   4.878 -0.0896 -0.3984  0.0040
 6024TIP3    H139487   0.803   6.701   4.919 -0.6781  0.1008 -0.1025
 6024TIP3    H239488   0.813   6.802   4.807  0.2954  0.1666  0.0366
 6025TIP3   OH239489   5.728   4.974  14.512  0.0643  0.2828 -0.5037
 6025TIP3    H139490   5.679   5.055  14.516  1.5175  1.1811 -0.3211
 6025TIP3    H239491   5.819   5.001  14.496  0.7812 -1.2246  0.7925
 6026TIP3   OH239492   0.842   1.734  16.866 -0.0004  0.0905  0.6334
 6026TIP3    H139493   0.761   1.773  16.831 -0.0335 -1.1922 -0.8392
 6026TIP3    H239494   0.896   1.810  16.891 -0.5702  1.0771 -0.9423
 6027TIP3   OH239495   1.890   5.091   2.235 -0.3236 -0.2387  0.0495
 6027TIP3    H139496   1.802   5.122   2.216  0.2839  0.9057 -1.1235
 6027TIP3    H239497   1.880   4.997   2.251 -1.6993 -0.1962 -0.4267
 6028TIP3   OH239498   3.116   0.350   0.838  0.1148 -0.5340 -0.3770
 6028TIP3    H139499   3.061   0.272   0.844  1.2722 -1.5004 -1.6461
 6028TIP3    H239500   3.196   0.320   0.794  0.1441  1.5806 -1.9547
 6029TIP3   OH239501   2.910   0.666  15.851 -0.4613 -1.1541  0.8295
 6029TIP3    H139502   2.871   0.752  15.862 -1.7449 -1.6964  0.6820
 6029TIP3    H239503   2.979   0.678  15.786 -2.5704 -0.7970 -1.4515
 6030TIP3   OH239504   4.610   4.323  16.553 -0.2477 -0.0105  0.1786
 6030TIP3    H139505   4.618   4.265  16.477  0.6760  0.8596 -0.4260
 6030TIP3    H239506   4.636   4.409  16.519 -0.5530  0.5369  1.3093
 6031TIP3   OH239507   4.561   1.633   0.963  0.2641 -0.5763 -0.0764
 6031TIP3    H139508   4.653   1.632   0.989  0.1549  0.8562  0.4848
 6031TIP3    H239509   4.536   1.541   0.958  1.8331 -1.0016 -0.6585
 6032TIP3   OH239510   3.007   1.139   6.054 -0.1142  0.1388  0.0007
 6032TIP3    H139511   3.018   1.090   5.972 -1.8918 -0.7282  0.2259
 6032TIP3    H239512   3.092   1.133   6.098 -0.0065 -2.0103 -0.3936
 6033TIP3   OH239513   0.965   1.431  13.603  0.2309  0.3511 -0.0679
 6033TIP3    H139514   1.040   1.372  13.615 -0.2158 -0.2302 -0.1220
 6033TIP3    H239515   0.991   1.511  13.648  2.4129  1.4954 -3.0034
 6034TIP3   OH239516   2.463   0.405  14.237  0.2255  0.2005  0.0134
 6034TIP3    H139517   2.524   0.467  14.197  1.2323 -1.5095 -1.2503
 6034TIP3    H239518   2.377   0.436  14.209  0.7483  0.6213 -1.2490
 6035TIP3   OH239519   5.141   4.179   3.116 -0.2484  0.1486 -0.1998
 6035TIP3    H139520   5.125   4.231   3.037 -0.9433  1.2448  0.6414
 6035TIP3    H239521   5.229   4.144   3.104 -0.5164 -0.1163 -1.6776
 6036TIP3   OH239522   1.292   4.889  12.876  0.4452  0.5717  0.6219
 6036TIP3    H139523   1.269   4.812  12.824 -3.2338  1.5547  0.4698
 6036TIP3    H239524   1.344   4.854  12.948 -0.7230 -2.0361  0.3429
 6037TIP3   OH239525   4.012   6.061   4.239 -0.2853  0.0603 -0.1755
 6037TIP3    H139526   3.985   5.987   4.185  0.5808  1.0702 -2.0866
 6037TIP3    H239527   3.943   6.068   4.305  1.3969 -4.7012  2.5827
 6038TIP3   OH239528   1.108   3.088  16.575 -0.0503 -0.3841  0.2281
 6038TIP3    H139529   1.129   3.165  16.629  0.5182  0.0189 -0.5513
 6038TIP3    H239530   1.041   3.042  16.625  0.1115  0.2394  1.0510
 6039TIP3   OH239531   5.679   5.395  13.218  0.4851  0.3900  0.0931
 6039TIP3    H139532   5.629   5.476  13.228  1.4125  0.9463  0.3385
 6039TIP3    H239533   5.656   5.343  13.295 -0.0379  0.4562 -0.0170
 6040TIP3   OH239534   1.310   4.521  14.588  0.5171 -0.7013  0.2358
 6040TIP3    H139535   1.272   4.560  14.509  2.1909  0.9690  0.1890
 6040TIP3    H239536   1.235   4.497  14.642 -0.6356 -0.9079 -1.3949
 6041TIP3   OH239537   5.544   2.385  12.190 -0.2393 -0.1682 -0.5011
 6041TIP3    H139538   5.589   2.352  12.112 -0.7163  0.7246 -1.1739
 6041TIP3    H239539   5.602   2.363  12.262  1.0928  0.5569 -1.3028
 6042TIP3   OH239540   2.360   3.191  13.853 -0.4368 -0.5808 -0.8856
 6042TIP3    H139541   2.342   3.223  13.764  0.7012 -0.4758 -1.0858
 6042TIP3    H239542   2.282   3.216  13.903 -1.4554 -1.3327 -2.0124
 6043TIP3   OH239543   1.783   5.865  10.813  0.1459 -0.6392  0.3360
 6043TIP3    H139544   1.694   5.890  10.840  0.0042 -0.2026 -0.4993
 6043TIP3    H239545   1.782   5.769  10.815 -0.0039 -0.6214  1.3801
 6044TIP3   OH239546   2.993   0.240   0.559  0.2831  0.0870 -0.3386
 6044TIP3    H139547   2.958   0.189   0.632 -0.7092 -0.6070 -1.2572
 6044TIP3    H239548   3.032   0.317   0.599 -1.6688  0.5332  0.8204
 6045TIP3   OH239549   5.038   4.205  10.960 -0.6799  0.0770 -0.5958
 6045TIP3    H139550   5.067   4.116  10.939  0.3593  0.5953 -1.4653
 6045TIP3    H239551   5.119   4.252  10.981 -1.1588  0.9505 -0.6661
 6046TIP3   OH239552   1.763   1.903  12.952  0.5744 -0.3004 -0.2388
 6046TIP3    H139553   1.815   1.823  12.961  1.1687  0.0824 -0.1568
 6046TIP3    H239554   1.815   1.970  12.998 -0.4726 -0.1103  0.7278
 6047TIP3   OH239555   0.258   6.299   5.341 -0.3816  0.6082  0.8259
 6047TIP3    H139556   0.211   6.383   5.337 -0.0237  0.7531 -1.0880
 6047TIP3    H239557   0.224   6.249   5.267  2.0116  0.4799 -0.2605
 6048TIP3   OH239558   5.552   0.374  15.092  0.1666 -0.3516  0.0910
 6048TIP3    H139559   5.538   0.389  14.998  1.2138 -2.6815 -0.4966
 6048TIP3    H239560   5.604   0.450  15.120 -1.4532  1.1723 -0.8177
 6049TIP3   OH239561   6.557   1.755  12.765 -0.0783  0.2774 -0.1682
 6049TIP3    H139562   6.574   1.836  12.812  0.9317  0.0376 -0.0981
 6049TIP3    H239563   6.463   1.741  12.773 -0.0939  0.8767  0.7428
 6050TIP3   OH239564   5.969   2.706  16.481 -0.2075  0.5073 -0.9364
 6050TIP3    H139565   6.031   2.641  16.513  0.6633  0.5288 -2.5025
 6050TIP3    H239566   5.987   2.784  16.534  0.5684  0.2752 -0.8480
 6051TIP3   OH239567   2.816   0.635   3.265 -0.3633 -0.7172  0.0818
 6051TIP3    H139568   2.832   0.542   3.282  1.9982 -0.2235  1.0304
 6051TIP3    H239569   2.861   0.652   3.182 -2.3628 -0.7559 -1.0630
 6052TIP3   OH239570   2.070   5.280  16.238 -0.2763  0.2121  0.5657
 6052TIP3    H139571   2.102   5.209  16.294  1.3972 -0.7332 -1.4546
 6052TIP3    H239572   1.989   5.246  16.201  0.3182 -0.5312 -0.0971
 6053TIP3   OH239573   1.042   4.713  11.934  0.1993 -0.0951 -0.1560
 6053TIP3    H139574   1.122   4.752  11.969 -0.0169  0.7729 -0.5891
 6053TIP3    H239575   0.998   4.675  12.010  0.1612  0.9852  0.3843
 6054TIP3   OH239576   0.700   1.459  13.857 -0.4285  0.1371 -0.3086
 6054TIP3    H139577   0.612   1.494  13.845 -0.7773 -1.0732 -1.4198
 6054TIP3    H239578   0.699   1.420  13.944 -0.5927  1.2090  0.1866
 6055TIP3   OH239579   2.880   5.154  13.447  0.4474 -0.4614 -0.2749
 6055TIP3    H139580   2.807   5.198  13.403 -0.0364 -1.1764 -0.2107
 6055TIP3    H239581   2.928   5.225  13.490 -0.6106 -0.0289  0.2628
 6056TIP3   OH239582   4.823   5.035   1.369  0.4598  0.7384 -0.0316
 6056TIP3    H139583   4.781   5.110   1.326 -1.4043  0.4386  1.1350
 6056TIP3    H239584   4.750   4.979   1.396  1.7496 -0.9267  0.1950
 6057TIP3   OH239585   4.065   5.914   2.036 -0.4982 -0.0099  0.5007
 6057TIP3    H139586   4.024   5.842   1.987  1.3236  0.0714 -1.2722
 6057TIP3    H239587   3.992   5.972   2.060 -1.6994 -1.1742 -0.2164
 6058TIP3   OH239588   6.162   2.020  11.224 -0.4595 -0.0826  0.1021
 6058TIP3    H139589   6.190   2.111  11.213 -0.1722 -0.1416  0.3337
 6058TIP3    H239590   6.147   1.988  11.135  1.6296 -0.4962 -0.1351
 6059TIP3   OH239591   4.134   1.915  17.362  0.3183  0.7641  0.7814
 6059TIP3    H139592   4.081   1.905  17.441 -0.1294 -0.9606  0.3108
 6059TIP3    H239593   4.070   1.925  17.292  0.7159  2.4709  0.6356
 6060TIP3   OH239594   2.551   0.153   1.456  0.3432  0.2198  0.6599
 6060TIP3    H139595   2.639   0.189   1.442  0.4162 -0.8318 -2.6204
 6060TIP3    H239596   2.561   0.060   1.437 -1.7267  0.3517 -1.4979
 6061TIP3   OH239597   5.550   6.048  12.177 -0.5074  0.7756  0.1739
 6061TIP3    H139598   5.485   6.109  12.143  1.2057  1.9160 -1.1906
 6061TIP3    H239599   5.602   6.099  12.239 -0.8099 -0.1019  1.1937
 6062TIP3   OH239600   6.148   6.317  16.135  0.6986 -0.5298  0.1744
 6062TIP3    H139601   6.182   6.273  16.057  1.6232 -0.7345  0.6772
 6062TIP3    H239602   6.216   6.381  16.158 -0.5553  1.1096 -0.4636
 6063TIP3   OH239603   4.985   1.115   6.144 -0.4444 -0.4842  0.1615
 6063TIP3    H139604   4.906   1.136   6.193 -0.5751 -1.9154  0.6154
 6063TIP3    H239605   4.954   1.092   6.057 -0.2867  1.2290 -0.3887
 6064TIP3   OH239606   2.660   0.143  16.845 -0.1701 -0.6962  0.2283
 6064TIP3    H139607   2.605   0.139  16.767  0.0320  1.3409 -0.0825
 6064TIP3    H239608   2.742   0.102  16.819 -0.6333 -1.4270 -0.1175
 6065TIP3   OH239609   6.192   1.419  10.885 -0.0509  0.4219  0.3352
 6065TIP3    H139610   6.124   1.456  10.943 -1.3596  1.3031 -1.6625
 6065TIP3    H239611   6.145   1.394  10.806  1.6188 -1.2336 -0.1917
 6066TIP3   OH239612   0.089   0.188  16.842  0.1178 -0.1665  0.2537
 6066TIP3    H139613   0.053   0.192  16.930  3.1558 -2.4384  1.7539
 6066TIP3    H239614   0.177   0.223  16.849  0.4157 -0.3284 -1.8984
 6067TIP3   OH239615   5.033   3.920   6.653  0.0944 -0.1245 -0.3906
 6067TIP3    H139616   5.000   3.867   6.725  1.3186 -0.1788  0.1539
 6067TIP3    H239617   5.096   3.862   6.609  1.3096  0.7891  0.0963
 6068TIP3   OH239618   3.442   1.488   5.772  0.2715  0.2819 -0.1623
 6068TIP3    H139619   3.377   1.487   5.843  0.0838  0.5452 -0.3284
 6068TIP3    H239620   3.395   1.525   5.698  0.6062  0.4464 -0.2928
 6069TIP3   OH239621   1.035   3.342   1.468 -0.3399 -0.7646  0.7102
 6069TIP3    H139622   1.099   3.413   1.457 -1.4141  0.0715 -0.4886
 6069TIP3    H239623   1.080   3.264   1.435  0.5426 -0.4876  1.2075
 6070TIP3   OH239624   4.231   1.742   2.463 -0.5197  0.2454 -0.1029
 6070TIP3    H139625   4.139   1.730   2.440  0.1867 -0.8637 -2.5819
 6070TIP3    H239626   4.266   1.654   2.471  0.4845  0.6627  0.2502
 6071TIP3   OH239627   3.537   3.810  16.536  0.2064 -0.2383  0.2071
 6071TIP3    H139628   3.564   3.895  16.501  0.0374  0.4771  1.7326
 6071TIP3    H239629   3.447   3.799  16.505  0.5439 -0.3192 -0.7806
 6072TIP3   OH239630   5.897   0.462  10.847 -0.4084 -0.2227  0.2770
 6072TIP3    H139631   5.990   0.482  10.856 -0.9753  2.6585  0.6224
 6072TIP3    H239632   5.869   0.438  10.935 -0.4911  1.5859  0.7839
 6073TIP3   OH239633   3.324   5.016  11.784 -0.2771 -0.0637 -0.1724
 6073TIP3    H139634   3.233   5.006  11.757  0.2185 -2.9605 -1.1514
 6073TIP3    H239635   3.334   4.954  11.856  0.7797  0.7101  0.3699
 6074TIP3   OH239636   2.278   5.145  16.026  0.1901  0.2518  0.3530
 6074TIP3    H139637   2.317   5.199  15.957  0.2287 -1.5266 -1.1078
 6074TIP3    H239638   2.257   5.062  15.982 -1.1694 -0.4244  2.1440
 6075TIP3   OH239639   0.981   1.417   2.153  0.7064  0.0675 -0.2543
 6075TIP3    H139640   1.026   1.347   2.199  0.3155  2.1134  3.6499
 6075TIP3    H239641   0.888   1.400   2.168  0.5158  0.3308 -1.0705
 6076TIP3   OH239642   0.345   2.828   3.145 -0.6819 -0.3594 -0.2502
 6076TIP3    H139643   0.338   2.762   3.077  2.2621 -0.1305 -0.8853
 6076TIP3    H239644   0.370   2.908   3.098 -0.4230  0.2648  0.9185
 6077TIP3   OH239645   3.833   4.416   3.300 -0.4501 -0.1681 -0.0444
 6077TIP3    H139646   3.884   4.337   3.287 -1.7619 -1.2334  1.0374
 6077TIP3    H239647   3.787   4.402   3.382 -1.9513  1.0313 -0.6240
 6078TIP3   OH239648   1.821   2.874   1.926 -0.3879 -0.4021  0.1781
 6078TIP3    H139649   1.735   2.833   1.925 -0.0592 -1.1044  0.1644
 6078TIP3    H239650   1.873   2.823   1.863  0.1404 -0.2129  0.4491
 6079TIP3   OH239651   4.582   2.841  15.278 -0.4918 -0.0635 -0.2695
 6079TIP3    H139652   4.504   2.801  15.240  0.7104 -0.4296 -2.5410
 6079TIP3    H239653   4.576   2.933  15.250 -1.2710  0.4945  1.6036
 6080TIP3   OH239654   6.155   1.431   2.923  0.6422 -0.4701  0.0303
 6080TIP3    H139655   6.242   1.468   2.931  0.3718  0.0497  0.6760
 6080TIP3    H239656   6.096   1.507   2.929  0.1359 -0.8401 -0.1647
 6081TIP3   OH239657   0.035   2.765   1.318  0.4391  0.2552  0.1709
 6081TIP3    H139658  -0.048   2.782   1.362  1.0171  0.6854  1.1177
 6081TIP3    H239659   0.010   2.722   1.236 -0.7399  0.8031  0.2221
 6082TIP3   OH239660   2.116   3.302   4.133  0.1838  0.0920 -0.4158
 6082TIP3    H139661   2.052   3.293   4.062 -0.5616 -0.0132  0.2546
 6082TIP3    H239662   2.063   3.320   4.211  0.9031 -0.8768  0.3241
 6083TIP3   OH239663   3.766   6.581   5.438  0.1469  0.6048 -0.1875
 6083TIP3    H139664   3.775   6.665   5.393  1.0469  0.7416  0.2209
 6083TIP3    H239665   3.729   6.522   5.373  0.6528  1.0052 -0.8446
 6084TIP3   OH239666   0.259   3.101   4.572  0.3574 -0.3006  0.2305
 6084TIP3    H139667   0.294   3.103   4.661  1.4531  1.5469 -0.1886
 6084TIP3    H239668   0.299   3.176   4.529  0.0289 -1.2770 -1.9091
 6085TIP3   OH239669   1.700   2.565   3.192  0.1127  0.3918  0.0648
 6085TIP3    H139670   1.793   2.567   3.215 -0.1819  0.3293  1.3517
 6085TIP3    H239671   1.699   2.559   3.096  1.4743 -3.2700  0.1209
 6086TIP3   OH239672   3.661   1.132   0.768  0.5229 -0.1838  0.7087
 6086TIP3    H139673   3.580   1.085   0.789 -0.1530  0.5326 -0.2563
 6086TIP3    H239674   3.661   1.208   0.827  0.6166 -0.3090  0.8717
 6087TIP3   OH239675   5.547   0.396   2.616 -0.1343  0.1687  0.2344
 6087TIP3    H139676   5.561   0.439   2.532 -2.4166  0.2217 -0.1797
 6087TIP3    H239677   5.471   0.440   2.654 -0.5647 -1.3697  1.2620
 6088TIP3   OH239678   6.434   3.998  16.796  0.4178 -0.0932 -0.7281
 6088TIP3    H139679   6.472   3.974  16.881 -2.1392  1.3286  0.9462
 6088TIP3    H239680   6.460   4.089  16.783  0.0190 -0.0177 -1.0094
 6089TIP3   OH239681   2.239   2.497  16.036  0.0064 -0.0346 -0.0198
 6089TIP3    H139682   2.234   2.452  15.952  2.4016 -0.1511 -0.1533
 6089TIP3    H239683   2.209   2.433  16.100  0.3432 -0.7275 -0.5512
 6090TIP3   OH239684   5.093   5.002  12.761 -0.2016 -0.1682  0.5288
 6090TIP3    H139685   4.999   5.018  12.750 -0.0454  1.7318  1.5277
 6090TIP3    H239686   5.127   4.997  12.672 -0.8724  1.9617  0.0902
 6091TIP3   OH239687   5.367   3.942   5.995  0.2306  0.3841  0.0561
 6091TIP3    H139688   5.335   3.856   5.970  0.4989  0.9229 -2.3907
 6091TIP3    H239689   5.323   3.961   6.078 -3.1215 -0.3461 -1.3855
 6092TIP3   OH239690   6.632   5.881  12.236  0.7568 -0.1774 -0.0514
 6092TIP3    H139691   6.551   5.911  12.276  0.4370  1.9127 -2.0763
 6092TIP3    H239692   6.606   5.846  12.151  1.6508 -2.5960  0.5935
 6093TIP3   OH239693   5.562   4.761   3.704 -0.0948  0.0989 -0.6881
 6093TIP3    H139694   5.480   4.808   3.717 -0.4335 -0.7216  0.2197
 6093TIP3    H239695   5.538   4.682   3.656  0.2304  0.0335 -0.7511
 6094TIP3   OH239696   2.733   1.676  14.544  0.6801 -0.2301 -0.0169
 6094TIP3    H139697   2.656   1.641  14.500  0.3191  0.3192  0.1679
 6094TIP3    H239698   2.724   1.648  14.635 -0.0936  1.0917  0.3427
 6095TIP3   OH239699   1.544   0.036  16.537  0.0580 -0.3137  0.0599
 6095TIP3    H139700   1.452   0.015  16.554  0.0912  0.0318  0.6937
 6095TIP3    H239701   1.555   0.125  16.571  0.2468  0.2508 -1.3950
 6096TIP3   OH239702   0.537   1.517  11.226 -0.0679  0.6177  0.6105
 6096TIP3    H139703   0.558   1.550  11.313 -0.9312 -0.0197  1.0809
 6096TIP3    H239704   0.442   1.521  11.222 -0.0558  0.2028 -0.1277
 6097TIP3   OH239705   1.350   2.813   3.731 -0.1803  0.3873 -0.7311
 6097TIP3    H139706   1.368   2.817   3.637 -1.0013  2.1541 -0.8511
 6097TIP3    H239707   1.408   2.879   3.770 -0.3508  0.1665 -0.0874
 6098TIP3   OH239708   4.281   2.825   5.016  0.4768 -0.4019  0.7245
 6098TIP3    H139709   4.186   2.832   5.017  0.3104 -2.0892 -0.1685
 6098TIP3    H239710   4.302   2.757   5.080  0.8235 -2.0380 -1.0437
 6099TIP3   OH239711   4.898   4.446  15.461  0.4020 -0.1826 -0.2379
 6099TIP3    H139712   4.925   4.354  15.458  0.9900 -0.0127 -0.3404
 6099TIP3    H239713   4.975   4.492  15.494 -0.1625  0.1733  0.6072
 6100TIP3   OH239714   4.789   2.783  12.463  0.1823 -0.0457 -0.4763
 6100TIP3    H139715   4.764   2.821  12.379 -2.1038 -2.2463 -0.9395
 6100TIP3    H239716   4.832   2.700  12.440  0.2950 -0.2777  0.5157
 6101TIP3   OH239717   1.172   0.678  13.419 -0.3075  0.1892  0.1597
 6101TIP3    H139718   1.256   0.725  13.417  0.5967 -1.0917  2.6141
 6101TIP3    H239719   1.190   0.596  13.373  0.0490 -0.3545  1.2124
 6102TIP3   OH239720   1.946   5.541  14.871  0.1764 -0.1242 -0.4376
 6102TIP3    H139721   2.007   5.599  14.916 -1.1875  1.0533 -0.0442
 6102TIP3    H239722   1.918   5.479  14.938 -1.9644  1.7134  0.5240
 6103TIP3   OH239723   6.448   3.243  13.674  0.0495  0.4529 -0.7003
 6103TIP3    H139724   6.354   3.235  13.660  0.1754 -2.0691 -0.5473
 6103TIP3    H239725   6.463   3.199  13.758  1.2314  1.8812 -0.1275
 6104TIP3   OH239726   4.633   5.808  11.463 -0.2674 -0.1934 -0.6721
 6104TIP3    H139727   4.571   5.789  11.534  0.0807 -0.2639 -0.3836
 6104TIP3    H239728   4.578   5.833  11.389 -0.6195  0.2981 -0.2489
 6105TIP3   OH239729   3.428   0.451   1.967  0.0832  0.8260 -0.2986
 6105TIP3    H139730   3.386   0.537   1.978 -0.0131  0.8561 -0.8796
 6105TIP3    H239731   3.477   0.459   1.885  1.6115  0.9425  0.5875
 6106TIP3   OH239732   3.760   3.760   6.001  0.2420 -0.0879 -0.1576
 6106TIP3    H139733   3.778   3.737   6.093  1.8569  3.2347  0.5270
 6106TIP3    H239734   3.675   3.804   6.004 -0.4240 -1.2859 -0.5894
 6107TIP3   OH239735   0.743   6.638   3.651  0.2673  0.2220  0.2347
 6107TIP3    H139736   0.803   6.677   3.588  1.4213  0.0122  1.1627
 6107TIP3    H239737   0.732   6.548   3.622  0.7868  0.1300  0.3093
 6108TIP3   OH239738   3.631   1.540   6.288  0.3302  0.5005 -0.2338
 6108TIP3    H139739   3.646   1.635   6.283  1.4204  0.4568  1.4255
 6108TIP3    H239740   3.716   1.502   6.264 -0.8242 -0.2312 -3.8317
 6109TIP3   OH239741   0.086   4.405   6.176 -0.3619 -0.0549 -0.2362
 6109TIP3    H139742   0.101   4.313   6.198 -1.2678 -0.1329  0.0917
 6109TIP3    H239743   0.006   4.428   6.223 -1.4795  0.2261 -2.1704
 6110TIP3   OH239744   2.956   5.137   2.009  0.0466 -0.1368  0.4369
 6110TIP3    H139745   2.983   5.049   1.981  0.8718 -0.1307  1.1849
 6110TIP3    H239746   2.940   5.184   1.927 -2.7401 -1.6398 -0.0264
 6111TIP3   OH239747   0.517   3.789   3.941  0.0938  0.7729 -0.2612
 6111TIP3    H139748   0.548   3.724   4.003  0.6467 -0.7468 -2.0425
 6111TIP3    H239749   0.548   3.873   3.976  1.8054 -0.1952  0.6343
 6112TIP3   OH239750   1.640   3.718   3.285 -0.5706 -0.2432 -0.5447
 6112TIP3    H139751   1.645   3.687   3.194 -0.7939 -0.4983 -0.4741
 6112TIP3    H239752   1.548   3.741   3.297 -0.0007  3.0572 -1.4248
 6113TIP3   OH239753   3.623   2.023  15.057  0.4772 -0.4237  0.0643
 6113TIP3    H139754   3.625   1.950  15.119  0.9579  0.7008  1.4338
 6113TIP3    H239755   3.685   1.998  14.988  1.3099 -0.9407  0.9767
 6114TIP3   OH239756   4.595   5.479   0.614 -0.3437  0.2396 -0.3073
 6114TIP3    H139757   4.542   5.482   0.534  0.5855  0.8579 -0.9163
 6114TIP3    H239758   4.666   5.419   0.594  0.0070  0.5504 -0.0163
 6115TIP3   OH239759   4.851   3.004  10.533 -0.3854  0.1937 -0.1820
 6115TIP3    H139760   4.790   3.037  10.599 -1.0327 -3.4451  1.3080
 6115TIP3    H239761   4.813   3.030  10.450 -1.0717  2.5180  0.7823
 6116TIP3   OH239762   1.671   5.533   0.501  0.1690 -0.1053 -0.4137
 6116TIP3    H139763   1.629   5.605   0.453  1.9648  1.3408  0.0793
 6116TIP3    H239764   1.613   5.458   0.487 -0.1262  0.5736 -3.6890
 6117TIP3   OH239765   1.691   6.592  16.465  0.1205  0.4432 -0.3517
 6117TIP3    H139766   1.647   6.675  16.484  0.7166  0.8867 -0.8391
 6117TIP3    H239767   1.630   6.545  16.408 -1.1239 -0.3610  1.5628
 6118TIP3   OH239768   5.371   3.516  14.776 -0.4083 -0.3634 -0.5708
 6118TIP3    H139769   5.320   3.479  14.848 -1.7155  2.9417  0.3674
 6118TIP3    H239770   5.334   3.476  14.697 -1.6087 -1.1582  0.3593
 6119TIP3   OH239771   4.207   1.856   6.113  0.6193 -0.0363 -0.5001
 6119TIP3    H139772   4.187   1.765   6.135  0.7839 -0.4560 -1.9964
 6119TIP3    H239773   4.164   1.907   6.182 -0.6452 -1.1739 -0.3956
 6120TIP3   OH239774   1.332   2.876  11.960 -0.5949 -0.6664 -0.3691
 6120TIP3    H139775   1.353   2.872  12.054  0.7383  0.6009 -0.5632
 6120TIP3    H239776   1.274   2.952  11.952  0.6193  0.2573 -0.7431
 6121TIP3   OH239777   0.899   3.379   5.299 -0.1299  0.0383  0.3133
 6121TIP3    H139778   0.904   3.330   5.217  0.6940  1.3861 -0.4750
 6121TIP3    H239779   0.805   3.390   5.315 -0.3432 -2.0427  0.6975
 6122TIP3   OH239780   6.447   0.525   4.701 -0.4079 -0.3642 -1.0410
 6122TIP3    H139781   6.358   0.538   4.671 -0.8237 -1.7547 -0.4991
 6122TIP3    H239782   6.439   0.471   4.780  0.8948 -0.3444 -0.8584
 6123TIP3   OH239783   4.608   6.116   3.034 -0.1933  0.0974  0.1373
 6123TIP3    H139784   4.537   6.154   2.982  0.7867 -0.0742 -1.3741
 6123TIP3    H239785   4.602   6.022   3.016  2.0558  0.3012 -2.2577
 6124TIP3   OH239786   6.440   3.655   0.419  0.4439 -0.0395 -0.3624
 6124TIP3    H139787   6.469   3.579   0.368 -0.1185 -0.7839  0.3895
 6124TIP3    H239788   6.418   3.618   0.505 -1.0435  0.7815 -0.3740
 6125TIP3   OH239789   5.403   4.775   5.579 -0.1993 -0.0044  0.0379
 6125TIP3    H139790   5.323   4.822   5.555  0.2934  0.6938 -0.2485
 6125TIP3    H239791   5.382   4.683   5.563 -0.5911  0.2607 -1.0676
 6126TIP3   OH239792   5.786   2.025  11.885 -0.0184  0.4883 -0.1404
 6126TIP3    H139793   5.761   2.001  11.974 -0.4732 -2.7467 -1.0081
 6126TIP3    H239794   5.707   2.064  11.847 -0.5366 -0.1913  0.2218
 6127TIP3   OH239795   6.411   1.317  13.653 -0.0615  0.8587  0.1263
 6127TIP3    H139796   6.426   1.248  13.589 -0.6777  0.7505  0.0905
 6127TIP3    H239797   6.432   1.277  13.738 -1.0416  0.4154  0.1721
 6128TIP3   OH239798   3.494   1.850   4.076 -0.0050  0.5989  0.1824
 6128TIP3    H139799   3.477   1.757   4.058  0.7799  0.3307  0.7454
 6128TIP3    H239800   3.522   1.886   3.992  0.4381  0.1339  0.1209
 6129TIP3   OH239801   4.829   6.286   3.055 -0.4990  0.2642 -0.4207
 6129TIP3    H139802   4.904   6.239   3.091 -0.2399  1.2855  0.4053
 6129TIP3    H239803   4.775   6.218   3.015  1.0846 -0.4394 -1.4517
 6130TIP3   OH239804   6.262   1.940  17.215  0.1841 -0.5634 -0.1434
 6130TIP3    H139805   6.209   1.861  17.215 -1.9178  0.7461 -1.3674
 6130TIP3    H239806   6.288   1.953  17.124  1.6268 -0.5193  0.2479
 6131TIP3   OH239807   0.946   1.410  13.301 -0.1412  0.0853  0.3200
 6131TIP3    H139808   1.009   1.349  13.337  0.8766  1.6951  1.3869
 6131TIP3    H239809   0.905   1.451  13.377 -2.7217 -1.0856 -0.3208
 6132TIP3   OH239810   2.756   1.180   4.436 -0.5541  0.6563  0.3791
 6132TIP3    H139811   2.838   1.144   4.402 -1.1982 -0.4905 -0.0089
 6132TIP3    H239812   2.777   1.270   4.458  0.9019  0.2976  0.5852
 6133TIP3   OH239813   1.652   3.920  14.270 -0.3123  0.0657  0.5149
 6133TIP3    H139814   1.717   3.861  14.309  2.0917  1.9657 -0.3494
 6133TIP3    H239815   1.568   3.891  14.307  0.9883 -2.4724  1.7536
 6134TIP3   OH239816   3.524   4.678  15.474  0.5325 -0.3866 -0.2214
 6134TIP3    H139817   3.478   4.750  15.517 -2.9975 -2.4386 -0.1263
 6134TIP3    H239818   3.493   4.681  15.384  1.0744 -1.2171 -0.4420
 6135TIP3   OH239819   3.064   4.171   0.652 -0.3440  0.7835  0.1390
 6135TIP3    H139820   3.069   4.138   0.742  0.1054  1.1592  0.2584
 6135TIP3    H239821   3.015   4.253   0.660 -0.1546  0.9037  0.0697
 6136TIP3   OH239822   3.774   2.839  15.900 -0.0201 -0.0981 -0.1766
 6136TIP3    H139823   3.725   2.761  15.872  0.4944  0.1743 -2.0003
 6136TIP3    H239824   3.865   2.811  15.900  0.1231  0.3663 -0.3764
 6137TIP3   OH239825   4.913   3.399  11.497  0.4020  0.2351 -0.2388
 6137TIP3    H139826   4.833   3.360  11.462  1.6810 -2.5452 -0.2870
 6137TIP3    H239827   4.892   3.493  11.504 -2.6487 -0.2881 -0.7119
 6138TIP3   OH239828   4.894   4.370  15.823  0.0154  0.0550 -0.1151
 6138TIP3    H139829   4.866   4.445  15.770 -0.5308 -0.0669 -0.0021
 6138TIP3    H239830   4.823   4.307  15.815  0.3190 -0.3141  0.0710
 6139TIP3   OH239831   3.931   3.792  15.351 -0.0162  0.3109  0.2387
 6139TIP3    H139832   3.955   3.816  15.261  1.8028 -0.9113  0.3507
 6139TIP3    H239833   3.875   3.715  15.341  1.4501 -0.7896  0.1525
 6140TIP3   OH239834   0.055   1.305  11.670  0.1913  0.0656  0.6556
 6140TIP3    H139835   0.149   1.326  11.668 -0.1298  1.8513  1.9433
 6140TIP3    H239836   0.045   1.249  11.747  0.3636 -1.3278 -0.2846
 6141TIP3   OH239837   1.047   1.517   5.589  0.1419 -0.2362 -0.0411
 6141TIP3    H139838   1.052   1.611   5.573  2.5762 -0.1562  0.7524
 6141TIP3    H239839   1.085   1.505   5.676 -1.2394 -1.8533  0.3802
 6142TIP3   OH239840   0.806   2.959  17.098 -0.1337  0.1340  0.0235
 6142TIP3    H139841   0.901   2.960  17.095 -0.1172 -0.0035  0.4454
 6142TIP3    H239842   0.783   2.866  17.101 -0.2585  0.1763  0.4864
 6143TIP3   OH239843   2.864   1.064   3.265  0.2012  0.0055  0.6454
 6143TIP3    H139844   2.815   1.066   3.183 -1.2016 -0.4762  1.4407
 6143TIP3    H239845   2.941   1.010   3.245  1.0328  1.6850 -0.9285
 6144TIP3   OH239846   1.961   2.888  11.980 -0.3632 -0.0625  0.1747
 6144TIP3    H139847   1.874   2.918  12.006 -0.4942  0.0576 -0.3894
 6144TIP3    H239848   2.021   2.935  12.037 -0.6216  0.5202 -0.0338
 6145TIP3   OH239849   6.446   3.529  14.624 -0.4336  0.2191 -0.4444
 6145TIP3    H139850   6.447   3.552  14.531 -0.2079  0.7864 -0.3081
 6145TIP3    H239851   6.452   3.433  14.625  2.7398  0.3098 -0.9715
 6146TIP3   OH239852   1.552   0.430  13.388  0.3283  0.3044  0.0072
 6146TIP3    H139853   1.624   0.427  13.324 -0.2501  2.0447 -0.7883
 6146TIP3    H239854   1.589   0.475  13.463  0.0680  1.2350 -0.4172
 6147TIP3   OH239855   1.703   5.053  12.912  0.2751  0.2963 -0.2609
 6147TIP3    H139856   1.662   4.975  12.950 -1.4295  0.1259 -2.2997
 6147TIP3    H239857   1.708   5.115  12.985 -1.8350 -0.4090  0.5472
 6148TIP3   OH239858   4.421   6.565   5.116 -0.4846  0.2909 -0.9013
 6148TIP3    H139859   4.430   6.493   5.053 -0.6647  0.7991 -1.5254
 6148TIP3    H239860   4.413   6.522   5.201  0.0796 -0.4033 -1.1879
 6149TIP3   OH239861   1.780   5.528  12.099 -0.1115 -0.1635 -0.3950
 6149TIP3    H139862   1.831   5.538  12.179  0.9859 -1.8790 -0.7950
 6149TIP3    H239863   1.689   5.532  12.126  0.2395 -1.2917  1.0501
 6150TIP3   OH239864   3.835   5.296  13.538  0.2309  0.7385  0.3694
 6150TIP3    H139865   3.781   5.325  13.465 -0.1036  0.7927  0.6347
 6150TIP3    H239866   3.776   5.297  13.614  0.2878 -0.3262  0.4518
 6151TIP3   OH239867   5.142   3.997  14.196  0.1061  0.0784  0.2700
 6151TIP3    H139868   5.156   3.967  14.286  0.8192 -1.0362 -0.1910
 6151TIP3    H239869   5.062   4.049  14.199  1.8300  2.9278  2.2123
 6152TIP3   OH239870   4.206   1.094   2.662 -0.4748 -0.0956  0.4550
 6152TIP3    H139871   4.260   1.043   2.602  0.0701  0.9720  0.0215
 6152TIP3    H239872   4.226   1.185   2.642 -2.4014  0.3404  0.3157
 6153TIP3   OH239873   5.948   1.349  16.250 -0.3587 -0.6478  0.3877
 6153TIP3    H139874   5.920   1.384  16.334  0.7614  2.6698 -0.4809
 6153TIP3    H239875   6.043   1.338  16.257 -0.2212 -0.1488 -0.4830
 6154TIP3   OH239876   5.334   0.522  16.055  0.6270 -0.2428 -0.4366
 6154TIP3    H139877   5.387   0.443  16.042  1.5528  0.1663  0.6633
 6154TIP3    H239878   5.328   0.530  16.151  2.5005  2.2564 -0.4189
 6155TIP3   OH239879   3.085   0.414   5.909  0.7540 -0.2667 -0.0940
 6155TIP3    H139880   3.134   0.490   5.941  1.3354 -0.7270  0.1415
 6155TIP3    H239881   3.112   0.404   5.818  0.2008  0.1774 -0.3111
 6156TIP3   OH239882   5.884   2.840  12.358  0.7383  0.3087  0.2716
 6156TIP3    H139883   5.839   2.888  12.428 -0.8397 -0.0442 -0.4737
 6156TIP3    H239884   5.822   2.773  12.331  1.7447 -0.2359 -0.7596
 6157TIP3   OH239885   6.602   0.718   5.709 -0.1480  0.4645 -0.0816
 6157TIP3    H139886   6.639   0.630   5.704  0.9013  0.9635 -1.9666
 6157TIP3    H239887   6.678   0.776   5.708 -0.8560  1.4477 -1.5974
 6158TIP3   OH239888   5.418   2.501   0.743 -0.5128 -0.3534  0.3742
 6158TIP3    H139889   5.360   2.448   0.687  0.5280 -0.8239 -0.2830
 6158TIP3    H239890   5.402   2.591   0.715 -0.5855 -0.5165 -0.1227
 6159TIP3   OH239891   1.450   2.119   2.912  0.3123 -0.1330 -0.1627
 6159TIP3    H139892   1.400   2.191   2.873  0.0207 -0.0039  0.4395
 6159TIP3    H239893   1.392   2.083   2.979  0.3986 -1.0235 -0.5502
 6160TIP3   OH239894   3.882   5.216   0.850  0.2227 -0.3067 -0.0622
 6160TIP3    H139895   3.948   5.174   0.795 -0.1511  0.3666 -1.0440
 6160TIP3    H239896   3.895   5.310   0.838 -0.7086 -0.1581 -0.0388
 6161TIP3   OH239897   4.649   3.170   2.241 -0.3524 -0.0483 -0.2978
 6161TIP3    H139898   4.567   3.173   2.292 -1.1371 -2.5390 -1.2456
 6161TIP3    H239899   4.691   3.089   2.269  1.0697  0.4424 -0.9412
 6162TIP3   OH239900   2.132   3.879   3.546  0.0043  0.3893 -0.2106
 6162TIP3    H139901   2.198   3.852   3.481  1.7835  1.4190  1.0761
 6162TIP3    H239902   2.108   3.968   3.520  1.7286  1.3294  1.2177
 6163TIP3   OH239903   1.342   3.726  13.434 -0.0017 -0.3123  0.1499
 6163TIP3    H139904   1.399   3.733  13.510  0.4029  0.3083 -0.2013
 6163TIP3    H239905   1.281   3.655  13.455 -1.4422  1.3868  2.0706
 6164TIP3   OH239906   2.686   0.363   3.481 -0.1151  0.0364  0.4015
 6164TIP3    H139907   2.662   0.428   3.548  0.2123 -0.2328  0.7859
 6164TIP3    H239908   2.626   0.290   3.495 -0.4776  0.2447 -0.0261
 6165TIP3   OH239909   2.090   4.098  13.124  0.9732 -0.1732 -0.1402
 6165TIP3    H139910   2.156   4.075  13.190  1.2580  2.0316  0.4221
 6165TIP3    H239911   2.133   4.163  13.069 -0.2502  0.1862 -0.6998
 6166TIP3   OH239912   1.717   4.286   2.129 -0.5529 -0.2981 -0.4014
 6166TIP3    H139913   1.799   4.251   2.162 -0.2207 -0.2745 -1.1835
 6166TIP3    H239914   1.673   4.320   2.207  0.4611  0.2702 -0.0530
 6167TIP3   OH239915   6.136   5.842   1.105  0.3859 -0.0013  0.0895
 6167TIP3    H139916   6.121   5.826   1.198 -0.8628 -1.7940 -0.3610
 6167TIP3    H239917   6.056   5.885   1.075  1.6093  2.5655  0.1877
 6168TIP3   OH239918   0.205   5.712   4.740 -0.9545  0.4137  0.3484
 6168TIP3    H139919   0.208   5.753   4.654  1.0697  1.5335  0.8869
 6168TIP3    H239920   0.283   5.658   4.744 -1.5070 -0.3540  1.1611
 6169TIP3   OH239921   5.488   6.159   3.078  0.2023 -0.5246 -0.2840
 6169TIP3    H139922   5.581   6.175   3.061  0.5942 -1.8158  0.4894
 6169TIP3    H239923   5.486   6.116   3.164 -1.3639  2.1435  1.1291
 6170TIP3   OH239924   1.766   3.549   0.379 -0.7605 -0.0413  0.1001
 6170TIP3    H139925   1.833   3.485   0.353  0.2402  0.1612  1.9590
 6170TIP3    H239926   1.815   3.630   0.390 -1.6076  0.4837  0.0256
 6171TIP3   OH239927   1.196   0.000   4.231  0.1309 -0.1487  0.2671
 6171TIP3    H139928   1.158  -0.081   4.263 -1.4232  0.7749  0.8703
 6171TIP3    H239929   1.244   0.036   4.306  1.2050 -0.6830 -0.1279
 6172TIP3   OH239930   6.649   5.916  16.733 -0.5487  0.2939 -0.0486
 6172TIP3    H139931   6.668   5.847  16.795  0.0237  1.3581  0.9946
 6172TIP3    H239932   6.577   5.966  16.772 -0.9194  0.3379 -0.7567
 6173TIP3   OH239933   4.039   2.452   0.825 -1.0225  0.5172 -0.0367
 6173TIP3    H139934   4.014   2.537   0.860 -0.7502 -0.0230  1.5838
 6173TIP3    H239935   4.100   2.471   0.754 -1.1896  1.6698  0.1218
 6174TIP3   OH239936   5.125   2.351  11.999 -1.1718 -0.2225 -0.1500
 6174TIP3    H139937   5.049   2.409  11.993 -0.4314  0.8263  0.3836
 6174TIP3    H239938   5.116   2.310  12.085 -0.8731  0.2791  0.1226
 6175TIP3   OH239939   6.073   3.008  14.068  0.4843  0.2448 -0.3817
 6175TIP3    H139940   6.075   2.982  13.976  2.5924  0.9824 -0.5914
 6175TIP3    H239941   5.997   3.067  14.075 -0.7198 -1.1410 -1.2139
 6176TIP3   OH239942   5.696   3.149  15.223 -0.8730 -0.1759  0.1087
 6176TIP3    H139943   5.627   3.134  15.159  0.8675  1.0746 -2.2063
 6176TIP3    H239944   5.774   3.111  15.184  0.2548  0.6233  1.4919
 6177TIP3   OH239945   4.554   6.740  14.776  0.3307  0.1515  0.4449
 6177TIP3    H139946   4.617   6.690  14.829 -1.2043 -1.3982  0.9157
 6177TIP3    H239947   4.524   6.678  14.709 -1.2075  0.5961  0.6754
 6178TIP3   OH239948   2.598   0.458  12.917 -0.1606  0.1379 -0.2130
 6178TIP3    H139949   2.606   0.364  12.904  0.7159 -0.0270  1.3137
 6178TIP3    H239950   2.521   0.483  12.865 -0.5347 -1.4364 -0.4621
 6179TIP3   OH239951   3.544   5.022  16.821 -0.7601  0.0183 -0.4563
 6179TIP3    H139952   3.607   4.955  16.794  0.3107  0.1818  1.4647
 6179TIP3    H239953   3.465   4.974  16.843 -0.8458 -0.3393 -1.5123
 6180TIP3   OH239954   2.003   2.946  13.514  0.0837  0.0299  0.0842
 6180TIP3    H139955   1.911   2.968  13.528 -0.2540 -0.8880 -0.5789
 6180TIP3    H239956   2.027   2.893  13.589 -0.2372 -0.5908 -0.2433
 6181TIP3   OH239957   2.122   2.763   4.784  0.7898  0.6094 -0.3236
 6181TIP3    H139958   2.033   2.744   4.811  1.5284 -1.4080  0.8852
 6181TIP3    H239959   2.121   2.756   4.688 -0.6304  2.1609 -0.4611
 6182TIP3   OH239960   4.376   2.413   5.611  0.0788 -0.0915 -0.3134
 6182TIP3    H139961   4.312   2.349   5.580 -1.0572  1.2168 -0.7662
 6182TIP3    H239962   4.457   2.363   5.622 -1.1486 -1.9416  0.9065
 6183TIP3   OH239963   6.043   6.529  14.269 -0.2123 -0.0275  0.5145
 6183TIP3    H139964   5.972   6.470  14.294 -1.1129  1.4968  1.7589
 6183TIP3    H239965   6.000   6.612  14.249  0.8935 -0.0475 -2.4356
 6184TIP3   OH239966   2.498   2.422   0.579  0.0128 -0.5745 -0.0913
 6184TIP3    H139967   2.502   2.397   0.487 -1.5427  0.9065 -0.6054
 6184TIP3    H239968   2.548   2.353   0.625 -0.0619 -1.8988 -1.8970
 6185TIP3   OH239969   3.991   5.650  12.853  0.8993  0.6844 -0.1367
 6185TIP3    H139970   3.929   5.578  12.842  1.1148  0.7953 -2.7156
 6185TIP3    H239971   3.945   5.713  12.909  0.0046 -0.6631  0.6872
 6186TIP3   OH239972   5.412   1.834   1.379 -0.1855 -0.5252  0.5123
 6186TIP3    H139973   5.464   1.809   1.455 -0.3669  0.8961  1.1365
 6186TIP3    H239974   5.473   1.882   1.322 -0.4538 -0.0850  0.5862
 6187TIP3   OH239975   4.701   0.218  13.821  0.1138 -0.3242 -0.7140
 6187TIP3    H139976   4.609   0.232  13.842  0.3148 -0.2992  0.2260
 6187TIP3    H239977   4.742   0.200  13.906  0.6648 -2.1248 -1.3126
 6188TIP3   OH239978   1.752   2.471  10.573 -0.5027  0.0180 -0.1281
 6188TIP3    H139979   1.669   2.424  10.585 -0.0254 -0.7476  0.2647
 6188TIP3    H239980   1.750   2.539  10.640 -0.7301 -0.1325  0.0216
 6189TIP3   OH239981   5.728   6.160   0.349 -0.4045 -0.6965  0.0277
 6189TIP3    H139982   5.794   6.106   0.307 -2.0230 -1.2139 -2.0350
 6189TIP3    H239983   5.723   6.239   0.295 -0.0101  0.3024  1.4024
 6190TIP3   OH239984   0.709   4.373  16.913 -0.3287 -0.3352  0.0697
 6190TIP3    H139985   0.694   4.465  16.933  0.4445  0.1542 -1.4605
 6190TIP3    H239986   0.754   4.374  16.829  1.2715 -2.0273  0.8361
 6191TIP3   OH239987   5.791   6.002   1.959  0.5134 -0.5014  0.2200
 6191TIP3    H139988   5.701   5.973   1.972  0.1003 -0.0089 -1.3974
 6191TIP3    H239989   5.836   5.977   2.040 -1.4545  0.8079  1.8120
 6192TIP3   OH239990   4.912   2.119  12.480  0.0074 -0.0864  0.1208
 6192TIP3    H139991   4.917   2.084  12.391  0.8939  0.0839  0.0959
 6192TIP3    H239992   4.937   2.210  12.471  2.1174 -0.5536  0.8216
 6193TIP3   OH239993   0.988   5.818  14.981 -0.7505 -0.1994 -0.4595
 6193TIP3    H139994   0.958   5.855  15.064  1.8434 -0.2459  0.5899
 6193TIP3    H239995   0.966   5.884  14.916  0.0350  1.3397  0.7624
 6194TIP3   OH239996   1.117   3.794   1.387  0.3630 -0.0248  0.0072
 6194TIP3    H139997   1.094   3.815   1.297  1.2636  1.1210  0.0232
 6194TIP3    H239998   1.035   3.805   1.436  0.6257  3.1877 -0.0632
 6195TIP3   OH239999   5.580   0.567   0.368  0.1567  0.1359 -0.4476
 6195TIP3    H140000   5.561   0.502   0.301  0.1527 -0.7415  0.3753
 6195TIP3    H240001   5.596   0.515   0.447  0.4581  1.1260  0.1567
 6196TIP3   OH240002   5.827   4.828   6.435  0.1518 -0.4426 -0.0570
 6196TIP3    H140003   5.868   4.898   6.486 -0.2594  0.2517 -0.6440
 6196TIP3    H240004   5.782   4.774   6.499  0.9808 -0.5212  0.4709
 6197TIP3   OH240005   4.139   6.317  11.525  0.0093  0.0755  0.1933
 6197TIP3    H140006   4.059   6.343  11.571  0.9269  0.1064  1.8163
 6197TIP3    H240007   4.171   6.241  11.573  1.3218  0.4814 -0.0058
 6198TIP3   OH240008   0.984   5.812   3.408 -0.0647 -0.3403  0.2091
 6198TIP3    H140009   0.934   5.890   3.430  0.2617 -0.4940  1.6070
 6198TIP3    H240010   0.951   5.785   3.323 -0.6798  0.9090  0.0328
 6199TIP3   OH240011   6.049   5.187   1.105  0.1430  0.3557 -0.0815
 6199TIP3    H140012   6.046   5.214   1.197  0.0079  1.9899 -0.5229
 6199TIP3    H240013   6.111   5.249   1.064 -1.5819  1.2423 -1.5349
 6200TIP3   OH240014   0.478   5.219  12.623  0.2605 -0.2738  0.1934
 6200TIP3    H140015   0.450   5.165  12.697 -0.4863  0.8954  0.8083
 6200TIP3    H240016   0.461   5.309  12.652  2.7154  0.3996 -0.2652
 6201TIP3   OH240017   3.510   6.121   0.140 -0.5551 -0.1730 -0.6822
 6201TIP3    H140018   3.547   6.046   0.185  1.1064  1.1265  0.2285
 6201TIP3    H240019   3.579   6.187   0.142 -2.1163  1.5597 -1.0196
 6202TIP3   OH240020   6.499   4.059   5.362  0.0065 -0.7224 -0.3354
 6202TIP3    H140021   6.459   4.146   5.362 -0.7858 -1.0762 -0.1514
 6202TIP3    H240022   6.473   4.021   5.446  2.3318 -0.2696  0.6474
 6203TIP3   OH240023   5.724   3.865  16.412 -0.4386  0.0413 -0.3831
 6203TIP3    H140024   5.673   3.946  16.414 -0.5900 -0.0612 -0.0017
 6203TIP3    H240025   5.803   3.884  16.463 -0.8907 -0.3267  0.4620
 6204TIP3   OH240026   1.018   3.178  11.195 -0.5792 -0.0145  0.4850
 6204TIP3    H140027   1.089   3.148  11.252  0.5819  0.9895 -0.3961
 6204TIP3    H240028   1.033   3.133  11.112  0.2693  1.7197 -0.3536
 6205TIP3   OH240029   1.892   4.560   0.414 -0.4386  0.9251 -0.0494
 6205TIP3    H140030   1.799   4.581   0.409 -0.6394  0.2350  0.6033
 6205TIP3    H240031   1.895   4.465   0.429  0.4023  0.7298 -1.3300
 6206TIP3   OH240032   1.800   4.784   1.634  0.0049 -0.1279 -0.4986
 6206TIP3    H140033   1.788   4.699   1.677  0.5160 -0.2816 -0.6568
 6206TIP3    H240034   1.742   4.843   1.682  1.2623 -0.0802  1.0596
 6207TIP3   OH240035   5.282   3.000  14.771  0.0077 -0.0822  0.3475
 6207TIP3    H140036   5.291   2.933  14.703  0.4356 -0.6198  0.9305
 6207TIP3    H240037   5.259   2.952  14.850  2.5159  0.1713  1.3249
 6208TIP3   OH240038   4.972   5.893   3.389 -0.6413  0.2810 -0.0591
 6208TIP3    H140039   4.885   5.933   3.384 -0.7310  0.0140 -0.8128
 6208TIP3    H240040   5.017   5.943   3.457 -1.2655  0.6565  0.0920
 6209TIP3   OH240041   0.486   0.778  14.686  0.2263  1.0080  0.1403
 6209TIP3    H140042   0.497   0.873  14.675 -1.6301  1.4974  1.8318
 6209TIP3    H240043   0.564   0.750  14.735  1.1063  1.5140 -0.9315
 6210TIP3   OH240044   4.086   0.037   1.862  0.4311 -0.6965 -0.3954
 6210TIP3    H140045   4.091   0.117   1.915 -0.2769 -0.3166 -0.8868
 6210TIP3    H240046   4.040   0.064   1.782  0.5888 -1.4927 -0.7621
 6211TIP3   OH240047   3.567   4.381  15.560  0.0284  0.3112 -0.2729
 6211TIP3    H140048   3.597   4.342  15.478  1.2467  2.6519 -1.0296
 6211TIP3    H240049   3.527   4.464  15.534 -1.0018  0.3841  1.3834
 6212TIP3   OH240050   5.440   6.716  16.204  0.0910 -0.2812  0.0837
 6212TIP3    H140051   5.472   6.644  16.150  1.9443  0.1392  0.5607
 6212TIP3    H240052   5.516   6.743  16.256 -1.1745  0.4855  1.6203
 6213TIP3   OH240053   3.706   6.561  14.677 -0.1529  0.3160 -0.0101
 6213TIP3    H140054   3.648   6.569  14.753  0.8544 -1.3982  1.0015
 6213TIP3    H240055   3.647   6.555  14.602 -1.2323  0.3438  0.8119
 6214TIP3   OH240056   3.062   0.900   4.038 -0.0101  0.5703  0.1781
 6214TIP3    H140057   3.139   0.864   3.994  0.2999  0.8074  0.5308
 6214TIP3    H240058   2.998   0.909   3.967  0.4734  0.9115 -0.2295
 6215TIP3   OH240059   3.575   5.805  11.077 -0.4414 -0.3014  0.5213
 6215TIP3    H140060   3.599   5.889  11.039  0.5944 -0.3772  0.9668
 6215TIP3    H240061   3.547   5.752  11.003  1.0717 -0.2879 -0.1013
 6216TIP3   OH240062   5.794   5.613  11.709  0.3615  0.0742 -0.0633
 6216TIP3    H140063   5.786   5.625  11.615 -1.5007 -0.2372  0.0136
 6216TIP3    H240064   5.860   5.545  11.719  1.8303  1.2839 -1.0353
 6217TIP3   OH240065   1.106   0.691   1.811 -0.1408 -0.1434  0.5141
 6217TIP3    H140066   1.186   0.647   1.780 -0.6822 -1.9714  1.5848
 6217TIP3    H240067   1.136   0.748   1.882  0.5075  0.9584 -0.5986
 6218TIP3   OH240068   1.454   2.125  13.014  0.4127 -0.2224 -0.2183
 6218TIP3    H140069   1.528   2.174  12.977 -0.0582  0.8624  0.2432
 6218TIP3    H240070   1.383   2.189  13.019  0.6930  0.0166  3.3639
 6219TIP3   OH240071   5.355   4.015   5.479  0.2766 -0.3141  0.7333
 6219TIP3    H140072   5.330   4.031   5.388  1.5500 -0.1964  0.3890
 6219TIP3    H240073   5.342   3.921   5.491  2.3175 -0.7924 -0.3236
 6220TIP3   OH240074   5.131   6.012  17.327  0.5746  0.1677  0.0813
 6220TIP3    H140075   5.182   5.937  17.357 -0.0175 -0.4115 -0.3370
 6220TIP3    H240076   5.076   5.977  17.256  2.3800  1.6064 -2.1534
 6221TIP3   OH240077   1.655   2.187  16.385  0.1437  0.1261  0.0011
 6221TIP3    H140078   1.651   2.240  16.305  0.0117  0.7702  0.4261
 6221TIP3    H240079   1.630   2.247  16.455 -1.0419 -0.7633  0.3796
 6222TIP3   OH240080   4.846   6.151  13.802 -0.6710 -0.4640 -1.3819
 6222TIP3    H140081   4.753   6.160  13.782 -1.5964 -0.5770  2.1116
 6222TIP3    H240082   4.854   6.063  13.839  0.3578  0.2552  0.2248
 6223TIP3   OH240083   1.428   0.524  16.981  0.1941  0.0851 -0.2768
 6223TIP3    H140084   1.428   0.565  16.894 -1.2606  1.0515  0.1531
 6223TIP3    H240085   1.341   0.487  16.991  0.4094 -0.1866  0.7011
 6224TIP3   OH240086   5.784   3.923  10.939 -0.3848  0.1907 -0.1007
 6224TIP3    H140087   5.747   3.892  11.022  0.3670  0.5117  0.3611
 6224TIP3    H240088   5.755   3.858  10.874 -1.9276  0.5444  0.2044
 6225TIP3   OH240089   0.831   0.545   2.400 -0.0491 -0.1161 -0.1769
 6225TIP3    H140090   0.893   0.583   2.337  1.2360 -3.8035 -1.4183
 6225TIP3    H240091   0.857   0.584   2.484  1.4214  1.3045 -1.2052
 6226TIP3   OH240092   5.240   1.858  14.138 -0.6220  0.2199  0.5306
 6226TIP3    H140093   5.287   1.826  14.061  1.1165  2.2755  0.6394
 6226TIP3    H240094   5.309   1.877  14.201 -1.7596  1.6159  1.3956
 6227TIP3   OH240095   5.997   4.486  15.015  0.1506 -0.5537 -0.7585
 6227TIP3    H140096   6.007   4.488  14.920  0.3688  2.1982 -0.7520
 6227TIP3    H240097   6.066   4.543  15.048 -1.5863  0.7820  0.8173
 6228TIP3   OH240098   4.081   3.129   6.563 -0.7194  0.1895 -0.0377
 6228TIP3    H140099   4.010   3.084   6.516  0.7128 -1.0370 -1.1398
 6228TIP3    H240100   4.085   3.086   6.648 -0.5208 -0.5941 -0.4314
 6229TIP3   OH240101   1.387   5.550  11.377 -0.3135 -0.0393 -0.1596
 6229TIP3    H140102   1.478   5.529  11.353 -0.4673  0.6262 -1.4025
 6229TIP3    H240103   1.338   5.471  11.355  0.0448 -0.6547  1.1556
 6230TIP3   OH240104   2.021   2.266  13.847  0.1595  0.3392 -0.3771
 6230TIP3    H140105   2.019   2.359  13.871 -1.5192  0.8949 -2.4471
 6230TIP3    H240106   1.929   2.241  13.838  0.6021 -1.3227 -0.6453
 6231TIP3   OH240107   3.770   2.591  15.035  0.1954  0.5663  0.1739
 6231TIP3    H140108   3.675   2.602  15.027  0.4682  2.1736 -1.1749
 6231TIP3    H240109   3.805   2.615  14.950  1.7455 -1.4795  0.1402
 6232TIP3   OH240110   5.744   1.048  11.253 -0.5497  0.3838  0.3163
 6232TIP3    H140111   5.816   0.985  11.254  0.0263  1.0293  1.9297
 6232TIP3    H240112   5.674   1.004  11.205  0.7340 -0.4480 -0.8671
 6233TIP3   OH240113   5.574   3.531  13.847  0.0231 -0.2890 -0.3025
 6233TIP3    H140114   5.553   3.595  13.779 -1.2478  0.3264  0.6344
 6233TIP3    H240115   5.617   3.583  13.915 -0.0118 -0.6465 -0.0082
 6234TIP3   OH240116   3.346   4.423   3.625  0.6633  0.0624 -0.3382
 6234TIP3    H140117   3.313   4.454   3.709  1.7245 -1.8909  0.8768
 6234TIP3    H240118   3.437   4.401   3.641  0.8426 -0.5204 -1.9599
 6235TIP3   OH240119   6.106   0.490   2.555  0.6582  0.1710  0.1376
 6235TIP3    H140120   6.164   0.566   2.558  2.4427 -1.1184  0.0010
 6235TIP3    H240121   6.090   0.476   2.462  0.7610  0.0764  0.1337
 6236TIP3   OH240122   1.717   4.682  12.592  0.0790  0.3895  0.3245
 6236TIP3    H140123   1.759   4.742  12.654  0.7378  1.5078 -1.1412
 6236TIP3    H240124   1.659   4.629  12.646 -1.5349  3.1904  1.5950
 6237TIP3   OH240125   4.465   2.502  13.902 -0.0956  0.3411 -0.0852
 6237TIP3    H140126   4.458   2.424  13.847 -0.1062 -0.3939  0.9297
 6237TIP3    H240127   4.399   2.562  13.867 -1.8634 -1.0785  0.6624
 6238TIP3   OH240128   4.266   4.090   3.677 -0.1080  0.0920  0.2458
 6238TIP3    H140129   4.252   4.002   3.642  0.2503 -0.4211  1.3626
 6238TIP3    H240130   4.179   4.129   3.680 -0.5529 -0.9633  1.6452
 6239TIP3   OH240131   6.675   6.042   2.447  0.7183  0.2508 -0.2483
 6239TIP3    H140132   6.621   6.068   2.521  0.8301 -0.9375  0.2644
 6239TIP3    H240133   6.763   6.033   2.484  0.6825 -0.8314 -0.4188
 6240TIP3   OH240134   3.469   0.603  15.304 -0.5423 -0.2830 -0.2630
 6240TIP3    H140135   3.469   0.545  15.228 -1.0223 -0.0902 -0.4090
 6240TIP3    H240136   3.402   0.668  15.286  0.3945  0.6894 -0.3614
 6241TIP3   OH240137   1.414   0.855  12.267  0.1855  0.0844  0.3253
 6241TIP3    H140138   1.334   0.826  12.310 -1.2537  1.9677 -0.9075
 6241TIP3    H240139   1.461   0.905  12.333 -0.8464  0.9705  0.4010
 6242TIP3   OH240140   4.973   0.030  15.773 -0.1262 -0.7664  0.1016
 6242TIP3    H140141   4.953   0.026  15.866  0.1993  1.1806  0.2768
 6242TIP3    H240142   4.990  -0.062  15.749 -1.5665 -1.4954  1.6175
 6243TIP3   OH240143   5.970   0.411   1.404 -0.9888 -0.1866  0.2299
 6243TIP3    H140144   5.874   0.407   1.407 -0.9716 -2.1333 -0.6020
 6243TIP3    H240145   5.997   0.412   1.495 -1.7637 -2.8889  0.5660
 6244TIP3   OH240146   0.253   6.452   1.311  0.1960 -0.2758  0.0394
 6244TIP3    H140147   0.345   6.437   1.328 -0.3413 -1.2414  2.4304
 6244TIP3    H240148   0.228   6.522   1.371 -0.7116 -0.3096 -0.2783
 6245TIP3   OH240149   2.799   0.030   0.368 -0.3601 -0.4506  0.3229
 6245TIP3    H140150   2.817  -0.027   0.443  1.2701 -0.5284 -0.0732
 6245TIP3    H240151   2.767   0.111   0.406  0.6824 -0.4045  1.1575
 6246TIP3   OH240152   3.699   0.488   3.202 -0.2807 -0.7894  0.1879
 6246TIP3    H140153   3.734   0.408   3.241  0.5300  0.2462  1.7071
 6246TIP3    H240154   3.768   0.517   3.141 -0.3083 -0.9332  0.0883
 6247TIP3   OH240155   3.620   0.650   3.929 -0.4744 -0.6440 -0.1046
 6247TIP3    H140156   3.639   0.733   3.973 -0.9221  0.3759 -1.7460
 6247TIP3    H240157   3.549   0.671   3.869 -0.2375 -2.1038 -0.9250
 6248TIP3   OH240158   5.503   5.527  16.757 -0.6160 -0.1849  0.1135
 6248TIP3    H140159   5.433   5.466  16.782 -0.3741 -0.7560 -0.5841
 6248TIP3    H240160   5.467   5.614  16.777 -1.1086 -0.5290  0.7617
 6249TIP3   OH240161   0.638   5.422   0.596 -0.6605 -0.5336  0.5119
 6249TIP3    H140162   0.731   5.408   0.580 -0.4994 -0.7463  1.5337
 6249TIP3    H240163   0.609   5.480   0.525 -0.0464 -1.4744 -0.5270
 6250TIP3   OH240164   3.520   2.054   2.257 -0.2684 -0.3693 -0.6653
 6250TIP3    H140165   3.578   1.987   2.293  0.3016 -0.0171 -0.9284
 6250TIP3    H240166   3.573   2.133   2.252 -1.3308  0.4818  0.9264
 6251TIP3   OH240167   4.927   1.502  11.355 -0.2063  0.1431 -0.1638
 6251TIP3    H140168   4.851   1.512  11.297  0.0711 -1.5771 -0.8942
 6251TIP3    H240169   4.891   1.508  11.444 -1.1047 -0.0530 -0.5061
 6252TIP3   OH240170   4.467   4.185   6.374 -0.0267 -0.1197 -0.1517
 6252TIP3    H140171   4.505   4.212   6.458  1.5148  1.7152 -1.3524
 6252TIP3    H240172   4.376   4.213   6.378 -0.6266 -2.0430  1.7023
 6253TIP3   OH240173   1.120   3.548  15.889  0.2785  0.2581  0.7203
 6253TIP3    H140174   1.041   3.534  15.942 -0.2368  0.3205 -0.0182
 6253TIP3    H240175   1.169   3.466  15.899 -0.6938 -0.4699 -0.1558
 6254TIP3   OH240176   1.867   6.346   1.904 -0.1026  0.5639 -0.6212
 6254TIP3    H140177   1.842   6.256   1.888 -0.5247  0.4297  0.7094
 6254TIP3    H240178   1.915   6.372   1.825  0.2514 -0.8941 -0.9069
 6255TIP3   OH240179   1.661   5.157   4.500 -0.1078 -0.8448  0.5103
 6255TIP3    H140180   1.566   5.145   4.506 -0.4703 -0.4383 -2.6038
 6255TIP3    H240181   1.694   5.071   4.473  0.2735 -0.7424  0.6510
 6256TIP3   OH240182   3.004   4.439  10.846 -0.0588  0.2746 -0.2939
 6256TIP3    H140183   2.986   4.347  10.866 -3.7576  1.1486  1.2270
 6256TIP3    H240184   2.979   4.450  10.754  1.5865 -0.4137 -0.8614
 6257TIP3   OH240185   0.384   3.320  16.705 -0.4272  0.6495  0.1058
 6257TIP3    H140186   0.337   3.401  16.686  2.3128  2.5675  0.8089
 6257TIP3    H240187   0.433   3.302  16.624  0.4552  0.8622  0.5721
 6258TIP3   OH240188   4.360   1.704   1.463 -0.6576 -0.2400 -0.2138
 6258TIP3    H140189   4.427   1.695   1.395 -0.0755 -0.8434  0.4185
 6258TIP3    H240190   4.399   1.764   1.527  0.2279 -2.2473  1.2366
 6259TIP3   OH240191   1.030   1.374  14.142 -0.2435  0.0612  0.8025
 6259TIP3    H140192   1.078   1.291  14.143  2.4175  1.4797  1.4386
 6259TIP3    H240193   1.013   1.393  14.234  0.0588  0.6649  0.7399
 6260TIP3   OH240194   3.371   4.953  15.325  0.0742  0.4477  0.2678
 6260TIP3    H140195   3.285   4.991  15.339 -0.2232  0.7201 -1.9241
 6260TIP3    H240196   3.397   4.920  15.411 -2.3593  0.0252  0.9225
 6261TIP3   OH240197   2.401   3.944   3.783  0.0927 -0.0723  0.2954
 6261TIP3    H140198   2.317   3.902   3.799 -0.7454  1.4631  0.1140
 6261TIP3    H240199   2.462   3.899   3.841 -1.0490 -0.5803  1.1398
 6262TIP3   OH240200   2.420   0.794  14.991 -0.1204  0.1985 -0.0390
 6262TIP3    H140201   2.508   0.800  15.028 -0.6166 -0.0607  1.2314
 6262TIP3    H240202   2.434   0.765  14.901  1.2642  2.8600 -0.8058
 6263TIP3   OH240203   0.116   0.661   0.535  0.5041 -1.0208 -0.2435
 6263TIP3    H140204   0.196   0.668   0.587 -0.4509 -2.5767  1.5579
 6263TIP3    H240205   0.097   0.568   0.533 -1.1908 -0.6890 -0.7773
 6264TIP3   OH240206   2.415   0.185   5.349 -0.3367  0.6231  0.4094
 6264TIP3    H140207   2.395   0.207   5.258 -1.6938  2.2207  1.0349
 6264TIP3    H240208   2.504   0.218   5.362  0.2244 -0.4320 -0.5556
 6265TIP3   OH240209   5.585   1.637  13.695 -0.4234  0.2904  0.6897
 6265TIP3    H140210   5.515   1.669  13.638 -0.4656  0.3134  0.7557
 6265TIP3    H240211   5.556   1.550  13.722  0.3239 -0.3955 -0.6116
 6266TIP3   OH240212   4.646   2.409  15.776 -0.1695 -0.3407 -0.3960
 6266TIP3    H140213   4.605   2.390  15.692 -2.0475  1.9693 -0.1294
 6266TIP3    H240214   4.608   2.345  15.837  1.4966 -2.2768 -1.2873
 6267TIP3   OH240215   4.731   4.026   0.796 -0.5437 -0.1568  0.0988
 6267TIP3    H140216   4.686   3.955   0.751 -1.6222  1.3311 -1.2821
 6267TIP3    H240217   4.824   4.012   0.776 -0.5638 -1.9900  1.1215
 6268TIP3   OH240218   2.828   1.564   5.944  0.7145  0.4665 -0.4574
 6268TIP3    H140219   2.755   1.610   5.904 -0.3064 -0.2978  0.4832
 6268TIP3    H240220   2.844   1.611   6.026  2.7177  1.9544 -1.6113
 6269TIP3   OH240221   0.016   2.126  14.843 -0.1175 -0.2248 -0.2867
 6269TIP3    H140222  -0.072   2.099  14.816 -0.4183 -0.1620  0.6098
 6269TIP3    H240223   0.007   2.218  14.865  0.5333  0.1950 -1.6990
 6270TIP3   OH240224   3.498   4.708   2.448 -0.5307  0.6484 -0.2164
 6270TIP3    H140225   3.558   4.706   2.522  0.9219  1.1400 -1.3233
 6270TIP3    H240226   3.549   4.673   2.375 -0.6499  3.4625 -1.7973
 6271TIP3   OH240227   1.159   0.996  14.804 -0.3075  0.3313  0.5544
 6271TIP3    H140228   1.160   1.089  14.781  0.2265  0.2651  0.3054
 6271TIP3    H240229   1.196   0.952  14.727 -0.4208 -0.0728  0.7300
 6272TIP3   OH240230   3.346   5.327  12.189  0.0526  0.1551  0.4552
 6272TIP3    H140231   3.370   5.237  12.213  1.4519  0.2153 -0.5873
 6272TIP3    H240232   3.250   5.328  12.195  0.1041 -0.8698  2.2368
 6273TIP3   OH240233   1.053   3.240   5.724 -0.4146  0.4161  0.0637
 6273TIP3    H140234   1.043   3.276   5.635 -0.1452  0.2721 -0.0278
 6273TIP3    H240235   0.965   3.212   5.748 -0.1267 -1.5815 -1.0380
 6274TIP3   OH240236   1.149   5.208   1.249  0.7656 -0.3154  0.1470
 6274TIP3    H140237   1.243   5.213   1.229  0.4054 -2.2517 -2.4941
 6274TIP3    H240238   1.107   5.253   1.176 -0.4186 -1.2887  0.2050
 6275TIP3   OH240239   3.898   4.226  13.608  0.7381 -0.5232 -0.5919
 6275TIP3    H140240   3.869   4.232  13.516  0.7789  0.7659 -0.5338
 6275TIP3    H240241   3.993   4.237  13.604  0.6044  0.8496 -0.2933
 6276TIP3   OH240242   5.451   5.291   0.981  0.2138 -0.1761 -0.1725
 6276TIP3    H140243   5.493   5.369   1.017 -2.6857  0.1936  3.0663
 6276TIP3    H240244   5.440   5.233   1.057 -1.7659 -1.7232 -1.5137
 6277TIP3   OH240245   6.669   0.732   4.333 -0.1857  0.3425  0.0936
 6277TIP3    H140246   6.704   0.718   4.422  3.1336 -0.1853 -1.1286
 6277TIP3    H240247   6.655   0.826   4.327 -0.7520  0.3456  1.2588
 6278TIP3   OH240248   4.630   2.631  16.367  0.0722 -0.7921  0.3272
 6278TIP3    H140249   4.711   2.579  16.369  1.5620  1.3297 -1.1324
 6278TIP3    H240250   4.630   2.679  16.450  1.5858  0.9181 -0.5967
 6279TIP3   OH240251   0.082   5.509  16.638  0.1924 -0.3654  0.1035
 6279TIP3    H140252   0.147   5.575  16.665  1.3192 -1.5414  0.3681
 6279TIP3    H240253   0.003   5.534  16.685  0.3309  1.2973 -0.4767
 6280TIP3   OH240254   4.966   0.452   1.001  0.1021 -0.0657  0.2586
 6280TIP3    H140255   4.957   0.450   0.906  0.4453 -2.1991  0.2234
 6280TIP3    H240256   4.904   0.387   1.032 -1.0585  1.6193  1.6447
 6281TIP3   OH240257   6.537   2.683  14.820  0.0034 -0.3519  0.3685
 6281TIP3    H140258   6.453   2.694  14.776 -0.0910  3.7527  1.1985
 6281TIP3    H240259   6.602   2.706  14.754  0.0625  2.1398  1.2167
 6282TIP3   OH240260   2.790   4.566   5.732 -0.0263 -0.4810 -0.2902
 6282TIP3    H140261   2.717   4.545   5.791  1.6753 -1.4125  1.6008
 6282TIP3    H240262   2.769   4.653   5.697 -1.7163 -0.4648  0.6806
 6283TIP3   OH240263   3.759   1.512  13.940 -0.2317 -0.2356 -0.9225
 6283TIP3    H140264   3.715   1.474  14.016 -2.6632  2.1185 -1.0121
 6283TIP3    H240265   3.852   1.503  13.960 -0.6756 -3.2107  0.4466
 6284TIP3   OH240266   3.213   1.027   5.865  0.0478  0.0281  0.1171
 6284TIP3    H140267   3.267   0.980   5.801  0.2698  1.5805 -0.9147
 6284TIP3    H240268   3.180   1.103   5.816  0.9722  1.7988  2.0922
 6285TIP3   OH240269   4.412   2.587   3.714  0.4048  0.0477 -0.6872
 6285TIP3    H140270   4.375   2.538   3.641  0.7263 -1.3534  0.0446
 6285TIP3    H240271   4.383   2.539   3.792 -0.3593  1.8022  0.1515
 6286TIP3   OH240272   0.223   5.110  16.936 -0.2458  0.7784  0.2866
 6286TIP3    H140273   0.199   5.198  16.907  0.7534  0.2107 -2.5744
 6286TIP3    H240274   0.312   5.120  16.970 -0.2129  0.8972  0.1655
 6287TIP3   OH240275   5.862   6.523   3.676 -0.1927 -0.2036 -0.3605
 6287TIP3    H140276   5.956   6.538   3.683 -0.2800  0.6124 -0.8558
 6287TIP3    H240277   5.839   6.553   3.588 -0.7785 -1.2067 -0.5712
 6288TIP3   OH240278   2.050   2.823   2.306 -0.0122 -0.2024  0.1985
 6288TIP3    H140279   1.999   2.902   2.288  0.5699  1.0762  3.5031
 6288TIP3    H240280   2.010   2.756   2.250 -2.0298  1.8554 -1.0204
 6289TIP3   OH240281   5.272   4.256  10.657  0.0087 -0.2001 -0.9448
 6289TIP3    H140282   5.282   4.331  10.599  0.2092 -0.1361 -0.8277
 6289TIP3    H240283   5.178   4.234  10.652  0.0955 -0.4468 -1.6004
 6290TIP3   OH240284   6.124   4.013  15.532 -0.1529  0.6648  0.4303
 6290TIP3    H140285   6.191   3.946  15.545 -0.4159  0.9540  4.4971
 6290TIP3    H240286   6.045   3.976  15.572 -0.9785  2.4143  0.4853
 6291TIP3   OH240287   3.993   4.125  11.915  0.3932  0.0879 -0.2567
 6291TIP3    H140288   4.014   4.217  11.897  0.2229  0.1997  0.0932
 6291TIP3    H240289   4.013   4.114  12.008  1.1237 -0.4354 -0.4676
 6292TIP3   OH240290   6.353   0.712  16.259 -0.3400 -0.5686  0.0616
 6292TIP3    H140291   6.366   0.775  16.330 -0.7851 -0.5089  0.0943
 6292TIP3    H240292   6.426   0.727  16.200 -2.0097  2.1420 -1.5492
 6293TIP3   OH240293   2.906   2.871   1.976  0.5033  0.3379  0.1028
 6293TIP3    H140294   2.908   2.797   2.037  1.2524  0.5734  0.3768
 6293TIP3    H240295   2.986   2.920   1.995  0.6117  0.5649 -0.8906
 6294TIP3   OH240296   5.495   5.167  13.091 -1.3751  0.3911 -0.4171
 6294TIP3    H140297   5.584   5.155  13.122 -1.2336 -0.1715 -1.0172
 6294TIP3    H240298   5.440   5.144  13.166 -1.0254  0.2981 -0.1882
 6295TIP3   OH240299   4.922   2.129  16.550  0.3476  0.3834 -0.0985
 6295TIP3    H140300   5.015   2.136  16.526 -0.2691 -0.1597 -2.9206
 6295TIP3    H240301   4.875   2.133  16.467 -2.2847  1.8291  1.3413
 6296TIP3   OH240302   5.561   2.678  17.180  0.1289  0.1121 -0.7128
 6296TIP3    H140303   5.568   2.759  17.229 -0.1054  0.2031 -0.8271
 6296TIP3    H240304   5.470   2.649  17.194 -0.0887  0.4040 -1.5059
 6297TIP3   OH240305   0.657   4.793   3.255  0.0245  0.8665  0.4776
 6297TIP3    H140306   0.748   4.819   3.240  0.8373 -0.6524  2.2902
 6297TIP3    H240307   0.633   4.833   3.338 -0.5808  0.4015  0.5388
 6298TIP3   OH240308   4.391   4.499  13.195  0.8333 -0.1795  0.0469
 6298TIP3    H140309   4.383   4.427  13.258  0.1601  0.2552  0.4694
 6298TIP3    H240310   4.302   4.534  13.187  1.2472  0.9410  0.2477
 6299TIP3   OH240311   2.303   3.687   3.080 -0.9236 -0.3830  0.1296
 6299TIP3    H140312   2.377   3.747   3.069 -1.0718 -0.1576  0.3565
 6299TIP3    H240313   2.340   3.600   3.062 -0.9721 -0.1193 -1.3559
 6300TIP3   OH240314   3.472   0.980  14.069  0.0824 -0.0754 -0.1116
 6300TIP3    H140315   3.509   1.068  14.081  2.4628 -0.9843 -0.3068
 6300TIP3    H240316   3.438   0.957  14.156  0.1162  0.7343  0.1320
 6301TIP3   OH240317   2.788   5.300   2.876  0.3944 -0.4028 -0.8402
 6301TIP3    H140318   2.846   5.270   2.807  0.2704 -1.1396 -0.6402
 6301TIP3    H240319   2.760   5.220   2.920 -1.3408 -0.1486 -1.3875
 6302TIP3   OH240320   6.743   5.584   3.691 -0.4637  0.4218  0.6851
 6302TIP3    H140321   6.786   5.500   3.706 -0.8069 -0.0329 -0.7439
 6302TIP3    H240322   6.666   5.582   3.747 -0.7884 -0.4858  0.2213
 6303TIP3   OH240323   4.716   5.949   2.767 -0.1010 -0.4564  0.6624
 6303TIP3    H140324   4.770   5.877   2.736  0.2394 -0.0227  0.2257
 6303TIP3    H240325   4.644   5.907   2.813 -0.0708 -1.0826  0.1505
 6304TIP3   OH240326   1.460   5.670  16.623 -0.0891 -0.0832  0.3357
 6304TIP3    H140327   1.397   5.633  16.685  1.5012  0.5165  2.4169
 6304TIP3    H240328   1.545   5.639  16.655  0.7525 -0.3515 -2.0146
 6305TIP3   OH240329   5.428   5.273   5.408 -0.1313  0.4843 -0.1702
 6305TIP3    H140330   5.513   5.313   5.386  0.2220  0.1796  0.5711
 6305TIP3    H240331   5.451   5.199   5.464 -0.8620  0.0302 -0.4607
 6306TIP3   OH240332   1.137   0.008   5.928  0.5884  0.3556 -0.7795
 6306TIP3    H140333   1.097  -0.038   5.855  1.6244 -0.4403 -0.8584
 6306TIP3    H240334   1.092  -0.026   6.006  1.2181 -0.6858 -0.8502
 6307TIP3   OH240335   2.883   5.434  14.644  0.2584 -0.5890 -0.0848
 6307TIP3    H140336   2.938   5.408  14.718  0.3909  1.1937  0.4860
 6307TIP3    H240337   2.945   5.447  14.572  0.5505  0.6722  0.3566
 6308TIP3   OH240338   0.126   0.689   3.020  0.1320 -0.0994 -0.2465
 6308TIP3    H140339   0.054   0.649   3.068 -0.4916  0.3273 -0.7873
 6308TIP3    H240340   0.138   0.775   3.061  0.3182 -0.1637 -0.1672
 6309TIP3   OH240341   3.076   0.852  13.088  0.1793 -0.1299  0.1480
 6309TIP3    H140342   3.081   0.886  13.177 -0.8337  0.2738  0.0580
 6309TIP3    H240343   2.982   0.846  13.070  0.3683 -0.9517 -0.6093
 6310TIP3   OH240344   4.417   6.270  15.736  0.1368  0.1717 -0.4496
 6310TIP3    H140345   4.355   6.201  15.714  1.0020 -0.4621 -0.9866
 6310TIP3    H240346   4.392   6.298  15.824 -0.3831 -0.6555 -0.3233
 6311TIP3   OH240347   5.830   1.716  12.770 -0.4315 -0.3835  0.4119
 6311TIP3    H140348   5.843   1.755  12.684 -0.3599 -0.4419  0.3962
 6311TIP3    H240349   5.802   1.627  12.752  3.6699 -1.8661  0.3969
 6312TIP3   OH240350   2.873   6.598   2.943  0.0192  0.2134 -0.3505
 6312TIP3    H140351   2.843   6.549   3.020 -1.7231  0.5031 -0.7850
 6312TIP3    H240352   2.826   6.681   2.948  0.9168  0.7767 -1.0273
 6313TIP3   OH240353   1.552   3.938   3.519 -0.2145  0.5489 -0.6858
 6313TIP3    H140354   1.609   3.874   3.561 -0.7992  0.1855 -0.4362
 6313TIP3    H240355   1.480   3.887   3.483 -0.3103  0.9857 -1.1292
 6314TIP3   OH240356   4.524   0.367   1.978  1.0405 -0.1123  0.0657
 6314TIP3    H140357   4.447   0.418   1.956  1.8930  1.2103  0.0420
 6314TIP3    H240358   4.597   0.416   1.940  2.1696  0.1411  2.4003
 6315TIP3   OH240359   0.562   3.472  12.485  0.0604 -0.0243  0.3935
 6315TIP3    H140360   0.655   3.495  12.475  0.5040 -0.4837  2.8915
 6315TIP3    H240361   0.526   3.541  12.541 -1.3327  0.5461 -1.1422
 6316TIP3   OH240362   2.730   4.794  16.321  0.0900  0.3158 -0.1764
 6316TIP3    H140363   2.803   4.737  16.346  0.5850  1.1873  0.4127
 6316TIP3    H240364   2.768   4.855  16.258 -0.6009 -0.4032 -1.3246
 6317TIP3   OH240365   0.500   2.995   4.862  0.0383  0.0590  0.2662
 6317TIP3    H140366   0.438   2.923   4.876  1.8000 -1.3026  1.4470
 6317TIP3    H240367   0.445   3.074   4.863 -1.9020 -1.1957 -0.6676
 6318TIP3   OH240368   3.592   1.976  16.235  0.4869  0.3296  0.5276
 6318TIP3    H140369   3.645   2.048  16.268  0.0463  2.2621 -2.6055
 6318TIP3    H240370   3.629   1.956  16.150 -1.4959 -0.8383 -0.1291
 6319TIP3   OH240371   2.804   4.715   3.341 -0.5897  0.1413 -0.3166
 6319TIP3    H140372   2.862   4.786   3.313 -1.9960  1.4639 -0.0642
 6319TIP3    H240373   2.854   4.668   3.408 -0.7968  3.1109  2.1626
 6320TIP3   OH240374   0.833   6.623   4.477  0.0586  0.4070 -0.5870
 6320TIP3    H140375   0.747   6.601   4.442 -0.2482  0.4102  0.1352
 6320TIP3    H240376   0.870   6.685   4.415  0.0458 -0.5101 -1.5323
 6321TIP3   OH240377   3.669   5.467  16.077  0.0123  0.1157  0.4936
 6321TIP3    H140378   3.726   5.458  16.001  1.1420 -2.2124  1.5204
 6321TIP3    H240379   3.590   5.510  16.044  0.5439 -0.6511 -1.9119
 6322TIP3   OH240380   1.673   4.030  16.393  0.2925 -0.1951  0.2175
 6322TIP3    H140381   1.630   3.949  16.365  1.8661 -0.6233 -1.1537
 6322TIP3    H240382   1.629   4.099  16.344 -0.3352 -0.3468  0.5653
 6323TIP3   OH240383   3.514   1.290  12.623 -0.3608  0.6297  0.0819
 6323TIP3    H140384   3.442   1.329  12.673 -0.6313 -0.4431  0.5613
 6323TIP3    H240385   3.510   1.196  12.645  0.7254  0.4471 -0.4573
 6324TIP3   OH240386   6.573   1.420   5.506  0.1887 -0.0651  0.1263
 6324TIP3    H140387   6.637   1.355   5.478  2.9597  1.7365  1.7855
 6324TIP3    H240388   6.590   1.496   5.451 -0.6249  0.4183  0.5252
 6325TIP3   OH240389   2.511   1.023   2.837 -0.0799 -0.2024  0.0214
 6325TIP3    H140390   2.497   0.930   2.856 -1.8974 -0.2249 -1.1992
 6325TIP3    H240391   2.470   1.037   2.752 -0.6065  1.9084  0.5668
 6326TIP3   OH240392   6.184   1.267  14.269 -0.2190  0.5822 -0.6356
 6326TIP3    H140393   6.146   1.352  14.249 -0.3202  0.7442  0.2048
 6326TIP3    H240394   6.134   1.236  14.344  0.3723  0.1544 -0.4157
 6327TIP3   OH240395   1.701   5.803   0.227 -0.7168  0.2456  0.1440
 6327TIP3    H140396   1.691   5.858   0.150 -0.1355  1.1548  0.7068
 6327TIP3    H240397   1.614   5.763   0.239 -1.0025  0.6382 -0.5642
 6328TIP3   OH240398   1.247   2.765  13.016 -0.4214  0.3565  0.8850
 6328TIP3    H140399   1.222   2.690  13.070  0.9043  0.4515  1.6919
 6328TIP3    H240400   1.296   2.726  12.943 -1.9033  0.2601 -0.1138
 6329TIP3   OH240401   4.912   6.009  10.904  0.5478  0.5320  0.7421
 6329TIP3    H140402   4.818   6.019  10.892  0.4147 -1.9508 -1.0086
 6329TIP3    H240403   4.940   6.091  10.946 -2.1691  1.8123  0.2532
 6330TIP3   OH240404   4.074   6.141   2.332  0.0315 -0.1212 -0.5380
 6330TIP3    H140405   4.136   6.073   2.305  0.6233 -0.4767  1.5978
 6330TIP3    H240406   4.042   6.113   2.417 -0.3773  1.8404  0.0048
 6331TIP3   OH240407   2.512   1.040  14.587 -0.3026 -0.8406 -0.0703
 6331TIP3    H140408   2.499   1.129  14.620  2.7429 -0.6823  0.9971
 6331TIP3    H240409   2.429   0.995  14.607 -1.2417  1.2385  1.0451
 6332TIP3   OH240410   4.827   2.151  15.793 -0.5317 -0.1107 -0.6149
 6332TIP3    H140411   4.797   2.117  15.709 -2.1780 -4.0932  1.3281
 6332TIP3    H240412   4.752   2.140  15.851  0.5697  2.4006  1.5066
 6333TIP3   OH240413   1.699   3.205  15.634 -0.4738 -0.1421  0.0668
 6333TIP3    H140414   1.770   3.230  15.574 -1.6232  1.0113 -0.8856
 6333TIP3    H240415   1.714   3.258  15.712 -1.4194  1.7350 -0.9479
 6334TIP3   OH240416   1.618   4.692   1.435 -0.0610 -0.9367  0.7727
 6334TIP3    H140417   1.695   4.730   1.477 -1.1065  2.0986  0.2123
 6334TIP3    H240418   1.637   4.698   1.341 -0.8411 -0.3417  0.6376
 6335TIP3   OH240419   4.323   0.059   3.879  0.6129 -0.3603  0.1196
 6335TIP3    H140420   4.345   0.039   3.970 -1.3064 -0.1912  0.6487
 6335TIP3    H240421   4.326   0.154   3.874  1.3541 -0.3902 -0.1868
 6336TIP3   OH240422   6.532   1.311   0.746 -0.7535 -0.2500  0.2051
 6336TIP3    H140423   6.540   1.328   0.653 -1.4793  2.7271  0.5646
 6336TIP3    H240424   6.438   1.296   0.760 -0.4675 -2.1055  0.3021
 6337TIP3   OH240425   2.655   6.535  16.163 -0.0284 -0.0031 -0.0016
 6337TIP3    H140426   2.652   6.571  16.251  0.5088  1.7375 -0.6542
 6337TIP3    H240427   2.616   6.603  16.108  1.2080 -0.3188 -1.3173
 6338TIP3   OH240428   6.490   4.719  17.360 -0.4251 -0.2734 -0.1974
 6338TIP3    H140429   6.581   4.696  17.341 -0.6647 -1.2875 -0.2079
 6338TIP3    H240430   6.480   4.809  17.329  0.4409 -0.3205 -0.6362
 6339TIP3   OH240431   4.885   2.872   5.146 -0.2716  0.3309  0.5663
 6339TIP3    H140432   4.954   2.820   5.187 -0.2005 -0.0795 -0.0541
 6339TIP3    H240433   4.807   2.817   5.151 -0.4207  0.5554  0.7456
 6340TIP3   OH240434   1.384   4.662   2.970  0.6853  0.1317 -0.2891
 6340TIP3    H140435   1.400   4.705   2.886 -1.6903  2.0539  0.1376
 6340TIP3    H240436   1.392   4.732   3.035  0.8480 -0.9744  0.9287
 6341TIP3   OH240437   0.824   6.736   1.257 -0.0984 -0.3062 -0.1117
 6341TIP3    H140438   0.753   6.799   1.267 -0.0402 -0.2394 -0.1158
 6341TIP3    H240439   0.845   6.738   1.164 -1.2598 -1.6028 -0.4193
 6342TIP3   OH240440   6.595   3.053   3.448  0.6012  0.3434  0.2431
 6342TIP3    H140441   6.536   3.057   3.372  1.8993 -1.2126 -0.9217
 6342TIP3    H240442   6.556   3.112   3.512 -1.1662  0.8321 -1.2053
 6343TIP3   OH240443   2.032   2.814   1.410 -0.3560  0.2403 -0.3735
 6343TIP3    H140444   2.045   2.738   1.354  0.0497 -1.3299  1.7145
 6343TIP3    H240445   1.937   2.828   1.409 -0.3399  0.3514 -1.5500
 6344TIP3   OH240446   4.506   2.492  11.779  0.1350  0.3145 -0.3223
 6344TIP3    H140447   4.504   2.396  11.779 -0.9802  0.3022 -1.6925
 6344TIP3    H240448   4.555   2.515  11.700  2.7059  0.9353  1.3174
 6345TIP3   OH240449   4.770   0.740   4.862 -0.3874  0.1621  0.2375
 6345TIP3    H140450   4.714   0.685   4.807  0.8742 -0.2249 -0.7032
 6345TIP3    H240451   4.725   0.744   4.946 -1.1139 -1.3003 -0.0612
 6346TIP3   OH240452   6.665   4.644  10.525 -0.3270 -0.1047  0.2315
 6346TIP3    H140453   6.610   4.704  10.577  0.2953 -1.0583  2.0923
 6346TIP3    H240454   6.728   4.700  10.482 -0.7925  0.7225  0.6021
 6347TIP3   OH240455   4.215   4.350   5.502  0.4102  0.7244  0.3436
 6347TIP3    H140456   4.278   4.279   5.486 -1.6551 -1.2263  0.4763
 6347TIP3    H240457   4.206   4.392   5.417  2.0749  1.2543  0.3805
 6348TIP3   OH240458   3.094   5.131   6.708  0.1128  0.4301  0.1040
 6348TIP3    H140459   3.080   5.067   6.778  1.8035  1.9450  1.9403
 6348TIP3    H240460   3.157   5.089   6.650 -2.1594 -1.3148 -1.2672
 6349TIP3   OH240461   3.255   2.793  14.812 -0.4587 -1.1634  0.2420
 6349TIP3    H140462   3.282   2.756  14.896  1.3103  0.1685  0.3183
 6349TIP3    H240463   3.330   2.777  14.754 -0.5654  0.2306 -0.3253
 6350TIP3   OH240464   6.014   0.558   3.654  0.1940  0.5527  0.6863
 6350TIP3    H140465   6.015   0.467   3.623  1.8370  0.4595  0.9202
 6350TIP3    H240466   5.994   0.610   3.576  0.9547  0.0958  0.1758
 6351TIP3   OH240467   5.569   0.363   3.919  0.1247 -0.4881  0.5005
 6351TIP3    H140468   5.560   0.448   3.876 -1.9407 -0.5211  0.7782
 6351TIP3    H240469   5.584   0.301   3.847  2.7636  0.1740  0.3754
 6352TIP3   OH240470   6.622   1.316   4.223 -0.2019 -0.3727  0.2178
 6352TIP3    H140471   6.610   1.297   4.130  2.9890  0.4313 -0.4680
 6352TIP3    H240472   6.598   1.408   4.231  0.8850 -0.0376 -0.1653
 6353TIP3   OH240473   4.256   2.665   1.679  0.1690 -0.2789 -0.3757
 6353TIP3    H140474   4.267   2.584   1.629 -0.1942 -0.4021 -0.2612
 6353TIP3    H240475   4.199   2.720   1.625  1.1460  0.2682 -0.8697
 6354TIP3   OH240476   4.953   4.364  11.435 -0.1328 -0.5478 -0.1125
 6354TIP3    H140477   5.012   4.315  11.491  0.5355 -0.5827 -0.8371
 6354TIP3    H240478   4.999   4.446  11.416 -0.5013 -0.3826 -0.3258
 6355TIP3   OH240479   2.981   1.167   4.658  0.1244 -0.2396  0.1993
 6355TIP3    H140480   2.965   1.213   4.740  0.5864 -2.2720  1.4941
 6355TIP3    H240481   2.959   1.076   4.677  1.2778 -0.9514 -1.6298
 6356TIP3   OH240482   5.187   5.569  15.501  0.3882 -0.1645 -0.6975
 6356TIP3    H140483   5.193   5.570  15.597 -0.5128  3.4480 -0.5389
 6356TIP3    H240484   5.277   5.578  15.471  0.4172  3.1854  0.0556
 6357TIP3   OH240485   4.149   2.822   4.407 -0.4039 -0.0489  0.4108
 6357TIP3    H140486   4.171   2.856   4.493  0.0297 -1.5277  0.8999
 6357TIP3    H240487   4.105   2.895   4.363  1.3823  1.4836  1.0452
 6358TIP3   OH240488   0.919   1.573  15.582 -0.2925  0.2345 -0.3771
 6358TIP3    H140489   0.892   1.554  15.492 -0.5802  1.7810 -0.6406
 6358TIP3    H240490   0.953   1.662  15.579  0.2280  0.1050  0.9494
 6359TIP3   OH240491   1.165   0.598  11.493  0.0389 -0.4328 -0.5431
 6359TIP3    H140492   1.235   0.560  11.440  0.2579 -1.7571  0.6393
 6359TIP3    H240493   1.103   0.633  11.429  0.1815 -2.1759 -1.6907
 6360TIP3   OH240494   4.944   0.731  11.772  0.0537 -0.5689 -0.3197
 6360TIP3    H140495   5.020   0.730  11.714  2.0434  4.4166  1.6446
 6360TIP3    H240496   4.890   0.803  11.739 -1.6788 -1.2961  0.7916
 6361TIP3   OH240497   3.693   4.770  13.274 -0.7173  0.3767  0.4825
 6361TIP3    H140498   3.705   4.710  13.348 -1.5520 -0.3433  0.0603
 6361TIP3    H240499   3.615   4.821  13.297  1.2020  2.9254  1.8533
 6362TIP3   OH240500   0.178   2.194  13.507  0.0053  0.1862 -0.4320
 6362TIP3    H140501   0.138   2.193  13.594  0.6811  2.5817 -0.0291
 6362TIP3    H240502   0.121   2.251  13.455  0.4674  0.0410 -1.1107
 6363TIP3   OH240503   6.066   2.414  15.920  0.2622 -0.0815 -0.9674
 6363TIP3    H140504   6.032   2.335  15.963 -0.8095  0.9783  0.2269
 6363TIP3    H240505   5.989   2.458  15.885  0.5869  1.3754  0.0527
 6364TIP3   OH240506   3.661   4.965  12.367  0.9794  0.3619  0.0738
 6364TIP3    H140507   3.600   4.892  12.374 -1.0237  1.9479  0.1995
 6364TIP3    H240508   3.699   4.958  12.280 -1.0303  0.4828 -0.8679
 6365TIP3   OH240509   2.104   2.757  15.426  0.7343  0.1960  0.6761
 6365TIP3    H140510   2.199   2.751  15.415  0.5842  0.4712 -1.1834
 6365TIP3    H240511   2.072   2.669  15.407  0.5068  0.4991 -0.4072
 6366TIP3   OH240512   5.189   0.520  14.453  0.2655 -0.1502  0.2277
 6366TIP3    H140513   5.211   0.594  14.397 -1.4103 -1.4136 -2.2806
 6366TIP3    H240514   5.272   0.474  14.465  1.0075  1.1909  0.4348
 6367TIP3   OH240515   1.691   0.844  12.151  0.1000  0.0284  0.5398
 6367TIP3    H140516   1.611   0.893  12.169  0.4545  1.8404 -2.3161
 6367TIP3    H240517   1.760   0.893  12.196  0.4279  2.2451 -2.1501
 6368TIP3   OH240518   1.923   3.704  15.340 -0.1328 -0.7312  0.1535
 6368TIP3    H140519   1.903   3.692  15.247 -4.0933  1.6522  0.4339
 6368TIP3    H240520   1.956   3.794  15.346 -3.1284  0.4296  1.2064
 6369TIP3   OH240521   3.526   1.720   4.667  0.2976 -0.3801  0.3830
 6369TIP3    H140522   3.511   1.814   4.667  0.3475 -0.3515 -1.3121
 6369TIP3    H240523   3.605   1.707   4.615 -0.4258 -1.4448 -0.4989
 6370TIP3   OH240524   3.470   1.562  15.321 -0.3905 -0.2916 -0.3646
 6370TIP3    H140525   3.431   1.649  15.317  0.0682 -0.1106 -0.8841
 6370TIP3    H240526   3.511   1.549  15.235 -0.9852 -1.2650 -0.5273
 6371TIP3   OH240527   2.915   3.965   2.258  0.0513  0.7647 -0.3895
 6371TIP3    H140528   2.924   3.871   2.247  0.7490  0.3689  2.7036
 6371TIP3    H240529   2.851   3.991   2.192 -0.2387 -1.8666 -1.2561
 6372TIP3   OH240530   5.487   6.524   4.313 -0.6429  0.4391  0.3919
 6372TIP3    H140531   5.523   6.612   4.313  0.7368 -0.0294 -2.6656
 6372TIP3    H240532   5.561   6.467   4.333 -1.2153 -0.1328  0.9430
 6373TIP3   OH240533   5.111   2.255  12.249 -0.6071  0.1763 -0.1180
 6373TIP3    H140534   5.161   2.333  12.272  1.6297 -0.6098 -1.8739
 6373TIP3    H240535   5.125   2.195  12.322  0.2017  0.3450 -0.1292
 6374TIP3   OH240536   2.953   0.564  13.103  0.3208 -0.3574  0.4777
 6374TIP3    H140537   3.041   0.600  13.098  1.2444 -2.4359  0.9149
 6374TIP3    H240538   2.962   0.472  13.079 -1.5332 -0.9136  1.6543
 6375TIP3   OH240539   1.731   5.630  11.849  0.0141 -0.7453 -0.8669
 6375TIP3    H140540   1.747   5.603  11.940 -1.4531  0.3627 -0.2427
 6375TIP3    H240541   1.814   5.667  11.821  1.1396 -2.9621 -0.7237
 6376TIP3   OH240542   4.364   2.744  16.367  0.1571 -0.4335 -0.8975
 6376TIP3    H140543   4.457   2.720  16.366  0.2557 -0.0747 -2.3324
 6376TIP3    H240544   4.365   2.840  16.371 -0.1744 -0.4670  0.1771
 6377TIP3   OH240545   0.268   3.997   3.047  0.3204 -0.0656 -0.3537
 6377TIP3    H140546   0.281   4.011   3.141 -0.2019 -0.3787 -0.2265
 6377TIP3    H240547   0.305   3.910   3.030  0.7625  0.1519 -0.5173
 6378TIP3   OH240548   6.742   4.855   2.382 -0.0272  0.5823 -0.3374
 6378TIP3    H140549   6.755   4.922   2.450 -3.3755  1.9378 -0.8216
 6378TIP3    H240550   6.737   4.773   2.430 -0.9721  1.3582  0.9621
 6379TIP3   OH240551   3.474   2.817  11.726 -0.1401 -0.6918 -0.4759
 6379TIP3    H140552   3.557   2.770  11.716 -0.5135 -1.2743 -0.9105
 6379TIP3    H240553   3.438   2.784  11.809 -1.7540 -3.4041 -2.0914
 6380TIP3   OH240554   1.630   4.577   2.377  0.0619 -0.0102  0.3632
 6380TIP3    H140555   1.558   4.534   2.423  0.2099  0.4943  1.0828
 6380TIP3    H240556   1.708   4.527   2.403 -0.0453 -0.7791 -0.6921
 6381TIP3   OH240557   3.295   3.784  14.992  0.1930  0.2303 -0.0651
 6381TIP3    H140558   3.204   3.812  14.983  0.1091 -0.1170 -0.3147
 6381TIP3    H240559   3.289   3.700  15.036  0.5123  1.1730  1.8636
 6382TIP3   OH240560   2.530   1.273   3.062  0.2743 -0.3674  0.5886
 6382TIP3    H140561   2.469   1.217   3.013  0.0023 -1.2309  1.8724
 6382TIP3    H240562   2.479   1.351   3.083  0.6150  0.3508 -1.0991
 6383TIP3   OH240563   0.024   2.074  15.254  0.2724 -0.3290 -0.2911
 6383TIP3    H140564   0.063   2.144  15.306 -1.1091  0.1482  0.1509
 6383TIP3    H240565  -0.053   2.114  15.213 -0.0899 -1.3668 -0.6741
 6384TIP3   OH240566   4.398   4.299  13.407 -0.7629  0.3724  0.3336
 6384TIP3    H140567   4.458   4.227  13.425  1.3059  1.9339  0.0211
 6384TIP3    H240568   4.326   4.258  13.359  0.4662 -1.4396 -0.0701
 6385TIP3   OH240569   2.268   0.902  14.671 -0.4043  0.0009 -0.3627
 6385TIP3    H140570   2.190   0.944  14.635  0.2142  0.9543 -0.6438
 6385TIP3    H240571   2.238   0.858  14.750 -1.0827  0.9743 -0.0650
 6386TIP3   OH240572   6.731   3.957   2.555  0.6689  0.0140  0.3369
 6386TIP3    H140573   6.652   3.951   2.609 -0.2813 -2.7538 -1.1722
 6386TIP3    H240574   6.803   3.950   2.618  0.0584  4.7973  2.0545
 6387TIP3   OH240575   5.316   1.558   5.612 -0.0217 -0.2629  0.7488
 6387TIP3    H140576   5.276   1.477   5.644 -2.0168 -0.6875 -2.4007
 6387TIP3    H240577   5.392   1.530   5.561  0.3377  0.0137  1.1240
 6388TIP3   OH240578   1.030   6.653  15.430  0.2691 -0.3920 -0.0447
 6388TIP3    H140579   0.986   6.726  15.385 -0.2643 -0.1760  0.8064
 6388TIP3    H240580   1.025   6.580  15.368 -1.0886 -0.3043 -0.0596
 6389TIP3   OH240581   0.838   1.043   6.007  0.0823  0.5330 -0.4843
 6389TIP3    H140582   0.923   1.026   5.967  0.5394 -0.7500  0.9657
 6389TIP3    H240583   0.851   1.122   6.059  0.8158 -0.4134  0.8282
 6390TIP3   OH240584   4.605   4.155  13.030  0.0760 -0.2552 -0.8399
 6390TIP3    H140585   4.600   4.209  13.109 -0.7335 -1.6018  0.0647
 6390TIP3    H240586   4.656   4.208  12.968 -1.5878  2.0205 -0.3887
 6391TIP3   OH240587   1.940   1.436  16.074  0.0420 -0.3532  0.3300
 6391TIP3    H140588   1.868   1.413  16.015 -0.9534  1.3437  0.8258
 6391TIP3    H240589   1.922   1.526  16.101  3.4100  0.9260 -1.1056
 6392TIP3   OH240590   4.153   5.149  15.019 -0.2884 -0.3027 -0.6908
 6392TIP3    H140591   4.094   5.199  15.076  1.7690 -0.0091  1.3397
 6392TIP3    H240592   4.237   5.195  15.025  1.3229 -3.0779  0.1011
 6393TIP3   OH240593   2.848   1.771   1.803 -0.1240  0.0519  0.5828
 6393TIP3    H140594   2.819   1.859   1.823  1.8689  0.9309 -0.1160
 6393TIP3    H240595   2.935   1.782   1.765 -0.4906 -2.0826 -1.1262
 6394TIP3   OH240596   0.429   6.334  16.744 -0.2199  0.3435 -0.0623
 6394TIP3    H140597   0.467   6.375  16.665  0.5925  2.1026  1.1689
 6394TIP3    H240598   0.500   6.281  16.779 -1.2499 -2.2485 -1.6115
 6395TIP3   OH240599   0.982   1.922  12.567 -0.1880 -0.3522  0.1009
 6395TIP3    H140600   0.897   1.912  12.610 -0.6073  1.9262 -0.0600
 6395TIP3    H240601   0.961   1.944  12.477  0.5011  1.2028  0.2851
 6396TIP3   OH240602   1.039   3.014   0.745  0.0871  0.2181  0.2356
 6396TIP3    H140603   1.020   2.936   0.797 -2.5302 -0.2806 -1.2872
 6396TIP3    H240604   1.127   2.999   0.709 -0.3083 -2.0036  0.0829
 6397TIP3   OH240605   5.955   6.152  11.392  0.2585 -0.3061  0.2304
 6397TIP3    H140606   5.923   6.189  11.310  0.2445 -0.5694  0.1182
 6397TIP3    H240607   5.966   6.228  11.449  0.5681 -0.0879 -0.1129
 6398TIP3   OH240608   0.190   2.594   1.492  0.0944  0.1967 -0.6008
 6398TIP3    H140609   0.147   2.648   1.426 -0.8446  3.8532  2.5788
 6398TIP3    H240610   0.140   2.513   1.493 -1.6071  1.1365 -2.4565
 6399TIP3   OH240611   1.434   0.674  16.739  0.1444 -0.5619  0.2302
 6399TIP3    H140612   1.376   0.614  16.692  2.3162 -1.0946 -1.9546
 6399TIP3    H240613   1.509   0.685  16.682  0.9747  2.3345  1.6740
 6400TIP3   OH240614   2.932   4.295  12.768 -0.3041  0.2974 -0.3156
 6400TIP3    H140615   2.877   4.299  12.689 -1.7672 -0.7485  0.5959
 6400TIP3    H240616   2.870   4.278  12.839  1.1658 -0.4290  0.8387
 6401TIP3   OH240617   5.184   4.315   2.836  0.0058  0.2313 -0.4458
 6401TIP3    H140618   5.144   4.328   2.750 -0.2038 -0.2045 -0.4201
 6401TIP3    H240619   5.271   4.280   2.816  0.5552  1.5724 -0.5126
 6402TIP3   OH240620   3.118   0.772  15.361 -0.5998  0.0773 -0.6752
 6402TIP3    H140621   3.104   0.865  15.378  0.5311  0.3959 -1.4021
 6402TIP3    H240622   3.174   0.770  15.284  0.3469 -1.1830  0.0041
 6403TIP3   OH240623   1.288   2.142   0.073  0.0791  0.2536 -0.5177
 6403TIP3    H140624   1.274   2.220   0.126 -1.0155  0.1446 -0.6195
 6403TIP3    H240625   1.325   2.078   0.134 -1.4162  0.0403  0.2066
 6404TIP3   OH240626   2.215   1.777  13.616  0.9207  0.0606 -0.1097
 6404TIP3    H140627   2.287   1.763  13.677  0.7797 -1.0354 -0.1838
 6404TIP3    H240628   2.201   1.692  13.573 -2.9639 -0.9970  2.6821
 6405TIP3   OH240629   2.456   1.883  17.098  0.3182  0.6217 -0.2668
 6405TIP3    H140630   2.543   1.913  17.124  1.0935 -1.1216 -0.7261
 6405TIP3    H240631   2.465   1.862  17.005 -0.4240 -0.1364 -0.1761
 6406TIP3   OH240632   3.830   1.261   1.222 -0.2477  0.2230  0.1068
 6406TIP3    H140633   3.924   1.240   1.226 -0.6162 -1.3450  1.8086
 6406TIP3    H240634   3.820   1.309   1.140  1.7216 -1.2083 -1.0579
 6407TIP3   OH240635   6.497   6.224  15.247 -0.1834  0.0246 -0.5332
 6407TIP3    H140636   6.483   6.229  15.153 -2.0328 -1.5287 -0.4252
 6407TIP3    H240637   6.498   6.315  15.277  2.4512  0.6371 -2.2295
 6408TIP3   OH240638   3.290   4.301   4.468  0.3295  0.0349  0.1837
 6408TIP3    H140639   3.384   4.288   4.472  0.2824 -0.2265  0.5768
 6408TIP3    H240640   3.256   4.250   4.542 -0.2242 -0.7869 -0.6221
 6409TIP3   OH240641   2.732   2.788   3.010  0.1923 -0.3545  0.3899
 6409TIP3    H140642   2.792   2.862   3.025 -1.2360  0.8830  0.2140
 6409TIP3    H240643   2.730   2.778   2.915  1.1207 -1.2698  0.4556
 6410TIP3   OH240644   6.298   5.186  11.141  0.1116 -0.5153  0.9812
 6410TIP3    H140645   6.240   5.130  11.090 -2.5470  1.0574  2.0620
 6410TIP3    H240646   6.266   5.177  11.231  0.3888  1.7216  1.3590
 6411TIP3   OH240647   5.403   2.096  10.846 -0.6842  0.2580 -0.2104
 6411TIP3    H140648   5.438   2.010  10.868 -1.4278  0.0934  0.3926
 6411TIP3    H240649   5.411   2.147  10.927  1.1590  1.2729 -0.9640
 6412TIP3   OH240650   5.747   2.030   0.285  0.0327 -0.2035 -0.0827
 6412TIP3    H140651   5.738   1.945   0.328 -0.7617 -0.0993 -0.0311
 6412TIP3    H240652   5.722   2.094   0.352 -2.5334 -0.1056 -1.0410
 6413TIP3   OH240653   5.341   2.084  16.030 -0.2831 -0.7944 -0.8078
 6413TIP3    H140654   5.365   2.175  16.047 -0.0509 -0.9327 -0.4036
 6413TIP3    H240655   5.392   2.060  15.952  2.0758 -1.5440  0.8621
 6414TIP3   OH240656   6.526   4.872  12.885  0.1480 -0.0839  0.0685
 6414TIP3    H140657   6.538   4.933  12.957 -0.6491 -1.0098  1.0263
 6414TIP3    H240658   6.575   4.910  12.812  1.8929  0.3438  1.3995
 6415TIP3   OH240659   4.357   4.589   1.749 -0.4008 -0.1096  0.3687
 6415TIP3    H140660   4.394   4.577   1.836 -2.1710 -0.1299  1.1716
 6415TIP3    H240661   4.286   4.652   1.762 -0.5954  0.0021 -1.0967
 6416TIP3   OH240662   2.673   3.237   2.167 -0.2860  0.2107  0.5001
 6416TIP3    H140663   2.763   3.268   2.172 -0.4961  1.2617 -1.2176
 6416TIP3    H240664   2.677   3.162   2.107 -0.5869  0.4754  0.1442
 6417TIP3   OH240665   1.952   3.329  15.314  0.5584 -0.6510 -0.2293
 6417TIP3    H140666   1.997   3.281  15.384 -0.1191 -1.3274 -0.2462
 6417TIP3    H240667   1.884   3.379  15.360  2.4466  1.8656  0.0427
 6418TIP3   OH240668   6.272   2.268   3.403 -0.5638  0.7532 -0.1800
 6418TIP3    H140669   6.356   2.313   3.397  0.3424 -0.6815  0.9790
 6418TIP3    H240670   6.295   2.176   3.416 -2.3325  0.1562 -0.8943
 6419TIP3   OH240671   3.674   0.600   1.848 -0.2132  0.3554  0.0942
 6419TIP3    H140672   3.715   0.539   1.909  0.6766 -0.0388 -0.8632
 6419TIP3    H240673   3.633   0.666   1.904 -0.5351 -0.6961  1.1356
 6420TIP3   OH240674   3.131   4.287   5.275  0.0860 -0.2923  0.5783
 6420TIP3    H140675   3.039   4.305   5.254  0.1362  1.2998  1.5495
 6420TIP3    H240676   3.175   4.286   5.190 -0.6764 -0.0706  0.1675
 6421TIP3   OH240677   1.456   4.506   5.204  0.3748 -0.4351 -0.3002
 6421TIP3    H140678   1.438   4.561   5.127  1.7117 -1.0581 -1.1078
 6421TIP3    H240679   1.391   4.437   5.200  0.0401 -0.1110 -0.5210
 6422TIP3   OH240680   2.576   3.263   0.346 -0.1472  0.1814  0.6087
 6422TIP3    H140681   2.525   3.266   0.428  0.7511  2.1807  1.1530
 6422TIP3    H240682   2.538   3.189   0.297 -1.4042 -0.4087  2.3627
 6423TIP3   OH240683   6.073   5.486  16.135 -0.1838 -0.2774  0.4593
 6423TIP3    H140684   6.074   5.554  16.202  0.0150  0.6801 -0.4894
 6423TIP3    H240685   6.022   5.524  16.063 -0.5734 -1.3671  0.1414
 6424TIP3   OH240686   2.469   2.037  13.717 -0.4404  0.1539  0.0300
 6424TIP3    H140687   2.526   2.104  13.754 -0.2028  0.6312 -1.1567
 6424TIP3    H240688   2.381   2.066  13.739 -0.2805 -0.0952  1.0579
 6425TIP3   OH240689   4.669   3.078  13.086 -0.0173 -0.1428 -0.5321
 6425TIP3    H140690   4.711   3.151  13.133 -1.1971  0.1486  0.1114
 6425TIP3    H240691   4.738   3.013  13.076  0.4855  0.1412  0.8776
 6426TIP3   OH240692   2.242   3.716   1.863 -0.3542 -0.1124  0.1556
 6426TIP3    H140693   2.246   3.799   1.816  2.3074  0.6167  1.4584
 6426TIP3    H240694   2.157   3.718   1.907  0.5104  3.1714  2.1002
 6427TIP3   OH240695   3.633   2.782  13.239 -0.0121 -0.0377 -0.1956
 6427TIP3    H140696   3.632   2.765  13.145  1.5018 -1.1860 -0.0522
 6427TIP3    H240697   3.562   2.728  13.274  1.6916 -2.5796 -0.3342
 6428TIP3   OH240698   0.392   5.756  16.075 -0.0196 -0.1490 -0.2133
 6428TIP3    H140699   0.430   5.764  16.162  0.3904  1.6312 -0.5177
 6428TIP3    H240700   0.361   5.665  16.071  1.5712 -0.8139  1.1069
 6429TIP3   OH240701   6.168   1.067  12.147 -0.1171 -0.0950  0.2621
 6429TIP3    H140702   6.125   0.992  12.189 -0.4745  0.7405  1.4047
 6429TIP3    H240703   6.123   1.144  12.181  1.9527  0.7959  1.1445
 6430TIP3   OH240704   4.835   2.324   2.378 -0.4625  0.3124 -0.1222
 6430TIP3    H140705   4.773   2.378   2.426  0.5916  1.3103  0.1564
 6430TIP3    H240706   4.790   2.241   2.366 -0.9888  0.1985  2.1229
 6431TIP3   OH240707   0.448   3.023  14.617 -0.9442  0.2411  0.6959
 6431TIP3    H140708   0.360   3.055  14.636 -0.7290  1.6248 -0.4777
 6431TIP3    H240709   0.495   3.100  14.584  0.7853 -0.4111  1.5184
 6432TIP3   OH240710   5.305   4.208   1.565  0.0161 -0.2347 -0.2546
 6432TIP3    H140711   5.336   4.160   1.488  0.0511  0.1386 -0.4734
 6432TIP3    H240712   5.384   4.244   1.605 -0.1047  0.5747 -0.7189
 6433TIP3   OH240713   0.512   1.112   2.268  0.0994 -0.4942  0.1817
 6433TIP3    H140714   0.604   1.118   2.291 -0.0199  1.2850  0.3573
 6433TIP3    H240715   0.508   1.141   2.177 -0.2263 -1.1482 -0.0207
 6434TIP3   OH240716   3.646   4.643   3.512  0.5241 -0.0582 -0.7299
 6434TIP3    H140717   3.591   4.721   3.520  0.6212 -0.0794  0.2979
 6434TIP3    H240718   3.615   4.585   3.582  2.0620  0.0566  0.0773
 6435TIP3   OH240719   1.521   2.250   2.225  0.4606  0.0216 -0.5126
 6435TIP3    H140720   1.493   2.258   2.134  1.2763 -0.6898 -0.8413
 6435TIP3    H240721   1.538   2.340   2.253  0.0872  0.2545 -1.0187
 6436TIP3   OH240722   5.632   2.033   1.316 -0.3378  0.0282 -0.3260
 6436TIP3    H140723   5.632   2.124   1.344 -1.7317 -0.2809  0.7923
 6436TIP3    H240724   5.615   2.036   1.222 -0.1584  0.9072 -0.3413
 6437TIP3   OH240725   0.396   4.082  16.320  0.4228  0.1424 -0.1571
 6437TIP3    H140726   0.303   4.059  16.322  0.5566 -0.6903 -1.5933
 6437TIP3    H240727   0.398   4.172  16.289  0.0706  0.3716  0.4814
 6438TIP3   OH240728   6.556   1.828  14.959  0.0124  0.1721  0.6644
 6438TIP3    H140729   6.488   1.894  14.967 -1.8227 -1.5230 -0.2448
 6438TIP3    H240730   6.563   1.789  15.047  0.7884  1.2245  1.0891
 6439TIP3   OH240731   4.566   3.262  12.021  0.1310  0.0226  0.0498
 6439TIP3    H140732   4.584   3.271  12.115  0.5648 -1.4897  0.1419
 6439TIP3    H240733   4.501   3.193  12.016  0.0596  0.1422 -0.7708
 6440TIP3   OH240734   4.960   2.773   1.756 -0.4844 -0.4621 -0.1810
 6440TIP3    H140735   4.898   2.817   1.814 -0.8167 -1.8522  0.5823
 6440TIP3    H240736   4.907   2.740   1.684 -0.5283 -1.0042  0.0897
 6441TIP3   OH240737   3.576   4.420   6.280  0.5103  0.2770  0.0951
 6441TIP3    H140738   3.485   4.398   6.259  1.1456 -1.2386 -1.2609
 6441TIP3    H240739   3.591   4.378   6.365 -1.1203  3.7956  2.3900
 6442TIP3   OH240740   3.890   0.272  16.968 -0.0709  0.0684 -0.0446
 6442TIP3    H140741   3.913   0.313  17.051  1.9511  1.3888 -1.1645
 6442TIP3    H240742   3.847   0.190  16.992  1.6663 -0.2514  2.3117
 6443TIP3   OH240743   1.599   1.611   0.644  0.2223 -0.7532  0.6529
 6443TIP3    H140744   1.681   1.659   0.636 -0.7742  1.0425  0.6689
 6443TIP3    H240745   1.621   1.533   0.694  1.7485  0.1498  1.4510
 6444TIP3   OH240746   0.901   0.514  15.820  0.6062  0.2647  0.2115
 6444TIP3    H140747   0.828   0.466  15.780  1.1017  0.6939 -1.2748
 6444TIP3    H240748   0.860   0.593  15.856  0.4225  0.8663 -1.2688
 6445TIP3   OH240749   1.856   2.661   2.762 -0.3268  0.1578 -0.2504
 6445TIP3    H140750   1.902   2.614   2.692  1.6378 -0.5863  1.4625
 6445TIP3    H240751   1.825   2.741   2.720  1.5924  0.1711 -1.8011
 6446TIP3   OH240752   4.252   6.728  16.169 -0.1871 -0.3968  0.1025
 6446TIP3    H140753   4.279   6.737  16.261  1.0102 -0.5911 -0.2076
 6446TIP3    H240754   4.157   6.726  16.172 -0.1912  0.3837  1.2731
 6447TIP3   OH240755   4.128   0.734   4.605  0.4600 -0.0334 -0.5553
 6447TIP3    H140756   4.219   0.706   4.619 -0.1910 -2.9586 -1.5474
 6447TIP3    H240757   4.081   0.704   4.682  0.3350  1.7442  0.0959
 6448TIP3   OH240758   3.342   2.432  12.641 -0.7812 -0.0543  0.0821
 6448TIP3    H140759   3.299   2.353  12.611 -0.7937 -0.4128  1.0266
 6448TIP3    H240760   3.433   2.423  12.611 -0.7089 -0.5718  0.4481
 6449TIP3   OH240761   1.897   0.032   5.419  0.3824  0.3778 -0.1492
 6449TIP3    H140762   1.928  -0.034   5.356 -1.5288 -0.3392 -0.4045
 6449TIP3    H240763   1.838   0.088   5.368  0.9625  1.5069  0.3874
 6450TIP3   OH240764   5.429   1.862   1.751 -0.6914  0.1014  0.1069
 6450TIP3    H140765   5.494   1.860   1.681 -1.0719  0.0032 -0.2499
 6450TIP3    H240766   5.405   1.770   1.763  0.0741  0.0176  1.0312
 6451TIP3   OH240767   6.456   4.719  13.288 -0.1260  0.7619 -0.0372
 6451TIP3    H140768   6.494   4.636  13.318  0.6161  1.5427  1.2919
 6451TIP3    H240769   6.428   4.702  13.198  2.5046 -0.1663 -0.7626
 6452TIP3   OH240770   0.521   5.610   2.877 -0.0670 -0.1207  0.2695
 6452TIP3    H140771   0.483   5.540   2.825 -1.6440  0.5516  0.4528
 6452TIP3    H240772   0.605   5.630   2.834 -0.5037 -0.7867 -0.9305
 6453TIP3   OH240773   1.453   0.175  15.409 -0.0321 -0.2898 -0.3393
 6453TIP3    H140774   1.492   0.251  15.453 -0.7667  0.4192 -0.8872
 6453TIP3    H240775   1.415   0.123  15.480  0.8988 -0.4183  0.0909
 6454TIP3   OH240776   1.398   0.317   2.566  0.7971  0.3508  0.2417
 6454TIP3    H140777   1.368   0.404   2.593  1.9190  0.8505 -0.0788
 6454TIP3    H240778   1.425   0.329   2.475  1.3234 -0.2537  0.3169
 6455TIP3   OH240779   4.325   0.882   3.149 -0.6532  0.3630  0.2343
 6455TIP3    H140780   4.308   0.975   3.130  1.2864  0.8066  0.4368
 6455TIP3    H240781   4.415   0.868   3.119  0.0669 -0.7200  2.6767
 6456TIP3   OH240782   6.003   0.965  16.146  0.0825  0.4273  0.0826
 6456TIP3    H140783   6.051   0.904  16.090 -0.7568 -0.4155  0.2476
 6456TIP3    H240784   5.955   0.908  16.208  1.0888  1.3210  1.7529
 6457TIP3   OH240785   4.157   0.478   4.145 -0.5863  0.5604  0.2311
 6457TIP3    H140786   4.197   0.391   4.153  0.0095  0.7018 -1.0187
 6457TIP3    H240787   4.137   0.502   4.236 -0.4280 -0.7177  0.6376
 6458TIP3   OH240788   4.976   2.450  15.893  0.8059  0.1067 -0.3534
 6458TIP3    H140789   4.950   2.492  15.975  2.8153 -0.3664  0.5786
 6458TIP3    H240790   4.910   2.382  15.878  1.5624 -1.2831  2.0782
 6459TIP3   OH240791   6.007   4.012  11.790  0.1013  0.1738 -0.1206
 6459TIP3    H140792   6.023   4.045  11.879  0.3331  0.4443 -0.2620
 6459TIP3    H240793   6.093   4.013  11.748  0.2224 -1.1212  0.0424
 6460TIP3   OH240794   3.150   3.762  12.950 -0.3659 -0.4403  0.2858
 6460TIP3    H140795   3.219   3.705  12.914  0.4527  0.9198 -0.3764
 6460TIP3    H240796   3.197   3.822  13.008 -1.2520 -0.5880  1.1683
 6461TIP3   OH240797   6.293   4.255   0.011 -0.5778 -0.4203  0.2376
 6461TIP3    H140798   6.261   4.279   0.098  0.3917 -2.3821  1.1914
 6461TIP3    H240799   6.360   4.320  -0.009 -1.5549  0.6869  0.4492
 6462TIP3   OH240800   0.717   5.646  14.756 -0.0736 -0.4410 -0.5897
 6462TIP3    H140801   0.632   5.608  14.733  0.0738 -1.6581  0.7238
 6462TIP3    H240802   0.720   5.641  14.851  1.8075 -1.1819 -0.6543
 6463TIP3   OH240803   2.439   3.030   1.248  0.0731 -0.0251  0.4186
 6463TIP3    H140804   2.516   3.077   1.215  0.3028 -1.2949 -0.9968
 6463TIP3    H240805   2.466   2.938   1.247 -1.8040 -0.6252 -1.1924
 6464TIP3   OH240806   1.083   5.352  12.664 -0.0762 -0.1032 -0.4543
 6464TIP3    H140807   1.120   5.268  12.691  1.2392  0.8992  1.0410
 6464TIP3    H240808   1.101   5.411  12.737 -2.4305  1.1178 -0.7459
 6465TIP3   OH240809   6.583   2.059  13.579 -0.0768 -0.0518  0.2432
 6465TIP3    H140810   6.563   2.036  13.670  1.5233  0.7187  0.8426
 6465TIP3    H240811   6.498   2.069  13.537 -0.8512 -1.1167  1.4691
 6466TIP3   OH240812   0.787   6.499  14.510 -0.6704  0.0822 -0.2054
 6466TIP3    H140813   0.710   6.549  14.537  0.7457  0.8545  2.8531
 6466TIP3    H240814   0.838   6.561  14.458 -0.5955  0.6927  0.5688
 6467TIP3   OH240815   2.296   1.579   4.529  0.1437 -0.6589 -0.2951
 6467TIP3    H140816   2.386   1.560   4.502 -0.4957 -1.3966 -2.0730
 6467TIP3    H240817   2.261   1.635   4.459 -0.7948 -0.4091  0.3521
 6468TIP3   OH240818   5.635   4.678  13.823  0.4549 -0.1714 -0.1520
 6468TIP3    H140819   5.593   4.595  13.801  1.4198 -0.3988 -1.2109
 6468TIP3    H240820   5.562   4.737  13.843 -0.3067 -0.9040 -0.6919
 6469TIP3   OH240821   1.866   2.062  16.887 -0.2276 -0.4546  0.3542
 6469TIP3    H140822   1.890   2.000  16.956  1.4472 -1.6460 -1.1712
 6469TIP3    H240823   1.814   2.010  16.826  1.6155 -0.6002 -1.2018
 6470TIP3   OH240824   0.042   3.423  10.757  0.4251  0.1672  1.2178
 6470TIP3    H140825   0.073   3.338  10.789  1.7556 -1.4055 -3.4644
 6470TIP3    H240826  -0.024   3.401  10.691  2.0388  2.5667 -1.4143
 6471TIP3   OH240827   4.279   5.460   3.604  0.4292  0.1006 -0.1411
 6471TIP3    H140828   4.286   5.428   3.694 -0.7706  1.5313  0.4923
 6471TIP3    H240829   4.370   5.467   3.575  0.8043 -2.3511  0.1739
 6472TIP3   OH240830   5.725   6.274  12.288 -0.0308  0.3060 -0.0114
 6472TIP3    H140831   5.745   6.248  12.198  0.1454 -1.1095  0.4083
 6472TIP3    H240832   5.644   6.324  12.281 -0.4080 -0.3929 -0.8841
 6473TIP3   OH240833   0.692   5.083  12.501 -0.4956  0.0760  0.0226
 6473TIP3    H140834   0.666   5.153  12.561  0.3237  0.2059  0.2463
 6473TIP3    H240835   0.772   5.048  12.539 -0.2704 -0.2124 -0.7037
 6474TIP3   OH240836   0.414   0.959   3.660 -0.1672  0.0322  0.0041
 6474TIP3    H140837   0.421   1.011   3.580 -1.5894  0.6799  0.2521
 6474TIP3    H240838   0.371   1.018   3.723 -1.5107 -1.3065  0.4095
 6475TIP3   OH240839   3.867   2.665  17.363 -0.0360  0.1019 -0.0913
 6475TIP3    H140840   3.919   2.656  17.283 -0.4768  0.8239 -0.4740
 6475TIP3    H240841   3.879   2.756  17.390  0.3051 -0.2055  0.8107
 6476TIP3   OH240842   0.590   6.588   3.295 -0.2440 -0.1256  0.2820
 6476TIP3    H140843   0.568   6.496   3.281  0.9625 -0.1640 -1.6525
 6476TIP3    H240844   0.685   6.593   3.282 -0.0585  1.1674  1.8092
 6477TIP3   OH240845   3.491   4.169  15.747 -0.2396 -0.2114 -0.2173
 6477TIP3    H140846   3.527   4.243  15.698 -0.3388  1.5163  2.1751
 6477TIP3    H240847   3.400   4.164  15.719 -0.3220  0.7965 -0.1421
 6478TIP3   OH240848   3.456   1.719  16.104 -0.2354  0.4738 -0.4782
 6478TIP3    H140849   3.408   1.641  16.134 -0.0063  0.8877  1.0790
 6478TIP3    H240850   3.388   1.782  16.081 -0.4230  0.1529 -0.8084
 6479TIP3   OH240851   5.281   1.610  13.689  0.1314  0.0779 -0.6985
 6479TIP3    H140852   5.339   1.646  13.622 -1.8098  0.3320 -2.3094
 6479TIP3    H240853   5.239   1.535  13.647 -1.0250  0.1445  0.2738
 6480TIP3   OH240854   3.647   5.574  11.939  0.0911 -0.3674 -0.3456
 6480TIP3    H140855   3.595   5.506  11.983  0.1139 -0.3417 -0.2796
 6480TIP3    H240856   3.616   5.572  11.848  1.1512 -1.5147 -0.7047
 6481TIP3   OH240857   0.607   1.228   3.642  0.7337 -0.4883 -0.4822
 6481TIP3    H140858   0.523   1.253   3.602  0.1716 -0.5470  0.6171
 6481TIP3    H240859   0.587   1.220   3.735  1.4056 -2.8456 -0.4800
 6482TIP3   OH240860   5.986   0.658   4.293  0.4738 -0.2797 -0.1862
 6482TIP3    H140861   6.012   0.650   4.201  0.5778 -1.1068 -0.0917
 6482TIP3    H240862   6.065   0.692   4.337  0.4563  0.0178 -0.3778
 6483TIP3   OH240863   6.120   2.326  15.285  0.0022 -0.6110 -0.2375
 6483TIP3    H140864   6.137   2.378  15.207 -0.5919 -1.5383 -1.0037
 6483TIP3    H240865   6.061   2.256  15.256 -0.1399 -1.0450  1.0092
 6484TIP3   OH240866   6.499   5.702   4.420  0.3457  0.1578  0.5431
 6484TIP3    H140867   6.491   5.747   4.335  0.4601  0.7535  0.8463
 6484TIP3    H240868   6.494   5.609   4.397 -0.7663  0.3325  0.0014
 6485TIP3   OH240869   2.899   6.671   3.900  0.4201 -0.7466  0.3617
 6485TIP3    H140870   2.817   6.652   3.853  0.4975  1.8227 -1.0090
 6485TIP3    H240871   2.917   6.762   3.879  1.6970 -0.1162  3.6876
 6486TIP3   OH240872   6.187   1.575   5.885  0.6029 -0.2076  0.3600
 6486TIP3    H140873   6.256   1.516   5.916  0.5413 -0.7044 -0.4345
 6486TIP3    H240874   6.229   1.661   5.883  1.9032 -0.8043 -2.1360
 6487TIP3   OH240875   1.643   0.790  10.295  0.1282  0.6066  0.3738
 6487TIP3    H140876   1.603   0.765  10.378 -0.6894 -1.3852 -0.5533
 6487TIP3    H240877   1.667   0.707  10.254 -0.7254  1.4447 -1.9684
 6488TIP3   OH240878   5.167   4.717   3.371 -0.7613 -0.1291  0.7724
 6488TIP3    H140879   5.120   4.734   3.289 -1.4372 -1.1056  0.9557
 6488TIP3    H240880   5.249   4.767   3.361 -0.6994 -0.4618 -0.6159
 6489TIP3   OH240881   0.278   0.993   5.809  0.0444  0.1055  0.4067
 6489TIP3    H140882   0.360   0.984   5.858  0.9593  1.5516 -0.7834
 6489TIP3    H240883   0.252   1.084   5.822 -1.4920 -0.3638  0.8749
 6490TIP3   OH240884   0.243   3.643   1.291  0.1476 -0.1555  0.1550
 6490TIP3    H140885   0.149   3.661   1.298  0.2753  0.4981  0.2724
 6490TIP3    H240886   0.284   3.706   1.350  0.6071 -1.0721  0.8441
 6491TIP3   OH240887   3.918   2.273  11.448  0.0040  0.1615 -0.4217
 6491TIP3    H140888   3.954   2.323  11.521  1.1443 -0.1460 -0.7493
 6491TIP3    H240889   3.994   2.252  11.393 -0.7658  0.0036 -1.4674
 6492TIP3   OH240890   3.528   6.399  13.793 -0.5297 -0.2691 -0.5610
 6492TIP3    H140891   3.594   6.466  13.775 -1.8746  0.6564 -2.4064
 6492TIP3    H240892   3.451   6.449  13.821 -1.0251 -1.1925 -0.2303
 6493TIP3   OH240893   5.008   1.711   4.711 -0.3773  0.0468  0.2572
 6493TIP3    H140894   4.917   1.739   4.725 -0.7074  0.1624 -1.7346
 6493TIP3    H240895   5.007   1.673   4.623  1.5537  0.2042  0.1381
 6494TIP3   OH240896   1.958   1.487   0.638 -0.0722  0.1860 -0.2447
 6494TIP3    H140897   1.986   1.505   0.549  0.6858 -1.2727 -0.3431
 6494TIP3    H240898   1.911   1.566   0.666 -3.2207 -0.4421 -3.0589
 6495TIP3   OH240899   2.721   1.056  14.911 -0.7316 -0.3140  0.6086
 6495TIP3    H140900   2.677   0.976  14.941 -0.6739 -0.5257  0.1348
 6495TIP3    H240901   2.744   1.038  14.820 -0.8234  0.2908  0.4623
 6496TIP3   OH240902   2.689   2.196  12.620  0.1946 -0.7062 -0.4054
 6496TIP3    H140903   2.625   2.131  12.648  1.3622 -1.4070  0.7623
 6496TIP3    H240904   2.751   2.202  12.693  2.2024 -1.0355 -1.9859
 6497TIP3   OH240905   2.818   2.143   3.493 -0.0196  0.1076 -0.4581
 6497TIP3    H140906   2.861   2.187   3.420  0.1266 -0.3150 -0.6298
 6497TIP3    H240907   2.729   2.125   3.462  0.1104 -0.2742 -0.6207
 6498TIP3   OH240908   0.135   3.942   2.763 -0.5455  0.1197  0.1742
 6498TIP3    H140909   0.183   3.863   2.787 -0.6169  0.5169  1.7704
 6498TIP3    H240910   0.122   3.988   2.847  0.4690  2.3749 -0.8235
 6499TIP3   OH240911   2.853   4.240  12.489  0.3015 -0.3076 -0.2326
 6499TIP3    H140912   2.808   4.159  12.463 -0.8010  0.5741 -1.1932
 6499TIP3    H240913   2.890   4.274  12.407  1.0061  0.0166  0.2104
 6500TIP3   OH240914   0.007   4.656   4.844 -0.1400  0.5319  0.3920
 6500TIP3    H140915   0.005   4.731   4.786 -1.5373  1.5295  1.6484
 6500TIP3    H240916   0.100   4.647   4.869 -0.1782  3.0847  1.7315
 6501TIP3   OH240917   4.585   2.361  13.111  0.6105 -0.5163  0.0347
 6501TIP3    H140918   4.546   2.430  13.164  0.3259 -0.8116  0.2181
 6501TIP3    H240919   4.511   2.320  13.067  0.8266 -0.3999 -0.4416
 6502TIP3   OH240920   5.481   3.915  14.418  0.0572  0.5837 -0.4363
 6502TIP3    H140921   5.489   3.993  14.362  1.5402 -0.4453 -1.7475
 6502TIP3    H240922   5.455   3.950  14.503  1.0396  2.5734 -0.8770
 6503TIP3   OH240923   3.725   6.313  12.764  0.4316 -0.3515  0.5687
 6503TIP3    H140924   3.714   6.260  12.842  1.9999  1.1607  1.8884
 6503TIP3    H240925   3.820   6.320  12.752  0.2363 -0.1636 -1.2220
 6504TIP3   OH240926   3.210   2.763   1.774  0.5638  0.0556  0.0707
 6504TIP3    H140927   3.185   2.853   1.796 -1.4422 -0.5763  0.6255
 6504TIP3    H240928   3.189   2.754   1.681  0.3362  0.0369  0.1228
 6505TIP3   OH240929   1.244   1.111   3.029 -0.1244  0.2298 -0.2862
 6505TIP3    H140930   1.277   1.128   2.941 -0.3341  0.3436 -0.3430
 6505TIP3    H240931   1.275   1.185   3.081  2.0103 -0.9536  0.2822
 6506TIP3   OH240932   1.163   4.016  12.151 -0.0532  0.4228 -0.4410
 6506TIP3    H140933   1.087   4.061  12.114  0.0680  1.1770  0.2071
 6506TIP3    H240934   1.144   3.923  12.140  0.1355  0.6004 -2.7351
 6507TIP3   OH240935   1.580   5.927  13.524 -0.1518  0.3526 -0.5220
 6507TIP3    H140936   1.526   5.850  13.542 -1.0050  1.2538  1.0132
 6507TIP3    H240937   1.615   5.952  13.610  4.2750 -1.2228 -1.6057
 6508TIP3   OH240938   1.528   5.943   2.490  1.0052  0.1846 -0.1127
 6508TIP3    H140939   1.538   5.970   2.399 -0.6801 -1.1669 -0.7426
 6508TIP3    H240940   1.434   5.932   2.503  1.0742  1.5143  2.1790
 6509TIP3   OH240941   1.692   5.138   4.048  0.3096 -0.3599 -0.0310
 6509TIP3    H140942   1.624   5.145   3.981  0.2352 -0.7402  0.0010
 6509TIP3    H240943   1.736   5.223   4.047  0.2763 -0.3455 -0.5267
 6510TIP3   OH240944   6.229   5.066  17.286 -0.1398  0.2268 -0.3553
 6510TIP3    H140945   6.136   5.076  17.307 -0.8369 -1.7300 -2.2180
 6510TIP3    H240946   6.271   5.055  17.371 -1.4166  2.0932  0.6067
 6511TIP3   OH240947   6.681   3.893  14.565  0.3999  0.2555 -0.3421
 6511TIP3    H140948   6.756   3.951  14.576 -0.3611  1.1157  0.4571
 6511TIP3    H240949   6.622   3.917  14.636 -2.0361  1.7765 -2.7044
 6512TIP3   OH240950   5.384   3.015   0.395 -0.0218  0.1568  0.1700
 6512TIP3    H140951   5.450   2.946   0.403 -0.3090 -0.0016  1.2643
 6512TIP3    H240952   5.407   3.079   0.462  0.9801  1.7922 -1.6226
 6513TIP3   OH240953   5.620   0.544  13.996 -0.1638 -0.3200  0.4835
 6513TIP3    H140954   5.693   0.488  13.969 -0.6492 -0.0229 -1.5742
 6513TIP3    H240955   5.640   0.630  13.960 -0.7180  0.1918  1.3619
 6514TIP3   OH240956   1.986   1.477  15.382 -0.6366 -0.1961  0.3354
 6514TIP3    H140957   1.944   1.515  15.305 -0.3512 -0.1509  0.2028
 6514TIP3    H240958   2.033   1.401  15.349 -3.1900 -2.1860  0.9444
 6515TIP3   OH240959   4.430   3.945  15.802  0.4871  0.1402 -0.9218
 6515TIP3    H140960   4.486   3.995  15.861 -0.9449  0.5920  0.0987
 6515TIP3    H240961   4.472   3.859  15.795  0.9988  0.2868  0.2531
 6516TIP3   OH240962   1.197   5.967   3.156  0.5777 -0.1187 -0.2362
 6516TIP3    H140963   1.102   5.957   3.151  0.6688 -0.5805 -1.4281
 6516TIP3    H240964   1.231   5.892   3.108  1.4832  1.2722 -1.8565
 6517TIP3   OH240965   2.913   4.209   4.662  0.0016 -0.1654 -0.1965
 6517TIP3    H140966   2.867   4.258   4.593  0.1365  0.2519  0.0089
 6517TIP3    H240967   2.853   4.138   4.684  0.1584 -0.5881 -1.0779
 6518TIP3   OH240968   0.209   4.791  16.995 -0.1982  0.3335 -0.0672
 6518TIP3    H140969   0.283   4.851  17.001 -0.4175  0.6050 -0.0382
 6518TIP3    H240970   0.133   4.846  17.011 -0.3941  0.0252  0.0693
 6519TIP3   OH240971   2.102   5.509   3.086 -0.5715 -0.3042 -0.0781
 6519TIP3    H140972   2.066   5.429   3.124  2.3345 -1.2594  0.9657
 6519TIP3    H240973   2.046   5.579   3.120 -1.3598 -1.6517  1.5340
 6520TIP3   OH240974   3.232   2.536   2.402 -0.0049  0.1746 -0.2094
 6520TIP3    H140975   3.316   2.515   2.444  0.1626  0.5646 -0.3446
 6520TIP3    H240976   3.171   2.472   2.437  0.3706 -0.1674 -0.1725
 6521TIP3   OH240977   0.976   5.276  15.710 -0.0548 -0.1502  0.3288
 6521TIP3    H140978   1.060   5.231  15.707 -0.1273 -0.2698  0.0289
 6521TIP3    H240979   0.930   5.245  15.632  0.9035  2.4210 -1.3769
 6522TIP3   OH240980   2.589   1.353  16.303  0.5957  0.5686  0.1738
 6522TIP3    H140981   2.575   1.347  16.208 -0.9501 -2.7370  0.4898
 6522TIP3    H240982   2.517   1.407  16.334 -0.6797 -0.7956 -0.2845
 6523TIP3   OH240983   1.559   1.448   6.080 -0.1801  0.2012 -0.3824
 6523TIP3    H140984   1.505   1.444   6.158  0.6457 -1.1258  0.1588
 6523TIP3    H240985   1.648   1.431   6.111  0.0872 -0.9396 -1.6602
 6524TIP3   OH240986   6.428   6.414   6.318 -0.2689 -0.2635 -0.4547
 6524TIP3    H140987   6.349   6.415   6.372 -0.8782  0.0048 -1.3297
 6524TIP3    H240988   6.483   6.347   6.358 -2.2189 -2.7188 -1.5856
 6525TIP3   OH240989   4.569   5.213   2.043  0.5304  0.2532  0.6644
 6525TIP3    H140990   4.547   5.297   2.085 -0.4011  0.7988 -0.8232
 6525TIP3    H240991   4.574   5.151   2.116 -0.4007  1.2725  1.6516
 6526TIP3   OH240992   3.867   4.268  11.617  0.2706  0.2513 -0.8772
 6526TIP3    H140993   3.860   4.327  11.542  0.6152  0.4132 -0.7837
 6526TIP3    H240994   3.945   4.216  11.599 -0.5485 -0.8486 -1.4294
 6527TIP3   OH240995   0.283   0.565  13.740 -0.3733  0.4588 -0.5479
 6527TIP3    H140996   0.316   0.485  13.699 -0.0004  0.5702 -0.4711
 6527TIP3    H240997   0.193   0.544  13.765  0.3865 -0.6515  1.4048
 6528TIP3   OH240998   3.561   1.930   1.260 -0.2028 -0.2933 -0.4191
 6528TIP3    H140999   3.655   1.914   1.250  0.3520  2.2547  0.0378
 6528TIP3    H241000   3.548   1.936   1.354 -0.6048  0.4988 -0.5231
 6529TIP3   OH241001   2.624   5.045   5.799 -0.0525 -0.2403  0.2488
 6529TIP3    H141002   2.680   5.103   5.851  1.2951 -2.0323  0.9026
 6529TIP3    H241003   2.536   5.061   5.832  0.5920 -0.2480  2.0938
 6530TIP3   OH241004   5.677   2.703  14.700  0.7051 -0.0466 -0.0509
 6530TIP3    H141005   5.714   2.636  14.758 -1.4709 -2.5167 -1.3093
 6530TIP3    H241006   5.704   2.677  14.613 -1.5705 -0.3451 -0.7295
 6531TIP3   OH241007   3.435   1.460  14.775 -0.0278 -0.3473  0.0884
 6531TIP3    H141008   3.411   1.451  14.683  1.6421  0.5440 -0.4726
 6531TIP3    H241009   3.495   1.388  14.791 -1.4913 -1.4305  0.9500
 6532TIP3   OH241010   4.936   2.708  15.442 -0.0000  0.2824  0.2410
 6532TIP3    H141011   4.954   2.796  15.476  2.2634 -0.3580  0.8968
 6532TIP3    H241012   4.948   2.650  15.518 -1.4639 -0.6231 -0.1686
 6533TIP3   OH241013   1.888   1.152  13.761 -0.1047 -0.6160 -0.0458
 6533TIP3    H141014   1.847   1.085  13.816 -3.4369  0.4027 -1.0798
 6533TIP3    H241015   1.842   1.147  13.677  2.6499  0.0215 -1.7437
 6534TIP3   OH241016   5.551   3.274   5.096 -0.0716 -0.2128  0.2831
 6534TIP3    H141017   5.541   3.193   5.146  0.3674  0.0195  0.7424
 6534TIP3    H241018   5.640   3.304   5.114 -0.8053  1.3509  1.5869
 6535TIP3   OH241019   0.641   3.800  11.888  0.0955 -0.8087  0.1860
 6535TIP3    H141020   0.656   3.866  11.821 -0.7846 -0.7268  0.0554
 6535TIP3    H241021   0.693   3.724  11.860  2.3653  0.3086  1.1382
 6536TIP3   OH241022   1.187   4.194   2.608  0.5061  0.4341 -0.6096
 6536TIP3    H141023   1.140   4.199   2.691 -0.5394  0.1851 -1.1589
 6536TIP3    H241024   1.226   4.280   2.597 -0.3025  0.8384 -0.3945
 6537TIP3   OH241025   6.315   5.649   5.331 -0.1871  0.0500  0.3402
 6537TIP3    H141026   6.396   5.699   5.339 -0.4187  0.4452  0.2591
 6537TIP3    H241027   6.291   5.656   5.238 -0.8989  0.8724  0.5720
 6538TIP3   OH241028   2.482   0.045   6.110 -0.0804 -0.0128 -0.1715
 6538TIP3    H141029   2.404   0.005   6.148  0.0945  0.4129  0.6730
 6538TIP3    H241030   2.554  -0.009   6.142  0.2197  1.2961  1.5296
 6539TIP3   OH241031   2.498   1.033  16.141 -0.0334  0.3958 -0.2385
 6539TIP3    H141032   2.412   0.997  16.118 -0.6161  0.1419  2.0624
 6539TIP3    H241033   2.546   0.960  16.179  0.4896  0.9916  0.2684
 6540TIP3   OH241034   1.556   4.647   3.834  0.2624  0.4084  0.2903
 6540TIP3    H141035   1.626   4.634   3.770 -1.7887  1.1222 -2.2820
 6540TIP3    H241036   1.577   4.731   3.876  1.9569 -0.3576  1.0647
 6541TIP3   OH241037   1.654   5.457   1.221  0.0841  0.0629 -0.2467
 6541TIP3    H141038   1.739   5.466   1.178  0.2506 -1.4005 -0.3028
 6541TIP3    H241039   1.596   5.425   1.151 -0.3646  0.4806 -0.0680
 6542TIP3   OH241040   1.631   0.790   4.408  0.3022 -0.3846  0.0058
 6542TIP3    H141041   1.623   0.847   4.484 -1.5043  0.6740 -0.9164
 6542TIP3    H241042   1.569   0.719   4.426  0.1712 -0.3449 -0.2918
 6543TIP3   OH241043   0.325   6.292   4.335  0.3905 -0.1442 -0.0371
 6543TIP3    H141044   0.360   6.380   4.354  0.2841 -0.2658  0.7614
 6543TIP3    H241045   0.378   6.234   4.390  0.4162 -0.5782 -0.5178
 6544TIP3   OH241046   5.282   1.267   3.429 -0.3975 -0.0137 -0.2559
 6544TIP3    H141047   5.376   1.267   3.410 -0.2124 -0.8661  0.5840
 6544TIP3    H241048   5.277   1.262   3.524 -1.3027  0.0765 -0.2901
 6545TIP3   OH241049   0.699   6.645   1.684  0.2299  0.2815 -0.3674
 6545TIP3    H141050   0.620   6.698   1.699  0.0564  0.5797 -2.1261
 6545TIP3    H241051   0.719   6.608   1.770 -0.8784  1.4990  0.4663
 6546TIP3   OH241052   1.250   6.769  15.514  0.2886  0.2945 -0.1892
 6546TIP3    H141053   1.182   6.755  15.448  0.1835 -0.8905  0.1551
 6546TIP3    H241054   1.208   6.824  15.580 -0.4768 -0.7138  0.1995
 6547TIP3   OH241055   2.279   4.118  15.413  1.0779  0.0739 -0.6717
 6547TIP3    H141056   2.244   4.170  15.486  2.0342  2.5206 -1.8199
 6547TIP3    H241057   2.373   4.135  15.416  1.5076 -2.0792 -0.8208
 6548TIP3   OH241058   0.802   2.695  16.816 -0.5448 -0.3776  0.1129
 6548TIP3    H141059   0.893   2.725  16.813 -0.8936  0.6475 -0.7834
 6548TIP3    H241060   0.803   2.621  16.877  1.0672 -1.0114 -0.6322
 6549TIP3   OH241061   2.325   3.122  11.715  0.5484  0.4337  0.4308
 6549TIP3    H141062   2.285   3.101  11.799  1.0597 -1.9284  0.1615
 6549TIP3    H241063   2.330   3.038  11.669  1.1308  1.5046 -1.5979
 6550TIP3   OH241064   1.747   5.622  15.585 -0.5113  0.5704 -0.6124
 6550TIP3    H141065   1.663   5.643  15.545 -1.1036 -0.0133  0.2768
 6550TIP3    H241066   1.744   5.527  15.598  0.9149  0.2974 -1.9316
 6551TIP3   OH241067   0.368   3.239  16.452 -0.1825 -0.3012 -0.3808
 6551TIP3    H141068   0.333   3.266  16.367 -0.0513 -0.5833 -0.5273
 6551TIP3    H241069   0.336   3.150  16.464  0.8253 -0.7301 -0.7218
 6552TIP3   OH241070   0.824   6.288  12.810 -0.0850  1.2230  0.4765
 6552TIP3    H141071   0.798   6.274  12.901  1.8548  0.8375  1.0166
 6552TIP3    H241072   0.870   6.207  12.785 -0.4981  1.3573 -0.8225
 6553TIP3   OH241073   0.936   0.727   0.543  0.1724 -0.9998  0.4431
 6553TIP3    H141074   0.936   0.813   0.501  0.7871 -1.2674 -0.1275
 6553TIP3    H241075   0.996   0.675   0.490  1.6000 -1.1303  2.1094
 6554TIP3   OH241076   1.533   3.098   6.176 -0.2440 -0.3812 -0.6362
 6554TIP3    H141077   1.473   3.039   6.220 -0.7333  0.4939 -0.0996
 6554TIP3    H241078   1.613   3.096   6.229 -0.3518 -0.3757 -0.4721
 6555TIP3   OH241079   4.356   3.224   3.881 -0.8074 -0.3322 -0.3908
 6555TIP3    H141080   4.384   3.248   3.970  1.7531 -1.9709 -0.6532
 6555TIP3    H241081   4.322   3.305   3.844 -0.8778  0.6567  1.7036
 6556TIP3   OH241082   0.002   5.102   4.403  0.2731 -0.3025  0.4323
 6556TIP3    H141083   0.007   5.015   4.441 -0.2388 -0.6488 -0.2544
 6556TIP3    H241084   0.093   5.129   4.391  0.4700 -1.4654 -0.9204
 6557TIP3   OH241085   0.627   5.630  11.770  0.1300  0.2611 -0.3767
 6557TIP3    H141086   0.571   5.569  11.819  2.2616 -0.3943  1.4291
 6557TIP3    H241087   0.642   5.703  11.830 -0.1595  1.2845 -1.5001
 6558TIP3   OH241088   5.029   0.059   4.009 -0.0742 -0.1748  0.4235
 6558TIP3    H141089   4.977  -0.019   3.988  0.3861  0.0175 -1.5998
 6558TIP3    H241090   5.090   0.028   4.076 -0.2767 -1.4247  0.0679
 6559TIP3   OH241091   0.120   6.386  13.388 -0.0059  0.4919  0.7840
 6559TIP3    H141092   0.094   6.335  13.311 -0.2961 -0.7063  1.6440
 6559TIP3    H241093   0.125   6.476  13.357 -0.8110  0.1255 -0.4690
 6560TIP3   OH241094   2.683   0.389  12.020  0.3172 -0.6268  0.5471
 6560TIP3    H141095   2.658   0.480  12.035 -0.0811 -0.6553  0.0946
 6560TIP3    H241096   2.643   0.368  11.936  0.5712 -1.1617  0.5612
 6561TIP3   OH241097   3.956   0.926   3.517  0.1135 -0.3493 -0.3173
 6561TIP3    H141098   3.992   0.922   3.428 -1.9306  0.7142 -1.2808
 6561TIP3    H241099   3.933   0.835   3.538  2.4247 -0.9078 -0.0172
 6562TIP3   OH241100   1.434   1.929   1.230 -0.6143  0.1135  0.1654
 6562TIP3    H141101   1.384   1.952   1.308 -1.4904  1.1166 -0.6481
 6562TIP3    H241102   1.451   1.836   1.238 -0.2456  0.3014  1.7813
 6563TIP3   OH241103   1.563   6.621  13.300 -0.5808 -0.2691  0.9391
 6563TIP3    H141104   1.511   6.701  13.294 -1.5839 -1.0112 -1.6338
 6563TIP3    H241105   1.624   6.627  13.226  0.7273 -0.9786  1.9228
 6564TIP3   OH241106   2.125   2.893   4.517  0.6252 -0.0795 -0.1332
 6564TIP3    H141107   2.135   2.922   4.426  2.7480 -0.9091 -0.2240
 6564TIP3    H241108   2.176   2.812   4.521  0.3993 -0.1544  1.7579
 6565TIP3   OH241109   1.054   4.714   5.445  0.3668 -0.3779 -0.9289
 6565TIP3    H141110   1.093   4.657   5.511 -0.6960 -0.3538 -0.2473
 6565TIP3    H241111   1.077   4.802   5.474  0.6083 -0.4003 -1.0542
 6566TIP3   OH241112   4.762   3.970   5.820 -0.0493  0.3921 -0.2594
 6566TIP3    H141113   4.671   3.941   5.829  0.4277 -1.2745 -0.3186
 6566TIP3    H241114   4.781   3.961   5.727  1.3228 -3.3979  0.1723
 6567TIP3   OH241115   6.401   6.181  12.443 -0.4023 -0.3335  0.5500
 6567TIP3    H141116   6.313   6.162  12.473 -1.1480  0.8921 -0.7342
 6567TIP3    H241117   6.451   6.199  12.523 -1.2258 -1.3262  1.2999
 6568TIP3   OH241118   6.224   4.952   0.272  0.3781 -0.3741 -0.0299
 6568TIP3    H141119   6.138   4.989   0.293 -0.0403 -1.3611  0.0398
 6568TIP3    H241120   6.206   4.886   0.205  0.6785 -2.4637  1.8312
 6569TIP3   OH241121   2.951   5.208   3.944 -0.7355 -0.0863  0.2526
 6569TIP3    H141122   2.900   5.184   4.022 -0.8078  1.1926  0.6260
 6569TIP3    H241123   2.912   5.290   3.914  0.6740  0.5920  0.1684
 6570TIP3   OH241124   2.020   3.424  12.219 -0.2285  0.3299  0.3149
 6570TIP3    H141125   1.995   3.493  12.280 -0.3298  0.2311  0.3871
 6570TIP3    H241126   1.984   3.344  12.258  0.5135  0.1327  0.6080
 6571TIP3   OH241127   4.487   6.136   3.489 -0.3070 -0.3376 -0.4611
 6571TIP3    H141128   4.419   6.080   3.451 -0.3190 -1.8887  1.6832
 6571TIP3    H241129   4.451   6.166   3.572  0.6198  1.0509 -0.5171
 6572TIP3   OH241130   3.869   2.868  17.007  0.6054 -0.3944 -0.5540
 6572TIP3    H141131   3.802   2.879  17.074 -1.1839 -0.8702 -2.1542
 6572TIP3    H241132   3.948   2.907  17.044 -0.6153  0.4135  1.3252
 6573TIP3   OH241133   0.356   4.720   6.309  0.3121 -0.1011  0.2235
 6573TIP3    H141134   0.380   4.683   6.224  1.0514  0.4887  0.1688
 6573TIP3    H241135   0.438   4.752   6.346 -0.1942  0.8228  0.5886
 6574TIP3   OH241136   5.807   3.628  10.797 -0.5085  0.3290 -0.2746
 6574TIP3    H141137   5.743   3.587  10.739 -0.1872  1.4172 -1.4626
 6574TIP3    H241138   5.879   3.653  10.739  0.5021  0.1324  0.8535
 6575TIP3   OH241139   4.550   0.067   2.755 -0.4399  0.3893  0.0225
 6575TIP3    H141140   4.538  -0.003   2.819  1.6965  1.6632  1.9589
 6575TIP3    H241141   4.463   0.106   2.746 -1.4163 -1.6806 -0.1981
 6576TIP3   OH241142   2.149   0.999   5.547  0.1480 -0.3504  0.4174
 6576TIP3    H141143   2.178   1.073   5.600 -1.1895  1.7791 -1.6133
 6576TIP3    H241144   2.055   0.994   5.563  0.0460 -0.8933 -0.2826
 6577TIP3   OH241145   0.432   2.114  13.660 -0.1543  0.0741  0.3570
 6577TIP3    H141146   0.520   2.109  13.621  0.2955  1.9036  1.0156
 6577TIP3    H241147   0.383   2.171  13.601 -0.4438  0.2457  0.7592
 6578TIP3   OH241148   4.507   2.804  17.372  0.5435  0.3584  0.1199
 6578TIP3    H141149   4.474   2.849  17.450 -0.2568 -2.4081  1.5296
 6578TIP3    H241150   4.591   2.767  17.399  0.8097  0.3306 -0.7176
 6579TIP3   OH241151   0.978   2.453  16.747  0.0474 -0.3710  0.0582
 6579TIP3    H141152   0.947   2.458  16.837  1.0567  1.4818  0.3406
 6579TIP3    H241153   0.902   2.421  16.697 -0.3582 -1.9435  1.6043
 6580TIP3   OH241154   3.401   4.923  15.597  0.2195  0.2881  0.0906
 6580TIP3    H141155   3.450   4.961  15.670 -0.1449  1.0794 -0.0707
 6580TIP3    H241156   3.309   4.939  15.618  0.1358  2.7814 -1.6734
 6581TIP3   OH241157   4.225   4.722  15.383 -0.1889  0.2221 -0.0320
 6581TIP3    H141158   4.227   4.742  15.289 -1.3459  1.4599  0.1720
 6581TIP3    H241159   4.261   4.634  15.389  3.5013  1.4894 -1.2072
 6582TIP3   OH241160   3.526   5.681  12.463 -0.0037  0.0526 -0.2150
 6582TIP3    H141161   3.584   5.637  12.525 -0.4843 -1.0407 -0.5135
 6582TIP3    H241162   3.581   5.745  12.419  0.6575 -0.0758  0.4092
 6583TIP3   OH241163   5.609   6.043   5.127 -0.0197  0.7114 -0.6645
 6583TIP3    H141164   5.662   6.015   5.053  1.2857  1.1563  0.0650
 6583TIP3    H241165   5.552   5.968   5.147 -1.8543  1.2694 -3.3333
 6584TIP3   OH241166   5.980   2.234   0.676  0.0614 -0.3994 -0.4658
 6584TIP3    H141167   6.064   2.255   0.717 -0.8173 -0.2187  1.3470
 6584TIP3    H241168   5.997   2.152   0.630  1.8082  0.8102 -2.1335
 6585TIP3   OH241169   3.898   6.733   1.617 -0.3215 -0.6703 -0.4419
 6585TIP3    H141170   3.864   6.717   1.529  0.1811  3.3439 -1.5443
 6585TIP3    H241171   3.862   6.818   1.643 -1.0503 -1.9678  3.6599
 6586TIP3   OH241172   3.343   4.107   3.446  0.2168  0.4184 -0.0504
 6586TIP3    H141173   3.325   4.200   3.428 -0.2457  0.3285 -0.0546
 6586TIP3    H241174   3.347   4.102   3.542 -1.2832  0.1677  0.0162
 6587TIP3   OH241175   0.689   4.444  12.534  0.1418  0.1987  0.2197
 6587TIP3    H141176   0.761   4.492  12.576  0.8516  0.2657 -1.0446
 6587TIP3    H241177   0.686   4.360  12.580 -0.2694  0.9251  1.5878
 6588TIP3   OH241178   1.628   4.581  12.354  0.5204  0.1387 -0.1826
 6588TIP3    H141179   1.684   4.630  12.414 -0.6735  2.2729 -0.7147
 6588TIP3    H241180   1.559   4.544  12.409  0.3211  0.7349 -0.0306
 6589TIP3   OH241181   2.790   1.761  12.900 -0.2289  0.3534  0.2182
 6589TIP3    H141182   2.822   1.847  12.929  1.5741  0.1569 -1.0468
 6589TIP3    H241183   2.843   1.698  12.949  0.5824  0.0040 -1.0657
 6590TIP3   OH241184   1.993   0.983  16.556 -0.4463  0.0544 -0.0583
 6590TIP3    H141185   2.087   0.967  16.545 -0.6370 -0.4109 -1.2060
 6590TIP3    H241186   1.952   0.933  16.485 -1.8238 -2.4779  2.3278
 6591TIP3   OH241187   2.067   6.143  15.125  0.7090 -0.0421  0.2722
 6591TIP3    H141188   2.086   6.088  15.202  1.1547 -1.1311 -0.5845
 6591TIP3    H241189   1.991   6.195  15.152 -0.9449 -2.3870  0.5560
 6592TIP3   OH241190   2.832   3.688  11.778 -0.2053  0.4598  0.4126
 6592TIP3    H141191   2.851   3.632  11.854  0.8814 -1.5309 -1.2439
 6592TIP3    H241192   2.738   3.677  11.764 -0.4217  0.8650  1.4493
 6593TIP3   OH241193   1.097   0.139   4.008  0.3647  0.2711  0.1651
 6593TIP3    H141194   1.126   0.081   4.079  1.1259 -0.6706 -0.8767
 6593TIP3    H241195   1.082   0.081   3.934  0.8656  1.3623 -0.8323
 6594TIP3   OH241196   2.256   5.386   4.484  0.0085 -0.4063 -0.0052
 6594TIP3    H141197   2.307   5.448   4.433  0.1967 -0.9027 -0.4257
 6594TIP3    H241198   2.166   5.418   4.477  0.4345  1.5723  2.2991
 6595TIP3   OH241199   2.482   1.197   4.497  0.4215 -0.1645  0.0852
 6595TIP3    H141200   2.577   1.186   4.488  0.7024  1.8917 -0.0322
 6595TIP3    H241201   2.467   1.289   4.475 -1.4870 -0.2042  1.0235
 6596TIP3   OH241202   0.793   4.952  15.410 -0.1029  0.5585 -0.0541
 6596TIP3    H141203   0.831   4.914  15.330  1.8433  2.9908 -0.3811
 6596TIP3    H241204   0.813   4.888  15.478  2.6025  0.6111 -0.6731
 6597TIP3   OH241205   1.858   3.856   0.148 -0.4454 -0.0555 -0.1931
 6597TIP3    H141206   1.781   3.804   0.129 -1.1926  1.0844 -0.3984
 6597TIP3    H241207   1.878   3.837   0.240 -1.0222 -0.2954 -0.1155
 6598TIP3   OH241208   4.237   0.200   4.584  0.7775 -0.2350 -0.9309
 6598TIP3    H141209   4.207   0.269   4.643  0.7065 -1.1032  0.0931
 6598TIP3    H241210   4.331   0.194   4.600  0.3110 -2.7724  1.7555
 6599TIP3   OH241211   2.580   4.168   5.742  0.5254 -0.0022 -0.3047
 6599TIP3    H141212   2.568   4.187   5.835  0.8049 -0.2857 -0.2100
 6599TIP3    H241213   2.511   4.218   5.698 -0.4248 -0.8669  0.1527
 6600TIP3   OH241214   0.537   1.013   3.235  0.2583 -0.1433 -0.2062
 6600TIP3    H141215   0.527   0.918   3.223  3.6124 -0.4375 -1.6770
 6600TIP3    H241216   0.607   1.022   3.300 -1.3085  1.4326  1.3878
 6601TIP3   OH241217   0.578   3.531   1.102  0.1010  0.3705 -0.5999
 6601TIP3    H141218   0.525   3.484   1.166  0.3648  0.9605  0.0693
 6601TIP3    H241219   0.668   3.526   1.136  0.0460  1.9215 -0.1397
 6602TIP3   OH241220   1.199   0.586   5.237  0.7422  0.9050  0.6762
 6602TIP3    H141221   1.244   0.624   5.162  1.9359  0.4575  1.1374
 6602TIP3    H241222   1.114   0.557   5.202  1.3439  0.5473 -0.5360
 6603TIP3   OH241223   6.740   4.647   2.569  0.3655 -0.2139  0.0785
 6603TIP3    H141224   6.793   4.697   2.631  0.8113 -2.3796  1.5375
 6603TIP3    H241225   6.652   4.648   2.607  0.5922 -1.3487  0.6895
 6604TIP3   OH241226   3.793   2.081   4.164 -0.3488 -0.6352 -0.3514
 6604TIP3    H141227   3.840   2.087   4.081 -1.3518  0.5174 -0.8670
 6604TIP3    H241228   3.705   2.114   4.144 -0.5471 -0.1272  1.2253
 6605TIP3   OH241229   1.363   5.741  14.189 -0.1689  0.1755  0.4605
 6605TIP3    H141230   1.283   5.787  14.164  0.1448  0.8478  0.6585
 6605TIP3    H241231   1.420   5.748  14.113  0.1645  0.7938  0.7530
 6606TIP3   OH241232   2.614   3.310  16.602  0.3036  0.9387  0.0491
 6606TIP3    H141233   2.649   3.396  16.625  2.1710  0.6224 -1.2851
 6606TIP3    H241234   2.677   3.276  16.538  0.4725 -2.0342  1.6110
 6607TIP3   OH241235   1.429   4.149  13.949  0.6590 -0.2053 -0.1624
 6607TIP3    H141236   1.523   4.169  13.951  0.7524 -0.1146 -2.6876
 6607TIP3    H241237   1.399   4.184  13.866 -1.7803  0.3092  0.8725
 6608TIP3   OH241238   4.722   6.554  14.902 -0.0382  0.9527 -0.1073
 6608TIP3    H141239   4.786   6.555  14.973 -2.5956 -0.4146  2.4302
 6608TIP3    H241240   4.719   6.463  14.874  0.9227  1.4700 -2.1001
 6609TIP3   OH241241   5.171   5.663  11.451  0.1656  0.4734 -0.3480
 6609TIP3    H141242   5.196   5.728  11.386  1.2073  0.6517  0.2082
 6609TIP3    H241243   5.153   5.583  11.400  0.8748  0.6338 -0.8578
 6610TIP3   OH241244   2.918   4.533  15.838 -0.2845 -0.5744  0.2429
 6610TIP3    H141245   2.899   4.575  15.923 -0.1182 -1.3238  0.6585
 6610TIP3    H241246   2.998   4.483  15.854  0.5318  0.3756 -0.7466
 6611TIP3   OH241247   0.808   2.418   4.521 -0.0875 -0.3521 -0.8104
 6611TIP3    H141248   0.804   2.496   4.577 -0.4161  0.0223 -1.3335
 6611TIP3    H241249   0.794   2.452   4.433  0.9316 -0.8663 -1.1862
 6612TIP3   OH241250   5.908   3.050   4.712  0.6097  0.1246 -0.6366
 6612TIP3    H141251   5.965   2.976   4.692  2.0021  1.0549 -0.2376
 6612TIP3    H241252   5.964   3.127   4.703 -1.0405  1.2381 -1.9598
 6613TIP3   OH241253   4.875   0.160   3.526 -0.2971 -0.2877  0.5619
 6613TIP3    H141254   4.903   0.218   3.597 -0.4772  0.8397 -0.2653
 6613TIP3    H241255   4.780   0.157   3.534 -0.4515  1.0200 -0.4918
 6614TIP3   OH241256   1.575   4.454  11.836 -0.4594 -0.1592 -0.0738
 6614TIP3    H141257   1.561   4.513  11.910 -0.4530  0.1858 -0.3450
 6614TIP3    H241258   1.487   4.430  11.807 -0.4643 -0.1321 -0.0815
 6615TIP3   OH241259   1.369   4.513  16.198 -0.0689 -0.2518  0.3684
 6615TIP3    H141260   1.304   4.566  16.152  0.5863  1.4446  1.2973
 6615TIP3    H241261   1.343   4.423  16.180 -2.8885  0.3405  0.9894
 6616TIP3   OH241262   0.696   1.326  14.732 -0.0201  0.4034 -0.0198
 6616TIP3    H141263   0.635   1.338  14.804  1.2043  2.5329  0.7594
 6616TIP3    H241264   0.646   1.279  14.666 -1.6920 -0.1573  1.5491
 6617TIP3   OH241265   0.503   1.243   5.112  0.2523 -0.6641  0.3246
 6617TIP3    H141266   0.591   1.209   5.128  1.0217 -0.0449 -2.1738
 6617TIP3    H241267   0.488   1.306   5.183  2.3291  0.1162  0.1399
 6618TIP3   OH241268   1.572   3.601   5.674  0.1620 -0.6544 -0.1385
 6618TIP3    H141269   1.603   3.656   5.747  2.6882 -0.5100 -1.2006
 6618TIP3    H241270   1.529   3.527   5.717 -2.9114  1.7629  1.3527
 6619TIP3   OH241271   2.843   0.068   1.467 -0.0319  0.4645 -0.3552
 6619TIP3    H141272   2.926   0.114   1.451 -0.1043  0.2618 -1.3482
 6619TIP3    H241273   2.850  -0.012   1.415 -0.4489 -0.0372  0.3412
 6620TIP3   OH241274   0.075   6.627  12.616 -0.3117  0.2485 -0.1854
 6620TIP3    H141275   0.117   6.601  12.534 -1.4545 -2.3298 -0.0527
 6620TIP3    H241276   0.088   6.721  12.621  1.3178  0.2165 -2.4444
 6621TIP3   OH241277   2.028   0.953  16.928  0.0553 -0.2680  0.4254
 6621TIP3    H141278   1.980   0.926  16.850  0.6281 -1.9186  0.6107
 6621TIP3    H241279   2.112   0.909  16.921  1.3104  1.9825  0.4770
 6622TIP3   OH241280   3.645   6.296  17.277  0.9499 -0.1983  0.4604
 6622TIP3    H141281   3.594   6.237  17.222  0.8468  0.2708  0.0488
 6622TIP3    H241282   3.593   6.376  17.282  1.4813  0.1663  0.3015
 6623TIP3   OH241283   0.586   5.660  12.386  0.4798  0.5144 -0.7604
 6623TIP3    H141284   0.592   5.679  12.292  1.7150  1.2507 -0.5554
 6623TIP3    H241285   0.623   5.572  12.394 -0.5619  0.0276 -1.0698
 6624TIP3   OH241286   5.005   5.213  15.150  0.0741  0.0343 -0.2035
 6624TIP3    H141287   5.096   5.244  15.159  0.0222 -0.0389  0.7367
 6624TIP3    H241288   4.975   5.250  15.067  0.4859  1.3000  0.1893
 6625TIP3   OH241289   3.091   4.100   1.585  0.7790  0.1544  0.0739
 6625TIP3    H141290   3.107   4.083   1.492 -0.8079  0.3003 -0.2498
 6625TIP3    H241291   3.082   4.013   1.624 -1.9803  0.0796 -0.5831
 6626TIP3   OH241292   0.048   0.494   3.876  0.2480 -0.1568 -0.0469
 6626TIP3    H141293  -0.030   0.491   3.820 -1.4972 -2.5409  2.2751
 6626TIP3    H241294   0.024   0.553   3.947  1.5664  1.0483 -0.5610
 6627TIP3   OH241295   5.142   5.587   5.513  0.3859  0.2492 -0.0620
 6627TIP3    H141296   5.174   5.575   5.423 -0.8620  3.9751 -1.2089
 6627TIP3    H241297   5.060   5.539   5.515  1.2001 -1.2212 -0.3213
 6628TIP3   OH241298   5.124   5.103   2.540 -0.1289  0.0897 -1.0730
 6628TIP3    H141299   5.076   5.186   2.540 -1.3603 -0.5866 -1.6003
 6628TIP3    H241300   5.129   5.079   2.447  5.2888  2.2946 -1.7240
 6629TIP3   OH241301   0.720   6.760   4.036 -0.3939 -0.3092 -0.0950
 6629TIP3    H141302   0.797   6.789   3.987  0.0865  0.8005  1.2582
 6629TIP3    H241303   0.755   6.718   4.114 -1.1319  0.3002  0.5921
 6630TIP3   OH241304   5.545   6.075   2.227 -0.2793  0.1388  0.0151
 6630TIP3    H141305   5.560   6.045   2.137 -0.9858 -0.1753 -0.0029
 6630TIP3    H241306   5.452   6.058   2.243  0.0243 -0.5708  1.0978
 6631TIP3   OH241307   3.927   3.627   1.265 -0.3651 -0.4989 -0.5590
 6631TIP3    H141308   3.978   3.623   1.184 -1.2549  1.3677 -1.2975
 6631TIP3    H241309   3.836   3.618   1.236 -0.6120 -1.4136  0.4404
 6632TIP3   OH241310   3.448   1.756  16.688  0.5786 -0.7684 -0.6723
 6632TIP3    H141311   3.499   1.696  16.742  1.2211  0.6689  0.3873
 6632TIP3    H241312   3.510   1.784  16.620  0.5960 -0.5507 -0.5676
 6633TIP3   OH241313   2.328   5.496  14.929  0.1252 -0.4862 -0.0192
 6633TIP3    H141314   2.272   5.449  14.991 -2.3103  0.1371 -1.6041
 6633TIP3    H241315   2.320   5.447  14.848  0.5950  0.5264 -0.6942
 6634TIP3   OH241316   0.656   4.050  13.688 -0.2036  0.2809 -0.1447
 6634TIP3    H141317   0.651   3.955  13.699 -0.8933  0.1542 -1.3411
 6634TIP3    H241318   0.678   4.062  13.596 -0.5915  1.2931 -0.1143
 6635TIP3   OH241319   5.917   4.766  16.837  0.1712  0.2604 -0.5227
 6635TIP3    H141320   5.826   4.788  16.857  0.6193  1.1239  0.6861
 6635TIP3    H241321   5.925   4.673  16.859  0.1215  0.6975  1.5714
 6636TIP3   OH241322   0.087   2.638  14.838  0.3559  0.7582 -0.2280
 6636TIP3    H141323   0.134   2.585  14.902 -0.3853  0.1528 -0.1714
 6636TIP3    H241324   0.109   2.599  14.754  0.9414  1.2509 -0.3069
 6637TIP3   OH241325   3.133   1.129  16.907 -0.5078  0.0593  0.1332
 6637TIP3    H141326   3.075   1.097  16.838 -1.7942  1.7145  0.3803
 6637TIP3    H241327   3.221   1.124  16.870 -1.0168 -0.5718 -1.0244
 6638TIP3   OH241328   5.978   0.829  14.302  0.0662 -0.5962  0.3430
 6638TIP3    H141329   5.979   0.753  14.244  0.4978  0.0738 -0.5524
 6638TIP3    H241330   6.050   0.814  14.362  0.7171 -0.4767 -0.3943
 6639TIP3   OH241331   3.715   5.191   0.057 -0.2524 -0.1260  0.0413
 6639TIP3    H141332   3.775   5.255   0.095  1.0966 -1.0259 -0.5191
 6639TIP3    H241333   3.729   5.111   0.106 -0.1587 -0.6618 -0.8290
 6640TIP3   OH241334   2.127   6.007  14.733  0.3932 -0.4322 -0.1855
 6640TIP3    H141335   2.075   6.055  14.668 -0.5469  1.1645  1.6369
 6640TIP3    H241336   2.131   5.918  14.700  0.6550  0.4855 -2.8218
 6641TIP3   OH241337   3.215   0.898  14.181  0.3629 -0.3971  0.4243
 6641TIP3    H141338   3.150   0.906  14.112 -0.3575 -1.2740  0.9670
 6641TIP3    H241339   3.270   0.824  14.154 -0.0474 -0.8746  0.8742
 6642TIP3   OH241340   3.795   1.451  16.040 -0.0733 -0.1295 -0.4364
 6642TIP3    H141341   3.876   1.479  15.998 -0.2399 -0.0609 -0.7158
 6642TIP3    H241342   3.739   1.529  16.039  0.7966  0.6495  2.1646
 6643TIP3   OH241343   6.024   0.491  15.181  0.6295  0.3057 -0.8877
 6643TIP3    H141344   6.087   0.423  15.154  1.3561  0.3999  0.5048
 6643TIP3    H241345   6.064   0.531  15.258 -0.2224  1.7246 -1.1664
 6644TIP3   OH241346   1.226   2.416   6.396 -0.2732  0.4559  0.4005
 6644TIP3    H141347   1.280   2.396   6.319 -2.3093  0.5012 -1.1303
 6644TIP3    H241348   1.255   2.353   6.462 -0.2639 -1.4427 -1.2987
 6645TIP3   OH241349   1.933   1.638  17.201 -0.4379 -0.4897  0.5654
 6645TIP3    H141350   1.838   1.639  17.193 -0.6406 -0.1005  2.5317
 6645TIP3    H241351   1.959   1.552  17.168 -1.4537 -0.5876 -0.0142
 6646TIP3   OH241352   4.190   2.380   3.083 -0.0770  0.1377 -0.2102
 6646TIP3    H141353   4.136   2.425   3.018 -0.2150 -0.4663 -0.5197
 6646TIP3    H241354   4.139   2.386   3.164  1.1635  3.0380  0.4942
 6647TIP3   OH241355   5.992   6.068  15.562 -0.0036  0.3072  0.6668
 6647TIP3    H141356   6.079   6.047  15.595  0.7792  2.6055  0.2733
 6647TIP3    H241357   5.990   6.030  15.474  0.9153  0.8524  0.3940
 6648TIP3   OH241358   3.386   1.450   0.422  0.0149 -0.0987 -0.1537
 6648TIP3    H141359   3.362   1.372   0.372 -1.3518  1.9651 -2.9632
 6648TIP3    H241360   3.463   1.485   0.377  0.0753  0.6605  0.5194
 6649TIP3   OH241361   5.392   5.030  11.562  0.0711 -0.1280 -0.1675
 6649TIP3    H141362   5.414   5.026  11.469 -1.8192  1.3109 -0.7408
 6649TIP3    H241363   5.341   4.951  11.578  1.1011 -0.8043 -0.1097
 6650TIP3   OH241364   4.108   1.750   1.800  0.3572 -0.4633 -0.2837
 6650TIP3    H141365   4.156   1.721   1.723  1.9959  2.3793 -0.4622
 6650TIP3    H241366   4.021   1.772   1.767  1.0959  0.9063 -1.4136
 6651TIP3   OH241367   6.242   1.679  15.433  0.0516  0.1386  0.1836
 6651TIP3    H141368   6.189   1.661  15.511  0.4986  0.9992  0.6932
 6651TIP3    H241369   6.332   1.671  15.462  0.2774  2.3848  0.2688
 6652TIP3   OH241370   2.715   1.954  14.606 -0.3398 -0.2522  0.0190
 6652TIP3    H141371   2.724   1.981  14.515  1.5592 -3.2224 -0.8043
 6652TIP3    H241372   2.705   1.859  14.603 -1.1217 -0.3667  2.8942
 6653TIP3   OH241373   0.888   0.988  15.983 -0.3595 -0.3668  0.4856
 6653TIP3    H141374   0.801   1.018  15.956 -0.5334  0.1131  1.5140
 6653TIP3    H241375   0.936   1.069  16.002  0.2791 -0.6337  0.0253
 6654TIP3   OH241376   6.699   4.274  13.491  0.0850  0.2193  0.2013
 6654TIP3    H141377   6.794   4.262  13.486 -0.0706 -0.5432 -1.4865
 6654TIP3    H241378   6.673   4.222  13.567  0.8797 -0.4850  0.0138
 6655TIP3   OH241379   2.272   3.964  13.722 -0.1145 -0.2767  0.1183
 6655TIP3    H141380   2.350   3.912  13.741  0.6319  0.3264 -1.1663
 6655TIP3    H241381   2.232   3.922  13.646 -0.6057 -0.1250  0.2879
 6656TIP3   OH241382   1.327   0.147   1.014  0.0230 -0.0432 -0.1417
 6656TIP3    H141383   1.390   0.138   1.086  0.0464 -1.5867 -0.3375
 6656TIP3    H241384   1.382   0.162   0.937  0.0656  0.1432 -0.0773
 6657TIP3   OH241385   5.109   6.363   4.974  0.2201 -0.1937  0.1822
 6657TIP3    H141386   5.188   6.396   4.930  0.2282 -0.5934 -0.1103
 6657TIP3    H241387   5.038   6.419   4.941  0.1840 -0.6512 -0.5497
 6658TIP3   OH241388   4.480   3.486   6.764 -0.2707 -0.1961 -0.2625
 6658TIP3    H141389   4.425   3.409   6.747 -0.1842  0.1410 -2.3699
 6658TIP3    H241390   4.439   3.556   6.714  1.0567  0.5014 -0.4285
 6659TIP3   OH241391   1.699   4.028   1.084  0.2236  0.0343 -0.4284
 6659TIP3    H141392   1.619   3.981   1.105 -0.1821  1.1054  0.5317
 6659TIP3    H241393   1.769   3.972   1.115 -0.2342 -0.1090  0.3564
 6660TIP3   OH241394   1.193   1.768   2.347  0.3578  0.0982  0.1362
 6660TIP3    H141395   1.222   1.726   2.266  0.4214  1.0717 -0.3532
 6660TIP3    H241396   1.251   1.844   2.357  0.2661  0.0660  1.0286
 6661TIP3   OH241397   0.945   3.230  13.064 -0.5375  0.5427 -0.2199
 6661TIP3    H141398   0.901   3.309  13.031 -1.8650 -0.3838 -0.7518
 6661TIP3    H241399   0.916   3.161  13.004 -0.7169 -0.6527  1.2115
 6662TIP3   OH241400   1.697   1.691  16.776  0.2372  0.8837 -0.0838
 6662TIP3    H141401   1.699   1.596  16.767 -0.7915  0.8590 -0.1523
 6662TIP3    H241402   1.606   1.715  16.759 -0.2163  1.5918  2.8718
 6663TIP3   OH241403   0.525   2.417  12.889  0.4756  0.0179  0.5714
 6663TIP3    H141404   0.588   2.489  12.887  0.4258  0.0698  0.7838
 6663TIP3    H241405   0.566   2.352  12.946  0.4782 -0.0815  0.4549
 6664TIP3   OH241406   6.343   6.355  11.616  0.0366  0.0744  0.3719
 6664TIP3    H141407   6.432   6.320  11.607  0.7792  1.8804  0.1903
 6664TIP3    H241408   6.296   6.320  11.540  1.3506  1.1825 -1.0045
 6665TIP3   OH241409   5.239   4.541  16.274  0.6014  0.2885  0.6280
 6665TIP3    H141410   5.251   4.570  16.365 -0.8498  1.6241  0.4333
 6665TIP3    H241411   5.293   4.601  16.223  2.1546 -1.0371  0.6275
 6666TIP3   OH241412   3.029   2.952   3.710 -0.3739  0.4530  0.1431
 6666TIP3    H141413   2.979   3.008   3.652 -0.2863 -2.1186 -2.6829
 6666TIP3    H241414   3.114   2.943   3.668  0.6273  0.5253  2.0598
 6667TIP3   OH241415   2.983   1.239  12.885  0.2855 -0.5729  0.3125
 6667TIP3    H141416   2.890   1.256  12.896  0.6635  1.9254  0.2309
 6667TIP3    H241417   3.021   1.253  12.972  0.6464 -1.2884  0.2818
 6668TIP3   OH241418   2.217   0.506  14.171 -0.0450  0.6017 -0.4300
 6668TIP3    H141419   2.140   0.491  14.226 -0.2576 -0.2343 -0.9460
 6668TIP3    H241420   2.186   0.561  14.100  0.4469  2.5368  0.7635
 6669TIP3   OH241421   1.083   1.107  15.293 -0.0450 -0.1619 -0.5343
 6669TIP3    H141422   0.994   1.143  15.300  0.0687  0.3444 -1.4131
 6669TIP3    H241423   1.129   1.143  15.368 -0.2401  0.6654 -0.7901
 6670TIP3   OH241424   0.322   4.639  13.957  0.6218  0.5577  0.8260
 6670TIP3    H141425   0.412   4.638  13.924 -0.7948  1.4868 -3.9183
 6670TIP3    H241426   0.293   4.548  13.949 -0.2597  0.9732 -3.1885
 6671TIP3   OH241427   6.521   2.902   4.563  0.1038  0.0597  0.3396
 6671TIP3    H141428   6.605   2.948   4.564  0.3050 -0.2239 -1.2786
 6671TIP3    H241429   6.458   2.969   4.590  0.4951  1.1408 -1.2391
 6672TIP3   OH241430   1.417   0.427  14.424  0.4285 -0.5068  0.1045
 6672TIP3    H141431   1.358   0.380  14.484 -1.5317 -0.3692 -1.5796
 6672TIP3    H241432   1.488   0.459  14.479 -1.5332  0.0785  2.4523
 6673TIP3   OH241433   1.905   5.858  14.979  0.9238 -0.0686  0.4203
 6673TIP3    H141434   1.990   5.824  15.006  0.3094  0.1060  2.7675
 6673TIP3    H241435   1.842   5.797  15.017 -0.0314 -0.0224 -1.0357
 6674TIP3   OH241436   1.196   0.605   4.856 -0.0699 -0.0487  0.3275
 6674TIP3    H141437   1.261   0.674   4.870 -1.0382  0.7734  0.8406
 6674TIP3    H241438   1.112   0.647   4.870 -0.7665 -0.9718 -0.8349
 6675TIP3   OH241439   1.143   1.957  17.212 -0.5871 -0.0163  0.1701
 6675TIP3    H141440   1.113   1.939  17.301 -0.4661 -0.8003  0.0669
 6675TIP3    H241441   1.135   1.873  17.167 -1.1082  0.4843 -0.6989
 6676TIP3   OH241442   1.337   0.045   2.514  0.3962 -0.3934  0.0206
 6676TIP3    H141443   1.370   0.128   2.548  2.1567 -1.5201  1.2461
 6676TIP3    H241444   1.314   0.064   2.423 -0.3336  1.6746  0.5661
 6677TIP3   OH241445   4.512   4.341   3.008  0.5045 -0.4227  0.2700
 6677TIP3    H141446   4.519   4.274   2.941  1.7470  0.9169 -1.0045
 6677TIP3    H241447   4.598   4.344   3.048  0.8085  1.1224 -0.4325
 6678TIP3   OH241448   5.165   4.915   3.584  0.7310  0.0966 -0.1379
 6678TIP3    H141449   5.242   4.957   3.621  1.5110 -2.6410  1.6698
 6678TIP3    H241450   5.194   4.880   3.501  0.8050  0.8294 -0.4308
 6679TIP3   OH241451   1.469   3.912   1.132 -0.3415  0.2648 -0.5782
 6679TIP3    H141452   1.453   3.956   1.216 -0.1313 -0.0067 -0.3978
 6679TIP3    H241453   1.382   3.904   1.093 -0.2295  2.6460 -1.5271
 6680TIP3   OH241454   5.967   4.752   1.475 -0.6712 -1.0685 -0.4610
 6680TIP3    H141455   5.995   4.745   1.566  0.0983  1.8689 -0.3628
 6680TIP3    H241456   6.044   4.728   1.424 -0.5661 -1.0286 -0.3199
 6681TIP3   OH241457   0.961   6.730   3.473  0.0473  0.8479 -0.1261
 6681TIP3    H141458   0.979   6.814   3.431 -0.3670  0.7953 -0.4116
 6681TIP3    H241459   1.033   6.719   3.535 -0.0571  1.5604  0.1379
 6682TIP3   OH241460   3.941   6.433   0.720  0.2659  0.0030 -0.0842
 6682TIP3    H141461   3.913   6.435   0.811  0.5222  2.1637 -0.0178
 6682TIP3    H241462   3.928   6.342   0.693 -2.5418 -0.0808  1.2452
 6683TIP3   OH241463   5.507   5.441   5.024 -0.0819  0.0977  0.0671
 6683TIP3    H141464   5.577   5.382   4.997  1.2873  1.2981  0.8170
 6683TIP3    H241465   5.518   5.451   5.119  0.5455  2.4553 -0.1763
 6684TIP3   OH241466   3.181   5.088   4.246  0.0298 -0.0422  0.1523
 6684TIP3    H141467   3.251   5.035   4.283 -0.6634 -0.1242  1.3743
 6684TIP3    H241468   3.204   5.097   4.153  0.2857 -2.2451 -0.0310
 6685TIP3   OH241469   2.505   3.054   0.541  0.0775  0.8654  0.5244
 6685TIP3    H141470   2.600   3.047   0.535  0.0184  0.8587 -0.4778
 6685TIP3    H241471   2.473   3.024   0.456 -0.6909  3.1638 -0.0795
 6686TIP3   OH241472   6.273   3.858  14.336 -0.3293  0.1309 -0.1296
 6686TIP3    H141473   6.194   3.843  14.387 -0.7687 -2.4240 -1.3732
 6686TIP3    H241474   6.332   3.787  14.364 -0.0740 -0.4932 -2.0923
 6687TIP3   OH241475   3.611   1.787   2.976  0.3812 -0.2131 -0.1373
 6687TIP3    H141476   3.698   1.755   3.001  0.3166  0.2494  0.7201
 6687TIP3    H241477   3.583   1.728   2.906  0.0469 -2.3920  1.7072
 6688TIP3   OH241478   3.492   0.887  17.062  0.3506 -0.0833 -0.1468
 6688TIP3    H141479   3.529   0.975  17.066  1.9403 -0.7620  2.1222
 6688TIP3    H241480   3.502   0.853  17.151  1.2989 -3.1417 -1.3099
 6689TIP3   OH241481   2.908   4.359  11.137 -0.0431 -0.3863 -0.6902
 6689TIP3    H141482   2.876   4.330  11.052 -0.2695 -0.7817 -0.4722
 6689TIP3    H241483   3.003   4.366  11.125 -0.0183 -0.9214 -0.8372
 6690TIP3   OH241484   6.114   3.193   2.684  0.1078 -0.5856 -0.2661
 6690TIP3    H141485   6.041   3.143   2.719 -0.6847  1.1921  0.7567
 6690TIP3    H241486   6.098   3.198   2.589 -1.5512  0.4468  0.0422
 6691TIP3   OH241487   0.909   2.010   4.123 -0.0105  0.2075 -0.2020
 6691TIP3    H141488   0.857   1.931   4.133  1.4568 -0.8469 -0.5362
 6691TIP3    H241489   0.933   2.011   4.031  0.2158  0.8995 -0.1403
 6692TIP3   OH241490   2.782   2.060   3.032  0.0356 -0.1088  0.4175
 6692TIP3    H141491   2.807   1.975   2.996 -1.9004 -0.5010 -0.1181
 6692TIP3    H241492   2.809   2.123   2.965 -2.9549 -0.7764 -1.6074
 6693TIP3   OH241493   3.439   5.880  16.891 -0.0916 -0.4177  0.1153
 6693TIP3    H141494   3.346   5.877  16.866  0.0691 -0.0188 -0.5299
 6693TIP3    H241495   3.484   5.915  16.815  0.8269 -2.1572 -0.1806
 6694TIP3   OH241496   5.079   6.007   5.700 -0.2433  0.0397  0.3360
 6694TIP3    H141497   5.000   6.058   5.717 -1.0284 -0.8585 -0.5061
 6694TIP3    H241498   5.110   6.039   5.615  1.4427  1.7496  1.4961
 6695TIP3   OH241499   1.913   2.459  14.944  0.5906 -0.4630  0.1138
 6695TIP3    H141500   2.008   2.470  14.953  0.4583  0.5819  0.3196
 6695TIP3    H241501   1.901   2.418  14.858  1.2405 -0.8775  0.2135
 6696TIP3   OH241502   6.038   5.901  13.303 -0.7075  0.0711 -0.4987
 6696TIP3    H141503   6.106   5.965  13.283  0.4857 -1.0239 -0.0915
 6696TIP3    H241504   5.969   5.918  13.240  1.3222 -0.8610 -3.1398
 6697TIP3   OH241505   6.354   3.803  14.656  0.1167  0.1215 -0.1916
 6697TIP3    H141506   6.412   3.728  14.642  0.3991  0.2229  0.4184
 6697TIP3    H241507   6.266   3.769  14.642  0.2516 -0.2917 -0.0474
 6698TIP3   OH241508   0.166   4.201   5.272  0.0715 -0.1183 -0.1692
 6698TIP3    H141509   0.212   4.121   5.294  0.3628 -0.2971 -1.3943
 6698TIP3    H241510   0.079   4.172   5.244 -0.5173  0.1551  1.2658
 6699TIP3   OH241511   3.474   1.424  13.912  0.0032  0.3250 -0.3529
 6699TIP3    H141512   3.464   1.427  13.816  1.5359  1.0188 -0.5097
 6699TIP3    H241513   3.466   1.331  13.933 -2.3390  0.3390 -0.8834
 6700TIP3   OH241514   1.829   1.724   0.612 -0.0361  0.2451  0.1554
 6700TIP3    H141515   1.866   1.776   0.683  0.0812  0.8602 -0.3429
 6700TIP3    H241516   1.880   1.749   0.535 -2.3136  2.2221 -0.8684
 6701TIP3   OH241517   3.708   4.349   4.902  0.4689  0.1451  0.0650
 6701TIP3    H141518   3.665   4.329   4.985  0.3490 -0.5590 -0.1606
 6701TIP3    H241519   3.690   4.442   4.888 -0.0874  0.1085  0.4917
 6702TIP3   OH241520   0.523   4.671   2.488  0.5216  0.1504 -0.4593
 6702TIP3    H141521   0.580   4.610   2.535  2.3868  1.0807 -1.4188
 6702TIP3    H241522   0.541   4.655   2.396 -0.2416  0.9673 -0.7618
 6703TIP3   OH241523   4.870   0.416   0.642 -0.2345 -0.1873  0.2404
 6703TIP3    H141524   4.881   0.490   0.583 -2.5540 -0.5697 -0.7886
 6703TIP3    H241525   4.902   0.340   0.593  1.5683 -0.0097  1.0627
 6704TIP3   OH241526   6.518   6.024   3.572  0.0992  0.2452 -0.1453
 6704TIP3    H141527   6.548   6.052   3.485 -0.7686 -0.4534 -0.6822
 6704TIP3    H241528   6.519   6.104   3.625  0.7467  0.6546 -0.7617
 6705TIP3   OH241529   1.509   5.812   0.812  0.0249  0.2589  0.2440
 6705TIP3    H141530   1.578   5.871   0.783  1.3306 -1.6227 -0.7404
 6705TIP3    H241531   1.472   5.777   0.730 -1.0732  0.1089  0.7824
 6706TIP3   OH241532   6.244   0.451   3.420  0.2819  0.0484  0.1488
 6706TIP3    H141533   6.280   0.372   3.379  2.5750  1.3264 -0.5274
 6706TIP3    H241534   6.150   0.446   3.404  0.7364 -0.8651 -2.9847
 6707TIP3   OH241535   5.532   4.241  15.973 -0.3483 -0.3256  0.3926
 6707TIP3    H141536   5.557   4.295  15.897  1.9719  0.5688  1.7120
 6707TIP3    H241537   5.452   4.282  16.005 -1.0484 -0.3625 -1.1703
 6708TIP3   OH241538   1.154   1.560  15.816 -0.1348 -0.1629  0.0308
 6708TIP3    H141539   1.204   1.641  15.821  0.0949 -0.3733  1.5524
 6708TIP3    H241540   1.161   1.533  15.724  1.8991  0.2404  0.0241
 6709TIP3   OH241541   6.614   5.258   0.198 -0.5740 -0.0017 -0.1710
 6709TIP3    H141542   6.601   5.334   0.255 -0.8547 -1.1310  1.3576
 6709TIP3    H241543   6.702   5.228   0.218 -1.0326 -0.9933  0.4505
 6710TIP3   OH241544   2.711   2.106  14.054 -0.0255  0.2624 -0.0251
 6710TIP3    H141545   2.788   2.054  14.033 -0.6771 -0.1098 -1.5762
 6710TIP3    H241546   2.727   2.136  14.144  1.6188 -0.3251 -0.0832
 6711TIP3   OH241547   2.863   2.626  16.215 -0.1958 -0.1033  0.0828
 6711TIP3    H141548   2.952   2.640  16.248 -0.8994  1.3617  1.4926
 6711TIP3    H241549   2.872   2.555  16.152  1.9511 -0.0787  0.2827
 6712TIP3   OH241550   4.259   6.171  16.040  0.1968 -0.2479  0.6422
 6712TIP3    H141551   4.177   6.215  16.061 -0.6689 -1.3755 -0.2610
 6712TIP3    H241552   4.327   6.235  16.062 -0.9114  0.7051  1.3996
 6713TIP3   OH241553   6.363   6.628  15.561 -0.2725 -0.0107  0.2956
 6713TIP3    H141554   6.436   6.568  15.550  0.1410  0.2692  1.4098
 6713TIP3    H241555   6.310   6.590  15.631 -1.3575 -0.3479 -0.6759
 6714TIP3   OH241556   1.184   3.633  16.705 -0.4925  0.0837  0.0946
 6714TIP3    H141557   1.102   3.584  16.701 -2.0242  2.4262  0.2521
 6714TIP3    H241558   1.156   3.725  16.698  2.1451  0.9611  0.1294
 6715TIP3   OH241559   2.354   6.508   1.348 -0.3993 -0.5122 -0.4667
 6715TIP3    H141560   2.325   6.598   1.364  0.1804 -0.3583 -0.2603
 6715TIP3    H241561   2.274   6.455   1.355 -0.7752  0.0081 -0.7869
 6716TIP3   OH241562   0.737   5.522   2.261 -0.2733 -0.0759  0.1877
 6716TIP3    H141563   0.660   5.469   2.277 -0.8612  0.7010 -0.0216
 6716TIP3    H241564   0.703   5.610   2.244  0.6612  0.3248  0.3069
 6717TIP3   OH241565   4.595   3.453  15.192  0.5269  0.2794  0.3363
 6717TIP3    H141566   4.502   3.433  15.180  0.9275 -0.9975 -0.8377
 6717TIP3    H241567   4.635   3.369  15.212  1.4994  0.7736  0.5237
 6718TIP3   OH241568   4.583   4.931   3.051  0.0534  0.1296  0.0948
 6718TIP3    H141569   4.645   4.858   3.046 -1.4086 -1.1288 -0.6155
 6718TIP3    H241570   4.537   4.929   2.967 -1.7654  0.2468  1.0409
 6719TIP3   OH241571   4.986   5.970  13.586  0.2757  0.0107  0.1191
 6719TIP3    H141572   5.010   5.975  13.494  0.9727 -0.1166  0.2850
 6719TIP3    H241573   4.960   6.060  13.609  1.3579  0.3416  0.1162
 6720TIP3   OH241574   4.732   4.656   3.466  0.0686  0.4454 -0.5426
 6720TIP3    H141575   4.649   4.691   3.496 -0.6701 -1.4640 -0.2159
 6720TIP3    H241576   4.708   4.590   3.401  1.4015  0.7704 -1.4060
 6721TIP3   OH241577   2.095   0.083   2.243 -0.4400 -0.3100  0.4945
 6721TIP3    H141578   2.080   0.008   2.300 -0.7026 -0.2431  0.5141
 6721TIP3    H241579   2.175   0.061   2.195  0.2901  0.0089  1.5216
 6722TIP3   OH241580   4.688   5.389  12.449  0.2055  0.2776 -0.2806
 6722TIP3    H141581   4.673   5.476  12.486  0.5399  0.0817  0.3281
 6722TIP3    H241582   4.764   5.400  12.391 -0.6617  0.7070 -1.3714
 6723TIP3   OH241583   0.043   6.367  17.071 -0.2546  0.1666  0.0124
 6723TIP3    H141584   0.113   6.383  17.009 -0.0802 -1.3514 -0.2309
 6723TIP3    H241585   0.035   6.448  17.122  1.0979  0.6384 -0.5066
 6724TIP3   OH241586   6.083   5.012  13.041 -0.1598 -0.7015 -0.1353
 6724TIP3    H141587   6.093   5.086  13.101 -1.5418 -0.5618 -0.0318
 6724TIP3    H241588   6.014   5.040  12.980 -2.6976 -2.8621  1.5286
 6725TIP3   OH241589   3.781   0.503   0.363  0.3230  0.2487  0.5531
 6725TIP3    H141590   3.761   0.411   0.379 -0.2928  0.3525  0.3926
 6725TIP3    H241591   3.697   0.543   0.342  0.5660  0.8819  0.7647
 6726TIP3   OH241592   2.820   5.520  13.340 -0.2238  0.6773  0.6707
 6726TIP3    H141593   2.807   5.587  13.273 -0.3483 -0.9971 -1.0847
 6726TIP3    H241594   2.909   5.533  13.371  0.3437  0.6724 -0.8546
 6727TIP3   OH241595   4.286   6.123  15.305  0.3160 -0.1880  0.5849
 6727TIP3    H141596   4.212   6.176  15.334 -0.1697  0.0434 -1.0062
 6727TIP3    H241597   4.265   6.034  15.333  0.0876  0.0913  1.3211
 6728TIP3   OH241598   6.090   1.678  16.434 -0.7985 -0.6737 -0.4842
 6728TIP3    H141599   6.096   1.623  16.355 -1.0274 -0.2522 -0.7979
 6728TIP3    H241600   6.138   1.757  16.411  1.1342 -1.4702  0.6176
 6729TIP3   OH241601   5.529   5.146   2.592 -0.3870  0.5346  0.8796
 6729TIP3    H141602   5.490   5.213   2.535  0.5741 -0.3953 -0.9779
 6729TIP3    H241603   5.623   5.151   2.573 -0.2397 -0.9385  1.1201
 6730TIP3   OH241604   6.018   6.229  14.688 -0.3524 -0.1936 -0.4485
 6730TIP3    H141605   5.933   6.269  14.668 -0.3473 -0.1445 -0.3736
 6730TIP3    H241606   6.078   6.303  14.699 -0.5019 -0.1828  0.4037
 6731TIP3   OH241607   1.333   5.818  16.431 -0.3825 -0.1498 -0.4443
 6731TIP3    H141608   1.379   5.764  16.494 -1.7774  0.2315  0.9782
 6731TIP3    H241609   1.396   5.885  16.404  0.2243 -0.2908  0.6020
 6732TIP3   OH241610   0.820   1.081   4.079  0.2821  0.4309  0.0171
 6732TIP3    H141611   0.895   1.135   4.052  0.5640 -0.9012 -2.0837
 6732TIP3    H241612   0.805   1.022   4.005 -2.4074  0.1561  0.6811
 6733TIP3   OH241613   2.966   1.151   0.736  0.5248 -0.4521 -0.5523
 6733TIP3    H141614   3.038   1.096   0.765  1.2253  0.9114  0.4233
 6733TIP3    H241615   2.950   1.125   0.646  2.2428 -0.7747 -0.7928
 6734TIP3   OH241616   2.862   6.297   5.235 -0.0508 -0.5860  0.3763
 6734TIP3    H141617   2.786   6.255   5.275  0.7151 -1.4434  0.9629
 6734TIP3    H241618   2.833   6.386   5.216 -1.2413 -0.9431  0.4628
 6735TIP3   OH241619   5.724   0.713   5.682 -0.4276 -0.0218 -0.1718
 6735TIP3    H141620   5.704   0.652   5.753 -1.1597  0.2228 -0.1648
 6735TIP3    H241621   5.705   0.800   5.718  2.5361  0.4654  0.5399
 6736TIP3   OH241622   5.263   3.514  16.654 -0.1525  0.2079 -0.0590
 6736TIP3    H141623   5.293   3.424  16.650 -1.3113 -0.1907 -0.1953
 6736TIP3    H241624   5.220   3.529  16.569 -3.6437 -0.5098  1.4028
 6737TIP3   OH241625   3.092   6.283  13.730  0.4348  0.2399  0.7720
 6737TIP3    H141626   3.175   6.276  13.682 -0.0305  1.2280 -0.2069
 6737TIP3    H241627   3.047   6.357  13.690 -1.7243 -1.3708  0.0319
 6738TIP3   OH241628   1.764   5.145  11.260 -0.0779 -0.6799  0.3271
 6738TIP3    H141629   1.723   5.224  11.295 -1.9621 -2.0197  1.3477
 6738TIP3    H241630   1.725   5.135  11.172  1.2147  0.2373 -0.3745
 6739TIP3   OH241631   4.452   2.240  12.723  0.3629 -0.5158 -0.0007
 6739TIP3    H141632   4.457   2.175  12.794  0.7989 -1.7579 -1.1224
 6739TIP3    H241633   4.476   2.323  12.765 -0.2334 -1.0543  1.4857
 6740TIP3   OH241634   6.673   2.126  12.118  0.4576 -0.1816 -0.1399
 6740TIP3    H141635   6.640   2.075  12.192  1.1897 -0.9869 -0.3423
 6740TIP3    H241636   6.708   2.206  12.157 -0.2061 -0.0835  0.2516
 6741TIP3   OH241637   5.004   2.963   4.884  0.5633 -0.2234 -0.4358
 6741TIP3    H141638   4.922   2.980   4.931  0.3871 -0.1138 -0.7822
 6741TIP3    H241639   5.014   3.037   4.825  1.4838  0.3223  0.3673
 6742TIP3   OH241640   5.695   3.061  16.300  0.2112 -0.0605  0.5590
 6742TIP3    H141641   5.690   3.033  16.209 -0.5085  0.8864  0.2882
 6742TIP3    H241642   5.681   3.156  16.297  1.4210  0.1888  1.5425
 6743TIP3   OH241643   4.086   1.604  15.380 -0.0025 -0.5450 -0.4279
 6743TIP3    H141644   4.000   1.624  15.416 -0.7541 -0.7575 -2.0262
 6743TIP3    H241645   4.137   1.575  15.456 -1.7055 -1.6361  0.3641
 6744TIP3   OH241646   1.264   5.209  16.733 -0.1272  0.0277 -0.2448
 6744TIP3    H141647   1.264   5.280  16.797  0.3085 -0.1703 -0.0245
 6744TIP3    H241648   1.190   5.154  16.758 -0.3928  0.3346 -0.3435
 6745TIP3   OH241649   3.937   1.342   5.530  0.5395 -0.3655 -0.1201
 6745TIP3    H141650   3.848   1.309   5.515  1.3141 -2.4368 -0.4070
 6745TIP3    H241651   3.959   1.390   5.450 -0.0570 -0.4194 -0.3186
 6746TIP3   OH241652   5.009   2.838  13.447 -0.0362  0.1054  0.2994
 6746TIP3    H141653   5.097   2.839  13.485  0.2200  0.0076 -0.2926
 6746TIP3    H241654   4.988   2.930  13.434  0.8255  0.0866 -1.4922
 6747TIP3   OH241655   5.650   5.020   5.162  0.3962 -0.3794 -0.0562
 6747TIP3    H141656   5.679   5.061   5.243  1.0633 -0.4564 -0.2552
 6747TIP3    H241657   5.558   4.998   5.178  0.6129 -0.6912  0.7994
 6748TIP3   OH241658   6.042   3.300   5.571 -0.2087 -0.0123  0.7822
 6748TIP3    H141659   6.025   3.332   5.660  0.7153  2.4954  0.1433
 6748TIP3    H241660   5.970   3.334   5.519 -0.6109 -1.2568  0.5043
 6749TIP3   OH241661   4.632   2.703   1.160 -0.6660 -0.2057 -0.5023
 6749TIP3    H141662   4.559   2.762   1.181 -0.2194  1.0475 -2.2391
 6749TIP3    H241663   4.707   2.762   1.147  0.0594 -1.2580 -1.1890
 6750TIP3   OH241664   3.357   3.744   3.623  0.3715 -0.0284  0.1626
 6750TIP3    H141665   3.413   3.749   3.700 -1.4341 -0.0326  1.5526
 6750TIP3    H241666   3.389   3.668   3.575  1.9074  0.3194  0.5709
 6751TIP3   OH241667   6.667   5.157   1.998  0.7365 -0.5203  0.0024
 6751TIP3    H141668   6.721   5.093   1.951  1.9684  1.0140 -0.7758
 6751TIP3    H241669   6.699   5.242   1.967 -1.8968  0.4761 -0.2074
 6752TIP3   OH241670   0.200   2.279  11.149 -0.1707 -0.3894 -0.2933
 6752TIP3    H141671   0.165   2.296  11.062  0.0852  0.1426 -0.2982
 6752TIP3    H241672   0.197   2.184  11.158 -0.6462 -0.4144 -0.6924
 6753TIP3   OH241673   2.106   1.723  16.138  0.3491 -0.0396 -0.5184
 6753TIP3    H141674   2.130   1.801  16.188  1.3082  0.7661 -2.1682
 6753TIP3    H241675   2.095   1.754  16.048 -1.1251 -1.4768 -0.8949
 6754TIP3   OH241676   3.761   5.024  17.243  0.2736  0.6746  0.0166
 6754TIP3    H141677   3.756   5.114  17.275  1.4740  1.1043 -0.9532
 6754TIP3    H241678   3.846   4.992  17.273  0.3146  0.2288 -0.5534
 6755TIP3   OH241679   1.334   2.145  16.717 -0.5685  0.0880  0.0453
 6755TIP3    H141680   1.294   2.100  16.642  0.1626  0.8017 -0.7884
 6755TIP3    H241681   1.261   2.186  16.762 -0.8495  0.9833 -1.1900
 6756TIP3   OH241682   5.524   4.564   3.514 -0.5257  0.1130  0.3424
 6756TIP3    H141683   5.610   4.596   3.486 -0.8392  0.5307 -0.1502
 6756TIP3    H241684   5.479   4.541   3.433 -0.3942 -1.3841  0.6713
 6757TIP3   OH241685   5.562   6.636  12.984 -0.2389  0.9500 -0.6221
 6757TIP3    H141686   5.534   6.553  12.946 -0.3996 -0.5585  2.5141
 6757TIP3    H241687   5.654   6.621  13.008 -0.6891  1.0760  1.3330
 6758TIP3   OH241688   2.195   1.635  10.733  0.4016 -0.1054 -0.2530
 6758TIP3    H141689   2.134   1.708  10.744  1.5250  1.5944 -3.7427
 6758TIP3    H241690   2.145   1.558  10.761 -2.8670  1.3572 -1.4964
 6759TIP3   OH241691   0.891   0.542   5.198 -0.2681  0.2535 -0.3165
 6759TIP3    H141692   0.833   0.583   5.262 -0.3538 -0.0822 -0.1749
 6759TIP3    H241693   0.870   0.449   5.204  1.3636 -0.0763  0.8409
 6760TIP3   OH241694   0.850   0.470   5.815 -0.4751 -0.1059  0.0974
 6760TIP3    H141695   0.833   0.481   5.722 -2.2992 -0.1201  0.4050
 6760TIP3    H241696   0.787   0.528   5.859  0.0130 -0.4711  1.3465
 6761TIP3   OH241697   2.051   1.077  14.008 -0.1525  0.2510 -0.0738
 6761TIP3    H141698   2.039   1.131  13.930  1.3338  1.8584  0.7274
 6761TIP3    H241699   2.143   1.051  14.006 -0.3540 -0.5731  0.6041
 6762TIP3   OH241700   6.311   4.806  11.212  0.6567  0.0918 -0.4491
 6762TIP3    H141701   6.269   4.884  11.178 -2.2398 -0.7009  1.0519
 6762TIP3    H241702   6.281   4.735  11.155 -1.0617 -0.6476  1.2684
 6763TIP3   OH241703   1.159   0.528   3.512 -0.5185 -0.0701 -0.0384
 6763TIP3    H141704   1.140   0.622   3.511  2.1767  0.5468 -1.1842
 6763TIP3    H241705   1.091   0.491   3.569 -2.2544  2.4005 -0.3293
 6764TIP3   OH241706   3.709   2.718   3.997  0.0313 -0.0108  0.1375
 6764TIP3    H141707   3.802   2.727   4.018  0.0993  0.4449 -0.3152
 6764TIP3    H241708   3.692   2.792   3.939 -0.9129  0.6444  1.2239
 6765TIP3   OH241709   3.428   5.006   2.341  0.2229 -0.3030  0.3979
 6765TIP3    H141710   3.511   4.959   2.340  0.7937  0.6325  1.6092
 6765TIP3    H241711   3.382   4.974   2.419 -0.0310  0.0682  0.4056
 6766TIP3   OH241712   2.878   0.182   3.744 -0.7170 -0.0981 -0.2609
 6766TIP3    H141713   2.886   0.120   3.672 -2.3040  0.2826 -0.7898
 6766TIP3    H241714   2.784   0.196   3.755 -0.4215  2.4861 -0.4058
 6767TIP3   OH241715   6.546   0.758  16.087  0.3775 -0.0735 -0.2885
 6767TIP3    H141716   6.630   0.804  16.089  0.6520 -0.5594 -0.4973
 6767TIP3    H241717   6.500   0.796  16.012  0.7678 -0.4208 -0.7077
 6768TIP3   OH241718   1.829   6.029  10.588  0.3657 -0.1074 -0.2668
 6768TIP3    H141719   1.915   6.066  10.568  0.8784 -1.4942 -0.7418
 6768TIP3    H241720   1.845   5.935  10.600 -1.3427 -0.7339 -2.2445
 6769TIP3   OH241721   1.953   0.590  13.569  0.2260 -0.0587 -0.0160
 6769TIP3    H141722   1.918   0.628  13.650 -2.4352 -0.9402 -0.6494
 6769TIP3    H241723   1.893   0.620  13.501  0.9601 -1.3666 -1.2829
 6770TIP3   OH241724   1.320   3.131  17.203  0.1553  0.6705  0.0125
 6770TIP3    H141725   1.290   3.215  17.237 -0.1011  1.0084 -1.0245
 6770TIP3    H241726   1.326   3.143  17.109  2.3051  0.2252  0.0396
 6771TIP3   OH241727   5.142   0.932  16.668  0.8701 -0.4377  0.1533
 6771TIP3    H141728   5.081   0.892  16.730  1.3225 -1.9355 -0.3181
 6771TIP3    H241729   5.116   0.897  16.583 -0.7876  2.8305 -0.8383
 6772TIP3   OH241730   3.809   1.699  11.482 -0.8502 -0.2382 -0.1667
 6772TIP3    H141731   3.827   1.793  11.481 -0.8768 -0.1266 -3.8041
 6772TIP3    H241732   3.862   1.665  11.554  0.8466  2.2820 -0.1021
 6773TIP3   OH241733   3.022   3.406  11.959 -0.4168 -0.0491  0.5084
 6773TIP3    H141734   3.067   3.490  11.962 -0.0174 -0.0869 -2.1313
 6773TIP3    H241735   2.938   3.423  12.002 -0.1679  1.5873  0.4323
 6774TIP3   OH241736   0.309   0.058   0.855 -0.2252  0.2137 -0.2974
 6774TIP3    H141737   0.273  -0.019   0.898 -1.0853  0.6628 -0.2025
 6774TIP3    H241738   0.402   0.038   0.843 -0.6064 -1.2166 -1.1011
 6775TIP3   OH241739   2.497   5.059   4.195 -0.3908 -0.0561 -0.3169
 6775TIP3    H141740   2.500   5.053   4.291  1.9797  0.7802 -0.2650
 6775TIP3    H241741   2.414   5.104   4.177 -0.3318  0.8819  1.4434
 6776TIP3   OH241742   1.165   5.421   1.457  0.1172  0.0132  0.0246
 6776TIP3    H141743   1.103   5.395   1.389 -0.7950  0.8273  0.5258
 6776TIP3    H241744   1.210   5.340   1.480  0.4633 -0.2759 -1.5479
 6777TIP3   OH241745   0.461   3.655  12.678 -0.2191 -0.2486  0.3545
 6777TIP3    H141746   0.382   3.693  12.716 -0.4666 -0.6757  0.2693
 6777TIP3    H241747   0.531   3.682  12.738 -0.5060 -0.3236  0.7279
 6778TIP3   OH241748   2.940   3.793   2.935 -0.2959  0.5151 -0.0847
 6778TIP3    H141749   3.032   3.787   2.961  0.1139  0.0608 -1.5476
 6778TIP3    H241750   2.928   3.884   2.911 -0.1646  0.5349 -0.0787
 6779TIP3   OH241751   2.212   6.562   5.080  0.0219 -0.2657  0.1180
 6779TIP3    H141752   2.117   6.570   5.087  0.1337  0.5585  0.8042
 6779TIP3    H241753   2.237   6.622   5.010 -0.0759 -1.3722 -0.8918
 6780TIP3   OH241754   2.056   1.630   0.938  0.3190 -0.2702  0.4953
 6780TIP3    H141755   2.043   1.713   0.893  0.4948 -0.4275  0.1497
 6780TIP3    H241756   1.968   1.604   0.966 -0.0627 -0.9967 -1.2285
 6781TIP3   OH241757   2.185   1.952  11.951  0.0809  0.0116 -0.2708
 6781TIP3    H141758   2.225   1.879  11.904 -0.6123 -0.7693  0.3185
 6781TIP3    H241759   2.122   1.910  12.010  1.4562  0.8901  1.9134
 6782TIP3   OH241760   0.214   5.247  10.975 -0.3787  0.5911  0.3986
 6782TIP3    H141761   0.295   5.201  10.951  0.1141  0.8570  1.4733
 6782TIP3    H241762   0.146   5.206  10.923  0.4601  0.3944 -0.5686
 6783TIP3   OH241763   4.888   0.754  10.920 -0.6310 -0.3792 -0.2085
 6783TIP3    H141764   4.866   0.661  10.929 -1.0376 -0.1754  1.3543
 6783TIP3    H241765   4.806   0.796  10.893 -0.6437 -0.3818 -0.1747
 6784TIP3   OH241766   3.054   0.784   2.836 -0.1591  0.3206  0.0062
 6784TIP3    H141767   3.095   0.736   2.908 -0.8770  0.7535  0.7296
 6784TIP3    H241768   3.039   0.872   2.872  1.1947  1.1328 -1.3089
 6785TIP3   OH241769   1.897   0.702   1.000 -0.6041  0.2055 -0.1795
 6785TIP3    H141770   1.843   0.624   0.984 -0.4799 -0.0925  0.7977
 6785TIP3    H241771   1.978   0.685   0.951 -0.5055 -0.3623  0.1753
 6786TIP3   OH241772   1.991   1.306   0.071 -0.4224  0.5236 -0.3841
 6786TIP3    H141773   1.954   1.257   0.145  1.2180  0.5597  0.5188
 6786TIP3    H241774   1.992   1.244  -0.001 -1.5031  0.3016 -0.2256
 6787TIP3   OH241775   3.836   3.658  12.995 -0.5723 -0.4931 -0.1140
 6787TIP3    H141776   3.766   3.671  13.058 -2.4664  1.2349 -2.4161
 6787TIP3    H241777   3.869   3.746  12.976  0.0814 -0.9863 -1.3835
 6788TIP3   OH241778   4.833   0.348   0.235 -0.5586  0.0271 -0.3212
 6788TIP3    H141779   4.782   0.274   0.203 -0.2057  0.0633 -0.9950
 6788TIP3    H241780   4.886   0.313   0.306 -1.5409 -0.0011  0.4258
 6789TIP3   OH241781   3.232   5.828   0.240  0.2645  0.2773 -0.0406
 6789TIP3    H141782   3.225   5.895   0.308  2.6397  0.7310 -0.1402
 6789TIP3    H241783   3.272   5.753   0.285 -2.5910 -1.2954  0.1394
 6790TIP3   OH241784   4.077   0.159   5.512 -0.2359 -0.0628  0.1028
 6790TIP3    H141785   4.148   0.201   5.464 -0.1746 -0.0354  0.2165
 6790TIP3    H241786   4.119   0.123   5.590 -0.6424  1.5742  1.1328
 6791TIP3   OH241787   5.605   4.812  15.090  0.0557 -0.5028  0.1707
 6791TIP3    H141788   5.555   4.750  15.037 -1.4550  0.8339 -0.0500
 6791TIP3    H241789   5.641   4.759  15.161 -0.6944 -1.7286 -0.3340
 6792TIP3   OH241790   3.218   5.893   2.161  0.0048 -0.3501 -0.1860
 6792TIP3    H141791   3.161   5.965   2.133  0.1569 -0.5071 -0.9156
 6792TIP3    H241792   3.248   5.853   2.079  2.2221  0.5573  0.0935
 6793TIP3   OH241793   0.608   2.041  12.286 -0.7563 -0.3253  0.3271
 6793TIP3    H141794   0.702   2.023  12.290 -0.8196 -1.0256 -0.8544
 6793TIP3    H241795   0.574   2.009  12.369  0.0228 -0.2206  0.6972
 6794TIP3   OH241796   6.578   1.616  15.996 -0.0529 -0.2008  0.8020
 6794TIP3    H141797   6.673   1.619  15.984 -0.2307 -0.4891 -0.9145
 6794TIP3    H241798   6.567   1.573  16.081  1.3414 -0.9484  0.6432
 6795TIP3   OH241799   0.489   4.521   0.688  0.2756 -0.4652 -0.2504
 6795TIP3    H141800   0.471   4.585   0.757 -0.2735 -1.3046  0.4266
 6795TIP3    H241801   0.436   4.445   0.713  1.5263 -1.4817 -0.5743
 6796TIP3   OH241802   1.069   3.851   2.996 -0.0116 -0.5307 -0.3042
 6796TIP3    H141803   1.025   3.923   3.042  1.9609 -0.1982  1.1802
 6796TIP3    H241804   1.048   3.866   2.904 -1.1021  0.9177  0.1334
 6797TIP3   OH241805   4.687   3.083   0.115 -0.4618 -0.1921 -0.3484
 6797TIP3    H141806   4.746   3.158   0.107 -1.6237  1.2422  3.0326
 6797TIP3    H241807   4.735   3.020   0.169 -1.1113  0.0159  0.4944
 6798TIP3   OH241808   2.089   3.878  11.582  0.6171 -0.3367  0.5499
 6798TIP3    H141809   2.091   3.877  11.486 -1.2973 -0.0105  0.4637
 6798TIP3    H241810   2.147   3.950  11.607  2.3893 -1.4227 -0.2655
 6799TIP3   OH241811   2.201   2.542   2.051  0.0639  0.2190 -0.3194
 6799TIP3    H141812   2.178   2.635   2.041  1.1608  0.7876  1.7554
 6799TIP3    H241813   2.135   2.508   2.111 -1.3633 -0.8566 -2.3898
 6800TIP3   OH241814   4.518   4.385   6.853 -0.2300 -0.2288  0.1691
 6800TIP3    H141815   4.423   4.381   6.862 -0.2714  0.4165  0.0270
 6800TIP3    H241816   4.539   4.313   6.793 -0.7413  0.2854 -0.6530
 6801TIP3   OH241817   5.762   5.370   2.923 -0.3881 -0.1137 -0.1140
 6801TIP3    H141818   5.730   5.280   2.936 -1.6739  0.3899  0.3387
 6801TIP3    H241819   5.713   5.422   2.985 -0.1333  1.0246 -0.8363
 6802TIP3   OH241820   5.032   5.221  13.965 -0.0765  0.2358 -0.7385
 6802TIP3    H141821   5.117   5.257  13.988  0.9754 -1.7009 -1.4192
 6802TIP3    H241822   5.044   5.185  13.877 -1.3442 -0.8631 -0.4925
 6803TIP3   OH241823   6.770   1.668   1.827 -0.8946 -0.5947  0.3362
 6803TIP3    H141824   6.816   1.584   1.830 -0.3422 -0.3509 -0.7197
 6803TIP3    H241825   6.790   1.710   1.911  1.8238 -0.0124 -0.5036
 6804TIP3   OH241826   5.903   1.441   0.870 -0.4449 -0.1737 -0.3340
 6804TIP3    H141827   5.840   1.512   0.884  0.6867  1.1378 -1.5630
 6804TIP3    H241828   5.869   1.394   0.794 -0.7633 -0.4280 -0.0327
 6805TIP3   OH241829   0.300   0.569   0.137  0.4040 -0.0244  0.1157
 6805TIP3    H141830   0.232   0.627   0.170  0.2971 -0.8911  1.4634
 6805TIP3    H241831   0.252   0.496   0.098  0.5340  0.8261 -1.7449
 6806TIP3   OH241832   3.191   3.652   2.622  0.7091  0.3179  0.0447
 6806TIP3    H141833   3.197   3.716   2.551 -0.6331  1.2677  0.7167
 6806TIP3    H241834   3.111   3.603   2.603  2.0963 -1.7112 -0.8395
 6807TIP3   OH241835   1.290   0.458  15.391 -0.1326 -0.0523 -0.5301
 6807TIP3    H141836   1.214   0.492  15.439  0.8264  0.9597  0.3497
 6807TIP3    H241837   1.312   0.376  15.436  0.0673  0.3127  0.0507
 6808TIP3   OH241838   0.094   2.305  10.887  0.0950  0.0383  0.2470
 6808TIP3    H141839  -0.001   2.306  10.899 -0.1660  3.0673 -1.2641
 6808TIP3    H241840   0.112   2.376  10.825  3.4193  0.0034  0.9706
 6809TIP3   OH241841   4.968   3.885  11.226  0.0705  0.0110 -0.5742
 6809TIP3    H141842   4.994   3.976  11.239 -0.6543  0.2592 -0.8124
 6809TIP3    H241843   5.049   3.835  11.239  1.1381  0.8784 -3.1689
 6810TIP3   OH241844   6.027   0.036  15.037  0.0482 -0.5119  0.1932
 6810TIP3    H141845   6.113   0.041  14.997  0.1901  2.8197  0.6279
 6810TIP3    H241846   5.981   0.115  15.006 -3.4383 -2.8276 -1.1794
 6811TIP3   OH241847   4.544   2.064   4.286 -0.3997 -0.1477  0.2342
 6811TIP3    H141848   4.522   1.999   4.219 -1.2141 -0.5434  0.8637
 6811TIP3    H241849   4.592   2.132   4.239 -2.9855  0.7961 -1.2910
 6812TIP3   OH241850   3.413   5.521  15.121  0.0667  0.1936 -0.0447
 6812TIP3    H141851   3.475   5.457  15.154  1.6994  2.0849  0.8005
 6812TIP3    H241852   3.415   5.511  15.026  1.0660 -0.3235  0.0289
 6813TIP3   OH241853   0.150   4.280  16.130  0.0484 -0.0816 -0.1539
 6813TIP3    H141854   0.120   4.315  16.046  2.9091  1.9312 -0.5026
 6813TIP3    H241855   0.215   4.343  16.160  1.0958 -2.1278  2.2702
 6814TIP3   OH241856   6.074   5.514  11.047 -0.0455  0.8100  0.8187
 6814TIP3    H141857   6.114   5.450  10.988  0.3251  0.2453  1.6532
 6814TIP3    H241858   6.140   5.530  11.114 -0.0972  2.1585  0.5772
 6815TIP3   OH241859   0.261   5.228   2.080  0.5162  0.1585  0.3136
 6815TIP3    H141860   0.347   5.208   2.044  0.6081 -0.8362  1.0611
 6815TIP3    H241861   0.247   5.163   2.148 -1.0363 -0.0059 -0.1219
 6816TIP3   OH241862   0.858   2.630   6.222  0.0508  0.2494 -0.0557
 6816TIP3    H141863   0.890   2.673   6.301  0.3352  1.1335 -0.6448
 6816TIP3    H241864   0.821   2.547   6.254  0.7662  0.2864  0.9160
 6817TIP3   OH241865   0.043   6.470  15.873  0.3981  0.2717  0.1201
 6817TIP3    H141866   0.082   6.396  15.827 -1.2793 -2.4208  2.6431
 6817TIP3    H241867   0.077   6.463  15.962 -1.8737  0.8013  1.1003
 6818TIP3   OH241868   3.716   4.248  14.958  0.0742 -0.1646  0.0063
 6818TIP3    H141869   3.743   4.313  15.024  1.5748  0.1199 -0.8322
 6818TIP3    H241870   3.648   4.196  15.002 -0.8218  1.6357  0.8800
 6819TIP3   OH241871   1.829   4.497  15.039 -0.3692 -0.4395  0.4961
 6819TIP3    H141872   1.744   4.518  15.001 -0.3297  0.4175  0.8529
 6819TIP3    H241873   1.890   4.501  14.965 -0.6800 -1.4471  0.1619
 6820TIP3   OH241874   3.993   0.300  16.091 -0.3479  0.1063  0.2296
 6820TIP3    H141875   3.983   0.360  16.166  0.2036 -0.4112  0.7262
 6820TIP3    H241876   3.938   0.339  16.023 -1.1215  0.4205  1.0046
 6821TIP3   OH241877   5.853   5.965   2.227  0.3600 -0.3331  0.1069
 6821TIP3    H141878   5.937   6.011   2.230 -0.4792  1.3656 -1.1694
 6821TIP3    H241879   5.795   6.015   2.284  0.6860 -2.7727  2.8533
 6822TIP3   OH241880   0.053   3.529   1.982 -0.7981  0.5207 -0.3210
 6822TIP3    H141881   0.130   3.585   1.991 -0.7941  0.3830  0.6085
 6822TIP3    H241882   0.022   3.545   1.893  1.2193 -0.6070 -1.3057
 6823TIP3   OH241883   4.549   5.279  13.079 -0.3816 -0.0049 -0.3992
 6823TIP3    H141884   4.529   5.187  13.095  0.1274 -0.5070 -2.3651
 6823TIP3    H241885   4.565   5.284  12.984 -1.2672  2.2721 -0.4811
 6824TIP3   OH241886   3.027   4.848  16.920  0.5336  0.2634  0.1717
 6824TIP3    H141887   2.961   4.897  16.969  0.7301  0.1588  0.5407
 6824TIP3    H241888   3.068   4.791  16.985  1.7537  1.1201  0.2023
 6825TIP3   OH241889   3.996   0.087  14.686  0.3761 -0.2774 -0.5854
 6825TIP3    H141890   3.916   0.136  14.666  1.0964  0.2095 -2.4585
 6825TIP3    H241891   4.055   0.152  14.725 -0.2795 -0.7544  1.2984
 6826TIP3   OH241892   0.456   2.227   4.106 -0.0356 -0.2344 -0.0751
 6826TIP3    H141893   0.517   2.274   4.163 -0.7349  2.1685 -1.1920
 6826TIP3    H241894   0.411   2.166   4.164  1.3894 -0.0140  1.3308
 6827TIP3   OH241895   6.383   2.325  10.440 -0.1572 -0.4633  0.4553
 6827TIP3    H141896   6.470   2.315  10.477  0.3017 -2.1014 -0.9487
 6827TIP3    H241897   6.356   2.414  10.465  1.7485 -0.0649  1.2205
 6828TIP3   OH241898   1.528   5.745  15.452  0.1650  0.6079  0.1197
 6828TIP3    H141899   1.552   5.838  15.443 -2.7476  1.8254  2.9606
 6828TIP3    H241900   1.462   5.732  15.384  0.0567  0.8447  0.1765
 6829TIP3   OH241901   4.606   1.678   0.470 -0.0436 -0.2074 -0.0217
 6829TIP3    H141902   4.639   1.702   0.557 -0.7789  0.2446  0.1441
 6829TIP3    H241903   4.684   1.674   0.415  0.4128 -0.3643  0.6333
 6830TIP3   OH241904   3.526   5.180  14.309  0.5522  0.0261 -0.5055
 6830TIP3    H141905   3.530   5.138  14.395 -1.2484  0.1898 -0.2937
 6830TIP3    H241906   3.617   5.200  14.287  1.0267  0.2126  1.4759
 6831TIP3   OH241907   0.287   4.933  13.118  0.2991  0.1384 -0.3707
 6831TIP3    H141908   0.276   5.004  13.182 -1.3980 -1.1898  0.9155
 6831TIP3    H241909   0.218   4.871  13.139 -0.3522 -0.3887 -3.5799
 6832TIP3   OH241910   5.823   5.066  11.547 -0.1975 -0.3471 -0.4017
 6832TIP3    H141911   5.800   5.004  11.478  0.1479  0.0133 -0.8445
 6832TIP3    H241912   5.759   5.048  11.616 -1.1962 -0.0455 -1.2091
 6833TIP3   OH241913   4.746   0.633   3.768 -0.0010 -0.2173 -0.3491
 6833TIP3    H141914   4.665   0.680   3.750  0.5955  0.6009 -0.9527
 6833TIP3    H241915   4.816   0.693   3.741  0.7950 -1.2559 -0.6874
 6834TIP3   OH241916   1.688   6.610  16.134  0.2077 -0.0490  0.4732
 6834TIP3    H141917   1.755   6.555  16.173  0.6188  0.3917  0.3902
 6834TIP3    H241918   1.606   6.563  16.151  0.4675 -0.2856  1.1035
 6835TIP3   OH241919   5.078   2.305   5.973  0.8892 -0.2758  0.2697
 6835TIP3    H141920   5.091   2.281   6.064  1.2299  0.2192  0.3530
 6835TIP3    H241921   5.096   2.399   5.969 -2.7761  0.6055  0.4478
 6836TIP3   OH241922   5.874   0.796   2.148  0.2290  0.2812 -0.1518
 6836TIP3    H141923   5.850   0.857   2.078 -0.7214 -0.7770 -0.7892
 6836TIP3    H241924   5.927   0.730   2.105 -0.2232 -0.2874  0.1517
 6837TIP3   OH241925   6.034   4.300   5.381 -0.3723  0.3257 -0.3845
 6837TIP3    H141926   6.024   4.255   5.465  1.8132 -2.2179 -1.3025
 6837TIP3    H241927   6.095   4.371   5.399 -1.7714  1.3262  0.5875
 6838TIP3   OH241928   6.282   3.716   6.209 -0.1378 -0.0016 -0.0326
 6838TIP3    H141929   6.257   3.652   6.275 -0.4632 -3.4356 -3.1472
 6838TIP3    H241930   6.200   3.737   6.164  0.5771 -0.9384 -1.8612
 6839TIP3   OH241931   3.784   6.233   4.905  0.1735  0.5035  0.2571
 6839TIP3    H141932   3.709   6.201   4.855  0.4346  1.6662 -0.9234
 6839TIP3    H241933   3.762   6.213   4.996  0.1087 -2.5700 -0.3205
 6840TIP3   OH241934   0.117   2.061   0.401  0.2901 -0.2570 -0.1783
 6840TIP3    H141935   0.154   2.051   0.489  0.2452 -0.6931 -0.2102
 6840TIP3    H241936   0.079   2.149   0.401  0.9675  0.0428 -0.0091
 6841TIP3   OH241937   2.592   3.188  14.512  0.1875  0.3740 -0.6384
 6841TIP3    H141938   2.521   3.190  14.447 -0.0784  1.1142 -0.3331
 6841TIP3    H241939   2.597   3.096  14.540 -2.2285  0.6754  1.0593
 6842TIP3   OH241940   1.442   1.477  13.885  0.3431 -0.0318  0.3313
 6842TIP3    H141941   1.420   1.500  13.976  0.0251 -0.4083  0.3536
 6842TIP3    H241942   1.535   1.452  13.889  0.5294  0.6437  0.4140
 6843TIP3   OH241943   5.888   4.107  16.680 -0.0557  0.0274  0.3396
 6843TIP3    H141944   5.795   4.118  16.701 -0.4492 -1.8035 -0.2583
 6843TIP3    H241945   5.901   4.012  16.676  1.5670  0.2499 -0.7600
 6844TIP3   OH241946   0.949   5.917   5.213  0.1589  0.0329  0.2341
 6844TIP3    H141947   0.979   5.832   5.247  0.7426 -0.2141 -0.8357
 6844TIP3    H241948   0.878   5.942   5.271 -1.2953 -2.0892 -0.4875
 6845TIP3   OH241949   1.933   5.993   4.932  0.0480 -0.4566 -0.1907
 6845TIP3    H141950   1.861   6.052   4.910 -1.2327 -0.9049  2.4296
 6845TIP3    H241951   2.000   6.011   4.866 -1.4921  1.7201 -1.2714
 6846TIP3   OH241952   3.704   3.303  13.145  0.0742  0.2546  0.6191
 6846TIP3    H141953   3.669   3.214  13.146 -0.3896  0.4377  0.8795
 6846TIP3    H241954   3.793   3.293  13.179 -0.0110 -0.0941  0.7514
 6847TIP3   OH241955   5.092   2.270  14.685 -0.4848  0.2554  0.8045
 6847TIP3    H141956   5.068   2.220  14.763  1.3419  1.1225  2.0089
 6847TIP3    H241957   5.167   2.222  14.649  0.0146  1.0114  0.8212
 6848TIP3   OH241958   0.979   4.472  14.404  0.5309  0.0543 -0.2729
 6848TIP3    H141959   0.951   4.528  14.332 -0.5742 -2.1398 -1.6346
 6848TIP3    H241960   0.933   4.507  14.481 -0.4318  0.7667 -1.1510
 6849TIP3   OH241961   2.345   5.150   2.556  0.6674  0.4020 -0.1444
 6849TIP3    H141962   2.371   5.115   2.641 -1.1611  0.4850  0.4846
 6849TIP3    H241963   2.251   5.135   2.551  0.4620  1.8354 -1.4809
 6850TIP3   OH241964   2.363   2.307  11.667  0.3253 -0.0287 -0.2757
 6850TIP3    H141965   2.401   2.296  11.579  0.2636 -2.0535 -0.0982
 6850TIP3    H241966   2.371   2.401  11.685  0.1646  0.4733 -2.5121
 6851TIP3   OH241967   4.384   0.164   2.117 -0.0497 -0.5980  0.0063
 6851TIP3    H141968   4.448   0.216   2.069  0.5041  0.2519  1.5993
 6851TIP3    H241969   4.300   0.186   2.077  0.3197  0.6010 -0.1334
 6852TIP3   OH241970   1.951   2.543   4.211 -0.5442  0.0461  0.6873
 6852TIP3    H141971   1.912   2.470   4.163  0.7018  0.0289 -0.3449
 6852TIP3    H241972   2.018   2.502   4.266  1.6342  0.5400 -1.4435
 6853TIP3   OH241973   0.653   3.040   5.438  0.3980 -0.6467 -0.0077
 6853TIP3    H141974   0.591   2.978   5.477  0.8817 -1.1477 -0.0089
 6853TIP3    H241975   0.645   3.025   5.344 -0.9816  0.7683 -0.1502
 6854TIP3   OH241976   1.402   5.587  11.845  0.5681 -0.0330 -0.4576
 6854TIP3    H141977   1.329   5.624  11.896  0.9540 -0.0486  0.1160
 6854TIP3    H241978   1.479   5.636  11.874  0.7648  0.1016 -1.1902
 6855TIP3   OH241979   2.769   3.374  14.096 -0.3831 -0.1238  0.0329
 6855TIP3    H141980   2.850   3.425  14.093 -1.4750  1.7271 -0.0178
 6855TIP3    H241981   2.775   3.315  14.022  0.7811  0.2188 -0.1668
 6856TIP3   OH241982   2.605   4.073   1.228  0.3496 -0.4523  0.0132
 6856TIP3    H141983   2.617   4.037   1.316  1.5074 -3.7921 -1.3682
 6856TIP3    H241984   2.655   4.155   1.229 -0.3687  0.0447  2.6336
 6857TIP3   OH241985   4.787   2.885   1.558  0.1980 -0.3476  0.6149
 6857TIP3    H141986   4.736   2.817   1.513  0.3688 -0.3273  0.3859
 6857TIP3    H241987   4.725   2.956   1.574 -0.2923 -1.0391  1.9562
 6858TIP3   OH241988   4.167   2.689  15.752  0.0173 -0.2226 -0.1221
 6858TIP3    H141989   4.133   2.650  15.833 -0.3595 -0.2249 -0.2802
 6858TIP3    H241990   4.155   2.783  15.764 -0.9248 -0.2806 -0.5691
 6859TIP3   OH241991   5.255   3.454   1.163  0.4890 -0.1756 -0.2037
 6859TIP3    H141992   5.193   3.385   1.188 -0.7795  0.6549 -0.9198
 6859TIP3    H241993   5.202   3.515   1.111  1.0326  2.4317  2.1162
 6860TIP3   OH241994   3.930   1.113  14.623 -0.1563 -0.4688 -0.2136
 6860TIP3    H141995   3.964   1.024  14.627  0.6303 -0.3581 -2.7649
 6860TIP3    H241996   3.980   1.160  14.691  1.1254 -1.4710 -0.4182
 6861TIP3   OH241997   4.893   4.057  14.048 -0.1242 -0.4032  0.7102
 6861TIP3    H141998   4.945   4.118  13.996 -1.0554 -0.8430 -0.7763
 6861TIP3    H241999   4.912   3.971  14.010 -3.2673 -0.4051 -1.1213
 6862TIP3   OH242000   4.526   4.196   2.758 -0.0193  0.2073 -0.0908
 6862TIP3    H142001   4.443   4.215   2.715  0.4690  0.7277 -0.8117
 6862TIP3    H242002   4.568   4.131   2.701  0.2250  0.2055  0.0900
 6863TIP3   OH242003   3.178   0.482  13.681  0.0448 -0.5452 -0.0929
 6863TIP3    H142004   3.125   0.492  13.602  1.5212 -0.5998 -1.1279
 6863TIP3    H242005   3.115   0.483  13.752 -1.2308  0.7422 -1.1816
 6864TIP3   OH242006   0.038   2.849  15.799  0.3469 -0.1310 -0.2229
 6864TIP3    H142007   0.006   2.939  15.808 -2.2445 -0.4481 -3.8382
 6864TIP3    H242008   0.041   2.815  15.888 -0.3808  2.9479  1.0976
 6865TIP3   OH242009   3.431   2.005   3.634  0.2726  0.6145  0.0034
 6865TIP3    H142010   3.432   2.087   3.682 -0.9010  0.9477 -0.5087
 6865TIP3    H242011   3.358   1.956   3.671  2.1410 -1.0962  1.6860
 6866TIP3   OH242012   3.853   2.398   5.469 -0.7210 -0.6390 -0.0978
 6866TIP3    H142013   3.837   2.399   5.375  1.2320  1.4768 -0.4935
 6866TIP3    H242014   3.776   2.439   5.507 -0.6066  0.4533 -0.9986
 6867TIP3   OH242015   2.073   6.424  11.783 -0.1762 -0.0519  0.2870
 6867TIP3    H142016   2.126   6.456  11.855  1.3842 -1.3098 -0.2559
 6867TIP3    H242017   2.050   6.503  11.733 -0.7407  0.7500  1.7481
 6868TIP3   OH242018   5.052   2.471  15.603  0.2085 -0.8275 -0.0350
 6868TIP3    H142019   5.095   2.385  15.601  1.9454  0.0095 -0.7835
 6868TIP3    H242020   5.032   2.485  15.695  0.9437 -1.5646  0.2523
 6869TIP3   OH242021   2.979   4.492   5.528 -0.0942 -0.1749  0.0651
 6869TIP3    H142022   2.914   4.522   5.592  0.4178 -0.1165  0.5662
 6869TIP3    H242023   2.998   4.402   5.554 -0.1062 -0.2541 -0.1958
 6870TIP3   OH242024   4.268   1.392   1.736  0.1761 -0.6367 -0.1378
 6870TIP3    H142025   4.329   1.451   1.780 -1.8920  1.1974  0.4876
 6870TIP3    H242026   4.308   1.306   1.742  1.8876  0.2229  1.7136
 6871TIP3   OH242027   4.891   3.547  12.828  0.1631  0.6041  0.0222
 6871TIP3    H142028   4.850   3.463  12.806 -0.1073  0.9392 -0.7965
 6871TIP3    H242029   4.821   3.598  12.867  0.1552  0.6869 -0.1009
 6872TIP3   OH242030   1.750   4.672   3.633  0.0767  0.1170 -0.0543
 6872TIP3    H142031   1.739   4.681   3.538 -2.8562  0.2514  0.2019
 6872TIP3    H242032   1.810   4.599   3.644 -0.3665 -0.5975 -2.0439
 6873TIP3   OH242033   5.488   4.016  11.088 -0.6157  0.2895 -0.1280
 6873TIP3    H142034   5.434   4.059  11.155 -1.7379 -0.4822 -0.5054
 6873TIP3    H242035   5.503   4.084  11.023  0.1130  0.9231  0.6771
 6874TIP3   OH242036   1.601   2.054   5.564 -0.3690  0.5658  0.9092
 6874TIP3    H142037   1.602   2.080   5.472  1.1123 -1.0643  0.3995
 6874TIP3    H242038   1.671   2.105   5.604  1.1497 -0.9513  0.3587
 6875TIP3   OH242039   1.113   2.582   2.847 -0.3581  0.4762 -0.6353
 6875TIP3    H142040   1.117   2.654   2.910 -2.9413  0.4151 -0.2828
 6875TIP3    H242041   1.158   2.510   2.891  0.3522  1.2381 -0.0787
 6876TIP3   OH242042   3.942   2.900  15.023 -0.1665 -0.2366  0.4599
 6876TIP3    H142043   3.885   2.917  15.098 -0.3750  0.5452  0.1285
 6876TIP3    H242044   4.023   2.946  15.044 -0.7413  1.2578 -0.4499
 6877TIP3   OH242045   2.747   3.884   5.870  0.3286 -0.2993 -0.1785
 6877TIP3    H142046   2.730   3.937   5.792  2.6755 -0.5917 -0.9615
 6877TIP3    H242047   2.826   3.835   5.849  0.6534 -0.8843  2.1594
 6878TIP3   OH242048   3.252   1.140  12.547  0.3386 -0.5670 -0.1292
 6878TIP3    H142049   3.200   1.066  12.579 -2.9046  1.3533 -0.4995
 6878TIP3    H242050   3.306   1.102  12.477 -1.0894 -2.6421 -0.2102
 6879TIP3   OH242051   3.862   3.891  16.931 -0.6414  0.0725  0.3673
 6879TIP3    H142052   3.910   3.974  16.926 -2.6946  1.2925 -1.4800
 6879TIP3    H242053   3.802   3.903  17.005 -0.7190  0.1405  0.2954
 6880TIP3   OH242054   3.360   4.313  11.490 -0.3900 -0.0256  0.2780
 6880TIP3    H142055   3.425   4.269  11.434 -1.1518  0.9139 -1.4243
 6880TIP3    H242056   3.413   4.368  11.549  0.4164  0.2600 -0.6705
 6881TIP3   OH242057   4.684   4.700   5.116 -0.2281 -0.0945 -0.0817
 6881TIP3    H142058   4.739   4.631   5.153 -0.5467 -0.8731 -1.0278
 6881TIP3    H242059   4.694   4.773   5.177 -0.2324 -1.1106  1.1741
 6882TIP3   OH242060   5.835   3.430   4.524 -0.3185 -0.1003 -0.1254
 6882TIP3    H142061   5.843   3.446   4.430 -4.0255  0.0938 -0.5554
 6882TIP3    H242062   5.815   3.516   4.561 -0.3949 -0.4371  0.6284
 6883TIP3   OH242063   4.677   5.670  15.458  0.4643  0.0068  0.2695
 6883TIP3    H142064   4.654   5.645  15.548  0.8260 -1.2350  0.0303
 6883TIP3    H242065   4.771   5.655  15.452  0.6363  1.0853 -0.0233
 6884TIP3   OH242066   5.276   3.047  12.723  0.0402 -0.4816  0.1777
 6884TIP3    H142067   5.235   3.133  12.711  1.6303  0.5203  1.3839
 6884TIP3    H242068   5.322   3.030  12.641  0.4296  0.2525  0.2354
 6885TIP3   OH242069   3.672   1.792   4.280 -0.0293 -0.2266  0.1401
 6885TIP3    H142070   3.676   1.865   4.342 -0.5082 -0.7744  0.8398
 6885TIP3    H242071   3.634   1.830   4.201 -1.3405  0.0506  0.8753
 6886TIP3   OH242072   2.939   4.783  15.479 -0.3401  0.1559 -0.0750
 6886TIP3    H142073   2.984   4.761  15.560 -0.0376 -0.8235 -0.4905
 6886TIP3    H242074   2.911   4.874  15.490  0.9548  0.4925  0.5405
 6887TIP3   OH242075   5.646   2.403  13.446  0.7747  0.4481  0.0661
 6887TIP3    H142076   5.565   2.446  13.475 -0.5723 -1.5234 -0.5830
 6887TIP3    H242077   5.667   2.342  13.517  0.6376 -0.3714 -0.5909
 6888TIP3   OH242078   1.444   6.208  16.109  0.3375 -0.6914  0.5205
 6888TIP3    H142079   1.360   6.202  16.064  0.8004 -2.4745 -0.2195
 6888TIP3    H242080   1.508   6.218  16.038  0.7177  1.9186  1.1213
 6889TIP3   OH242081   0.968   0.117  11.303  0.2430  0.1410  0.0501
 6889TIP3    H142082   0.930   0.065  11.232 -0.0988 -0.7370  0.8533
 6889TIP3    H242083   0.898   0.125  11.367  0.9128 -0.1067  0.8274
 6890TIP3   OH242084   3.752   1.329   2.006 -0.1051  0.1764 -0.2121
 6890TIP3    H142085   3.839   1.304   1.974 -0.6968 -1.0547 -0.9119
 6890TIP3    H242086   3.722   1.253   2.056 -0.2844  1.0845  1.1271
 6891TIP3   OH242087   3.972   0.142   0.504 -0.0669  0.2156 -0.2551
 6891TIP3    H142088   3.987   0.051   0.479 -1.4818  0.1888 -1.1288
 6891TIP3    H242089   4.039   0.191   0.456  0.8621 -0.3727  0.4226
 6892TIP3   OH242090   2.254   4.298   5.301 -0.2929 -0.2768 -0.2864
 6892TIP3    H142091   2.252   4.390   5.275 -0.5371  0.3428  1.7418
 6892TIP3    H242092   2.310   4.255   5.236 -0.2897  1.2630 -1.3449
 6893TIP3   OH242093   5.948   2.438  10.846 -0.2546  0.0648  0.0526
 6893TIP3    H142094   6.022   2.472  10.797 -0.6992 -1.3062 -1.6599
 6893TIP3    H242095   5.980   2.358  10.888 -0.4393  0.1066  0.2792
 6894TIP3   OH242096   2.456   5.988  16.547 -0.0253 -0.0498  0.5691
 6894TIP3    H142097   2.408   5.959  16.625 -1.2827  0.3834 -0.0241
 6894TIP3    H242098   2.505   6.065  16.577 -1.3712  0.8003  0.6926
 6895TIP3   OH242099   3.637   5.577   1.136  0.2282  0.2348 -0.7095
 6895TIP3    H142100   3.679   5.632   1.069  1.2565 -0.1437 -0.3909
 6895TIP3    H242101   3.590   5.510   1.087  0.3777  0.3883 -1.0644
 6896TIP3   OH242102   3.270   2.637   0.186 -0.4486  0.3814  0.3545
 6896TIP3    H142103   3.245   2.582   0.260 -1.6508  0.9887  0.4270
 6896TIP3    H242104   3.278   2.577   0.112 -2.6817  0.1782  0.2096
 6897TIP3   OH242105   0.547   4.638  15.492  0.0623 -0.0095  0.0363
 6897TIP3    H142106   0.575   4.669  15.406 -1.4542  0.3871 -0.3560
 6897TIP3    H242107   0.520   4.717  15.539  1.9791 -0.0861  1.3432
 6898TIP3   OH242108   4.076   4.121   0.678 -0.1178 -0.0017  0.1151
 6898TIP3    H142109   4.163   4.159   0.664 -0.1696  0.0093 -0.1820
 6898TIP3    H242110   4.058   4.135   0.770  1.0558 -1.7849  0.6781
 6899TIP3   OH242111   2.447   0.834   0.381  0.3983 -1.0364  0.3006
 6899TIP3    H142112   2.370   0.828   0.326  1.0948  1.8882 -1.1675
 6899TIP3    H242113   2.414   0.863   0.466 -0.1280  1.3198 -0.6289
 6900TIP3   OH242114   5.889   1.462  15.064 -0.1802 -0.0863 -0.5719
 6900TIP3    H142115   5.803   1.503  15.061 -1.1160 -1.8334  0.6828
 6900TIP3    H242116   5.932   1.499  15.141 -1.0113 -1.3301  0.5392
 6901TIP3   OH242117   2.676   6.645  14.971  0.4749  0.0661  0.0285
 6901TIP3    H142118   2.588   6.677  14.993 -0.2158 -1.1931 -0.8225
 6901TIP3    H242119   2.662   6.584  14.899  1.4075 -4.0137  2.9533
 6902TIP3   OH242120   2.787   5.714   3.600 -0.2857  0.3796 -0.2884
 6902TIP3    H142121   2.865   5.700   3.654 -0.6590 -1.9851 -0.2539
 6902TIP3    H242122   2.794   5.648   3.531 -1.7338  0.8475 -0.9158
 6903TIP3   OH242123   4.382   5.486   6.450  0.0312 -0.3863 -0.3891
 6903TIP3    H142124   4.304   5.524   6.409 -0.1312  0.3828  0.5904
 6903TIP3    H242125   4.440   5.561   6.463  0.9292 -0.9431 -1.0682
 6904TIP3   OH242126   3.728   1.388  14.227  0.4448  0.4556 -0.4725
 6904TIP3    H142127   3.700   1.428  14.309 -2.2137 -1.6182 -0.2398
 6904TIP3    H242128   3.811   1.345  14.248 -0.2366 -0.1025  1.1694
 6905TIP3   OH242129   1.337   5.589   5.146 -0.2600 -0.1424  0.3014
 6905TIP3    H142130   1.301   5.506   5.176 -1.8479 -0.1483 -1.4058
 6905TIP3    H242131   1.427   5.570   5.123 -1.0396 -1.8303 -1.5934
 6906TIP3   OH242132   6.751   4.621  17.343 -0.2360 -0.3908  0.0202
 6906TIP3    H142133   6.832   4.670  17.333  0.2879 -0.9849  1.1333
 6906TIP3    H242134   6.738   4.578  17.259  0.5664 -0.2444 -0.1901
 6907TIP3   OH242135   6.286   0.577   1.842  0.7507  0.1378 -0.2537
 6907TIP3    H142136   6.246   0.657   1.807  0.7373  0.9456  1.5034
 6907TIP3    H242137   6.214   0.527   1.879  0.7873 -0.6220 -1.1704
 6908TIP3   OH242138   0.333   6.586   0.050 -0.0384 -0.1188 -0.3937
 6908TIP3    H142139   0.243   6.553   0.060  0.0118 -0.5941 -1.3769
 6908TIP3    H242140   0.344   6.596  -0.044  0.4164  1.4783 -0.1939
 6909TIP3   OH242141   1.614   4.851  15.177  0.5690  0.2241  0.4934
 6909TIP3    H142142   1.549   4.868  15.109  0.5342 -0.5093  0.3280
 6909TIP3    H242143   1.690   4.816  15.130  0.6863  0.0794  0.7871
 6910TIP3   OH242144   6.372   1.714  11.680 -0.6281 -0.5866  0.1304
 6910TIP3    H142145   6.448   1.660  11.699 -1.1290 -1.3070  0.1357
 6910TIP3    H242146   6.391   1.754  11.595 -0.3469 -0.9413  0.0262
 6911TIP3   OH242147   1.837   4.109  13.737 -0.2901 -0.3079 -0.2745
 6911TIP3    H142148   1.807   4.075  13.822  0.6467  1.3276  0.7584
 6911TIP3    H242149   1.818   4.038  13.676  0.3417 -2.1606  1.5248
 6912TIP3   OH242150   1.467   0.910  14.214 -0.2667 -0.1723  0.5542
 6912TIP3    H142151   1.425   0.965  14.148  1.5121 -0.3472 -0.7983
 6912TIP3    H242152   1.409   0.914  14.290 -1.3767  1.6355 -0.3382
 6913TIP3   OH242153   2.558   0.118   2.216 -0.2791 -0.3433 -0.3752
 6913TIP3    H142154   2.541   0.175   2.290 -1.4235 -0.1318 -0.7753
 6913TIP3    H242155   2.649   0.090   2.227 -0.7306 -1.1770  1.6811
 6914TIP3   OH242156   4.598   4.598   2.543  0.8241  0.3692 -0.8422
 6914TIP3    H142157   4.618   4.692   2.536 -0.2145  0.5300 -2.1755
 6914TIP3    H242158   4.513   4.589   2.499  0.6501 -1.1227 -0.2466
 6915TIP3   OH242159   6.193   6.142   1.165  0.3784  0.1962  0.2553
 6915TIP3    H142160   6.139   6.154   1.087  0.3991  1.8098  0.4733
 6915TIP3    H242161   6.198   6.047   1.175  2.5310 -0.2082 -3.1680
 6916TIP3   OH242162   1.427   6.229   1.253  0.4066 -0.4243 -0.0042
 6916TIP3    H142163   1.423   6.216   1.159  0.5994  0.8222 -0.2032
 6916TIP3    H242164   1.476   6.154   1.286  1.3340 -0.2997 -1.0439
 6917TIP3   OH242165   3.316   1.611   4.788  0.3462 -0.6598  0.2657
 6917TIP3    H142166   3.243   1.671   4.808  0.5323 -0.8845  1.6650
 6917TIP3    H242167   3.383   1.668   4.751  0.6657  0.1045  1.9291
 6918TIP3   OH242168   2.121   4.499   1.643 -0.2224  0.4752  0.1476
 6918TIP3    H142169   2.166   4.521   1.561  2.8302 -5.8835 -0.5344
 6918TIP3    H242170   2.180   4.529   1.712  1.4175 -1.0048 -0.5092
 6919TIP3   OH242171   3.849   1.882  13.534 -0.6003 -0.1866 -0.0980
 6919TIP3    H142172   3.883   1.935  13.606 -1.4361 -0.0419  0.2057
 6919TIP3    H242173   3.921   1.824  13.510  0.1070  0.6391  0.0024
 6920TIP3   OH242174   2.642   0.591   2.778  0.0487  0.4388  0.3048
 6920TIP3    H142175   2.620   0.498   2.769  0.9421  0.1750  0.7408
 6920TIP3    H242176   2.718   0.604   2.722  0.8692  0.5450  1.3996
 6921TIP3   OH242177   2.924   0.348   5.672 -0.0522  0.4966 -0.4265
 6921TIP3    H142178   2.938   0.374   5.581  2.3124  1.7019  0.2193
 6921TIP3    H242179   2.906   0.254   5.667  0.0390  0.5340 -2.1329
 6922TIP3   OH242180   4.148   5.442   2.918 -0.4764 -0.1479  0.1000
 6922TIP3    H142181   4.109   5.422   3.003 -0.3198 -2.1626 -0.2583
 6922TIP3    H242182   4.078   5.484   2.869 -0.6980  0.6595  1.0555
 6923TIP3   OH242183   0.138   3.615  14.766 -0.0376 -0.5279  0.0540
 6923TIP3    H142184   0.145   3.677  14.839 -0.1465 -1.9972  1.3535
 6923TIP3    H242185   0.142   3.529  14.807  0.9643 -1.4114 -1.7854
 6924TIP3   OH242186   0.299   3.858   3.753 -0.0846 -0.3945 -0.1743
 6924TIP3    H142187   0.343   3.838   3.836  0.8126 -1.2208 -0.8195
 6924TIP3    H242188   0.238   3.928   3.775  1.4441  0.7066  0.7977
 6925TIP3   OH242189   2.176   5.693  12.191 -0.1716 -0.0151  0.0038
 6925TIP3    H142190   2.171   5.775  12.240  0.2537 -1.0941  1.9789
 6925TIP3    H242191   2.147   5.716  12.103  0.3804  2.3295  0.3665
 6926TIP3   OH242192   3.520   4.774   2.747 -0.2663  0.3021  0.2895
 6926TIP3    H142193   3.472   4.737   2.821  0.0326 -1.3488 -0.3034
 6926TIP3    H242194   3.611   4.772   2.774 -0.2347  0.4536  0.1933
 6927TIP3   OH242195   6.066   6.713   2.701 -0.0636 -0.2757  0.0344
 6927TIP3    H142196   6.123   6.669   2.764 -0.1996  0.6109  0.8071
 6927TIP3    H242197   6.105   6.695   2.615  0.7171 -0.6411  0.4625
 6928TIP3   OH242198   2.933   1.649  16.211  0.2451 -0.2865 -0.1486
 6928TIP3    H142199   2.846   1.609  16.223 -0.1980  0.3920 -0.9593
 6928TIP3    H242200   2.988   1.578  16.180 -0.3722 -0.4245 -0.9493
 6929TIP3   OH242201   5.014   2.472   3.124  0.5109 -0.1828  0.3723
 6929TIP3    H142202   5.072   2.539   3.089  1.3743  0.9052  3.5747
 6929TIP3    H242203   5.070   2.395   3.135  0.5274 -0.1569  0.4670
 6930TIP3   OH242204   3.213   4.278  14.565  0.1378  0.1543  0.1698
 6930TIP3    H142205   3.174   4.295  14.651 -0.0983  0.6389 -0.0316
 6930TIP3    H242206   3.307   4.273  14.583 -0.0546 -2.7086  0.9454
 6931TIP3   OH242207   2.728   4.987   1.684 -0.0234 -0.2828  0.6943
 6931TIP3    H142208   2.709   5.042   1.760  1.5604 -1.0584  1.7266
 6931TIP3    H242209   2.734   4.898   1.719  0.4014 -0.7089 -0.3875
 6932TIP3   OH242210   2.576   4.529   0.910 -0.4096 -0.3280  0.1759
 6932TIP3    H142211   2.590   4.602   0.851 -1.9745  0.0419  0.2083
 6932TIP3    H242212   2.557   4.455   0.853 -2.9116  0.2423  0.1214
 6933TIP3   OH242213   3.740   4.386   4.226 -0.0158  0.2927  0.8427
 6933TIP3    H142214   3.782   4.308   4.190 -0.3695  0.5608 -0.1878
 6933TIP3    H242215   3.797   4.412   4.299  0.8757 -0.1040  0.3106
 6934TIP3   OH242216   3.999   3.483   4.221  0.7790 -0.5736 -0.3307
 6934TIP3    H142217   3.967   3.573   4.229  0.8880 -0.6089  0.6107
 6934TIP3    H242218   4.065   3.486   4.152 -0.4833 -0.2899 -1.5765
 6935TIP3   OH242219   1.771   5.534   2.400  0.7570 -0.5438 -0.1759
 6935TIP3    H142220   1.730   5.566   2.480  1.1865 -0.3320 -0.0426
 6935TIP3    H242221   1.790   5.613   2.349  0.1895 -0.6924 -0.6346
 6936TIP3   OH242222   6.742   4.689   4.090 -0.3130 -0.1009  0.5109
 6936TIP3    H142223   6.755   4.654   4.179  0.0034 -0.7898  0.1990
 6936TIP3    H242224   6.659   4.651   4.062  0.3361 -1.1371 -0.0705
 6937TIP3   OH242225   1.454   2.559   4.406 -0.0975  0.1508  0.5731
 6937TIP3    H142226   1.441   2.536   4.314 -0.4582 -0.7782  0.8326
 6937TIP3    H242227   1.398   2.635   4.420 -0.0647  0.2782  0.0265
 6938TIP3   OH242228   4.331   1.653   4.669 -0.7116  0.5704 -0.3587
 6938TIP3    H142229   4.272   1.728   4.664 -0.5394  0.7886  0.6904
 6938TIP3    H242230   4.367   1.656   4.758  2.0383  1.3074 -1.4084
 6939TIP3   OH242231   4.408   5.741  12.356  0.7887 -0.0415  0.2750
 6939TIP3    H142232   4.364   5.797  12.421  1.7189  0.2749  0.6614
 6939TIP3    H242233   4.473   5.692  12.407  2.9260  1.6473 -0.6389
 6940TIP3   OH242234   6.274   2.777   4.490 -0.2975  0.0493  0.2379
 6940TIP3    H142235   6.221   2.774   4.570  0.3384 -1.8743  0.6344
 6940TIP3    H242236   6.362   2.795   4.521  0.2542 -2.2609  0.2179
 6941TIP3   OH242237   0.753   4.557   0.627  0.5689  0.1534 -0.9532
 6941TIP3    H142238   0.756   4.652   0.636 -0.5162  0.2511 -1.4347
 6941TIP3    H242239   0.665   4.533   0.657  1.2566 -0.8440  0.3637
 6942TIP3   OH242240   4.270   6.031  13.571  0.1529  0.4896  0.0866
 6942TIP3    H142241   4.204   6.094  13.601 -0.4438  0.6091 -1.3859
 6942TIP3    H242242   4.219   5.959  13.532  0.7629 -1.4699  2.6293
 6943TIP3   OH242243   3.312   0.910   3.482 -0.0201  0.1024  0.2015
 6943TIP3    H142244   3.343   0.933   3.570  2.3722 -1.0123 -0.2536
 6943TIP3    H242245   3.240   0.849   3.497 -1.0552  1.5152  1.3367
 6944TIP3   OH242246   6.703   5.331   0.782 -0.6242  0.6867  0.6835
 6944TIP3    H142247   6.792   5.295   0.785 -0.5006  1.0213  0.9991
 6944TIP3    H242248   6.711   5.419   0.817 -1.2663  0.3639  1.6907
 6945TIP3   OH242249   4.650   3.004  12.304 -0.2397  0.2056  0.0348
 6945TIP3    H142250   4.566   2.963  12.284  0.8535 -1.6904 -0.9122
 6945TIP3    H242251   4.704   2.987  12.227  1.4446  0.1710  1.1747
 6946TIP3   OH242252   1.640   2.018   2.377  0.1009 -0.6789  0.0442
 6946TIP3    H142253   1.617   2.050   2.464  1.9424 -0.4807  0.5042
 6946TIP3    H242254   1.625   2.093   2.319  2.0340  0.3086  0.7428
 6947TIP3   OH242255   0.141   1.080   0.238 -0.7476  0.0007 -0.0891
 6947TIP3    H142256   0.111   1.005   0.289 -1.6928 -0.5345 -1.3672
 6947TIP3    H242257   0.171   1.041   0.155 -1.5624  1.0421 -0.8987
 6948TIP3   OH242258   1.093   4.436  12.567 -0.2224  0.1682  0.6565
 6948TIP3    H142259   1.028   4.423  12.498 -0.1010 -1.5027  0.8116
 6948TIP3    H242260   1.103   4.531  12.574 -2.5832  0.4570  0.5878
 6949TIP3   OH242261   1.607   4.030   6.240  0.1016  0.1699 -0.5045
 6949TIP3    H142262   1.626   3.985   6.323  1.3530 -2.6647 -2.1849
 6949TIP3    H242263   1.691   4.032   6.194 -0.4857  2.0504 -1.5671
 6950TIP3   OH242264   0.394   5.634  13.502  0.6760 -0.3727  0.3957
 6950TIP3    H142265   0.388   5.698  13.431 -0.8149  0.1094  0.9225
 6950TIP3    H242266   0.486   5.636  13.528  0.9499  0.5000 -0.5644
 6951TIP3   OH242267   0.107   5.690   4.114 -0.0301 -0.4749  0.7768
 6951TIP3    H142268   0.069   5.754   4.174 -2.0108 -1.1685  0.3398
 6951TIP3    H242269   0.117   5.737   4.032 -0.9724 -0.5374  0.6080
 6952TIP3   OH242270   5.131   6.716   5.648 -0.4867  0.2904  0.5451
 6952TIP3    H142271   5.127   6.809   5.623 -0.8739  0.2580  0.4794
 6952TIP3    H242272   5.148   6.717   5.742  2.7132  0.4141  0.0824
 6953TIP3   OH242273   0.570   4.558   0.282  0.3160 -0.8389  0.2051
 6953TIP3    H142274   0.555   4.606   0.364  3.3683  0.0764  0.3334
 6953TIP3    H242275   0.597   4.625   0.220 -0.0800 -1.8016 -1.0503
 6954TIP3   OH242276   5.844   1.948  13.268  0.4883  0.2469 -0.4276
 6954TIP3    H142277   5.779   1.879  13.281 -0.3691  1.1503  0.2010
 6954TIP3    H242278   5.904   1.939  13.342 -0.5092  1.1194  0.5191
 6955TIP3   OH242279   6.415   2.566   1.096  0.0439 -0.7769 -0.3330
 6955TIP3    H142280   6.452   2.479   1.078  0.9862 -0.2097 -1.2664
 6955TIP3    H242281   6.412   2.571   1.192 -2.4302 -2.8047 -0.2062
 6956TIP3   OH242282   2.468   5.718   0.792 -0.1530 -1.0384  0.1996
 6956TIP3    H142283   2.491   5.628   0.813  0.3176 -0.8625  0.4653
 6956TIP3    H242284   2.433   5.754   0.874 -1.8818 -1.4379 -0.3149
 6957TIP3   OH242285   3.790   2.444  17.135 -0.4773 -0.2928 -0.9594
 6957TIP3    H142286   3.747   2.360  17.148 -0.7126 -0.0326 -0.0167
 6957TIP3    H242287   3.720   2.509  17.139  0.1333  0.3176  2.5289
 6958TIP3   OH242288   6.007   3.330   3.474 -0.1358  0.4093 -0.4586
 6958TIP3    H142289   6.101   3.348   3.465 -0.0948  0.7594  0.5850
 6958TIP3    H242290   5.964   3.409   3.440 -0.0226  0.8440  0.3936
 6959TIP3   OH242291   3.722   2.693  11.751 -0.0596  0.3362 -0.3607
 6959TIP3    H142292   3.714   2.703  11.846  0.0164  2.4949 -0.5305
 6959TIP3    H242293   3.816   2.696  11.734 -0.0731 -0.0182 -0.5057
 6960TIP3   OH242294   4.686   0.066  11.348  0.4402  0.4054  0.4067
 6960TIP3    H142295   4.749   0.025  11.289  2.3826  1.6935  1.4948
 6960TIP3    H242296   4.622   0.106  11.289 -1.1784 -3.3444 -0.7155
 6961TIP3   OH242297   0.003   3.060   4.520 -0.1453 -0.4025 -0.9236
 6961TIP3    H142298  -0.010   3.148   4.557 -0.4544 -0.2359 -1.4190
 6961TIP3    H242299   0.098   3.048   4.522 -0.2319 -1.2396  1.8274
 6962TIP3   OH242300   4.933   6.082  14.748 -0.1657 -0.2171 -0.8763
 6962TIP3    H142301   4.958   6.135  14.824  2.1903 -0.2195 -1.5489
 6962TIP3    H242302   4.945   6.141  14.673  1.1992 -1.2618 -1.5184
 6963TIP3   OH242303   6.321   4.342  16.490 -0.3972 -0.6432  0.4651
 6963TIP3    H142304   6.320   4.318  16.397 -0.1685 -0.4204  0.4031
 6963TIP3    H242305   6.228   4.349  16.514 -0.4618  0.0339  0.0581
 6964TIP3   OH242306   2.913   2.136  15.776  0.3961 -0.1730  0.1452
 6964TIP3    H142307   2.944   2.215  15.820  1.5600  0.3435 -1.5038
 6964TIP3    H242308   2.987   2.109  15.721 -1.0872 -0.4958 -1.8269
 6965TIP3   OH242309   5.292   1.193   1.400 -0.0417  0.2595 -0.2068
 6965TIP3    H142310   5.230   1.265   1.410  0.8729  0.9843  0.3767
 6965TIP3    H242311   5.376   1.228   1.431  0.0033 -1.6982  2.2295
 6966TIP3   OH242312   4.963   3.106  16.347  0.0349 -0.6932  0.5027
 6966TIP3    H142313   4.969   3.059  16.430  0.4475  1.4401  1.7509
 6966TIP3    H242314   5.001   3.046  16.283  0.6929 -1.9792  2.0345
 6967TIP3   OH242315   6.565   4.595   3.810 -0.8531 -0.1411 -0.0035
 6967TIP3    H142316   6.590   4.559   3.895  2.7936  1.2063 -0.3166
 6967TIP3    H242317   6.571   4.521   3.750 -3.2565 -1.0569  0.7617
 6968TIP3   OH242318   4.675   6.629  13.755  0.3457 -0.4414  0.1300
 6968TIP3    H142319   4.712   6.578  13.682  0.0669 -0.9950  0.3693
 6968TIP3    H242320   4.704   6.583  13.833 -0.7189 -0.8209  0.3300
 6969TIP3   OH242321   5.328   0.046  13.582 -0.1028 -0.0293  0.1816
 6969TIP3    H142322   5.301   0.133  13.554  0.0749 -0.2745 -0.7909
 6969TIP3    H242323   5.422   0.054  13.598 -0.0849 -0.0438  0.0825
 6970TIP3   OH242324   0.150   2.580  14.292  0.0873 -0.1183  0.0816
 6970TIP3    H142325   0.120   2.575  14.202 -1.2535 -1.2205  0.5416
 6970TIP3    H242326   0.224   2.640  14.290  1.0861 -1.3215 -2.0017
 6971TIP3   OH242327   1.065   6.681  11.627 -0.4624  0.3433 -0.1271
 6971TIP3    H142328   1.153   6.643  11.628 -0.9976 -1.1424 -2.3008
 6971TIP3    H242329   1.043   6.689  11.534 -2.0568  2.1340  0.3235
 6972TIP3   OH242330   3.034   5.399   5.722  0.0225 -0.4111 -0.0033
 6972TIP3    H142331   3.110   5.392   5.780  0.3059  1.8288 -0.0020
 6972TIP3    H242332   3.018   5.494   5.716 -1.2444 -0.7032 -1.9804
 6973TIP3   OH242333   0.846   3.169   1.545 -0.0283  0.2552 -0.1571
 6973TIP3    H142334   0.887   3.086   1.569 -1.3743 -0.7905 -1.3031
 6973TIP3    H242335   0.919   3.227   1.524  0.9564 -0.4264  1.2484
 6974TIP3   OH242336   0.057   3.762  12.027  1.1452 -0.3863  0.4027
 6974TIP3    H142337  -0.026   3.790  12.066  0.5848 -1.9824  0.4316
 6974TIP3    H242338   0.048   3.784  11.934  0.3456 -1.2189  0.2596
 6975TIP3   OH242339   0.660   3.830   3.634 -0.1306 -0.5922  0.4374
 6975TIP3    H142340   0.576   3.825   3.679 -0.1643  1.6536  0.7182
 6975TIP3    H242341   0.643   3.883   3.556  1.0473  0.0856  0.6089
 6976TIP3   OH242342   1.813   4.524  16.696  0.1718  0.0999 -0.2311
 6976TIP3    H142343   1.833   4.606  16.652  1.0198 -0.2595 -0.5365
 6976TIP3    H242344   1.793   4.462  16.626 -0.1086 -0.0453 -0.0239
 6977TIP3   OH242345   5.040   6.361   0.089  0.6176 -0.3722 -0.0793
 6977TIP3    H142346   4.965   6.318   0.047 -0.7762 -0.6419  2.4661
 6977TIP3    H242347   5.099   6.290   0.113  2.0089 -0.1240 -2.4887
 6978TIP3   OH242348   3.627   1.209  15.784 -0.4295  0.0169  0.0362
 6978TIP3    H142349   3.650   1.267  15.711 -0.0543  0.5068  0.5319
 6978TIP3    H242350   3.657   1.122  15.756 -2.0393 -0.1970 -1.2139
 6979TIP3   OH242351   5.085   5.658   3.750  0.1043  0.2135  0.4886
 6979TIP3    H142352   5.109   5.708   3.672  0.9933 -1.5653 -0.4230
 6979TIP3    H242353   5.010   5.605   3.722  0.2726 -0.2502  0.9085
 6980TIP3   OH242354   1.750   1.503   2.565 -0.2037  0.5685 -0.0571
 6980TIP3    H142355   1.779   1.432   2.508 -1.6337  0.6090 -0.8820
 6980TIP3    H242356   1.717   1.459   2.643 -0.7151  0.3330 -0.3992
 6981TIP3   OH242357   5.297   0.568  11.664 -0.3244 -0.5863  0.7421
 6981TIP3    H142358   5.217   0.596  11.620  0.2435  0.4281  0.3086
 6981TIP3    H242359   5.330   0.496  11.610 -0.9847 -1.0669  0.9754
 6982TIP3   OH242360   1.640   0.455   1.677  0.5590  0.3669  0.9610
 6982TIP3    H142361   1.578   0.389   1.647  0.3209  1.0407 -0.1240
 6982TIP3    H242362   1.723   0.409   1.686  0.5488  0.0332 -0.4194
 6983TIP3   OH242363   0.760   1.799  15.156  0.1781 -0.6310  0.2026
 6983TIP3    H142364   0.749   1.727  15.095 -0.7394  0.0585 -0.4677
 6983TIP3    H242365   0.855   1.816  15.157  0.4305 -1.9573  0.5340
 6984TIP3   OH242366   3.019   4.875  10.845  0.3828  0.8191  0.7467
 6984TIP3    H142367   3.076   4.800  10.829 -1.6417 -0.4233 -1.1876
 6984TIP3    H242368   3.075   4.951  10.830  1.7029 -0.3302 -0.4258
 6985TIP3   OH242369   4.528   1.334  11.312 -0.6459  0.3967  0.3272
 6985TIP3    H142370   4.468   1.272  11.269 -0.8046 -0.3615  1.5775
 6985TIP3    H242371   4.596   1.278  11.349  0.2079  1.1581 -0.0858
 6986TIP3   OH242372   6.433   0.508  13.916  0.3403  0.4770  0.1212
 6986TIP3    H142373   6.401   0.422  13.887  0.6853  0.5341 -0.4408
 6986TIP3    H242374   6.514   0.489  13.962  0.8246  0.5626 -0.6740
 6987TIP3   OH242375   4.680   3.673   3.116 -0.0839  0.8028 -0.2676
 6987TIP3    H142376   4.684   3.642   3.026  0.2297  1.4319 -0.4766
 6987TIP3    H242377   4.726   3.606   3.167  1.6850  1.5042 -0.8680
 6988TIP3   OH242378   6.086   4.560   4.859  0.7375  0.3058 -0.1004
 6988TIP3    H142379   6.029   4.484   4.844  2.0319 -1.0915  1.6438
 6988TIP3    H242380   6.147   4.558   4.784  1.5695 -1.2113  0.5610
 6989TIP3   OH242381   5.374   3.297  12.840  0.0644  0.0781 -0.0900
 6989TIP3    H142382   5.416   3.271  12.922 -0.6952  1.3439  0.7308
 6989TIP3    H242383   5.356   3.390  12.850  2.6605  1.0399 -2.8979
 6990TIP3   OH242384   6.240   3.580   4.688 -0.2175 -0.1895 -0.6898
 6990TIP3    H142385   6.214   3.579   4.596  0.4404  2.5893 -0.9836
 6990TIP3    H242386   6.273   3.668   4.703  0.8722 -0.9437  1.9137
 6991TIP3   OH242387   1.543   4.861   4.171 -0.0800 -0.2639  0.0742
 6991TIP3    H142388   1.516   4.816   4.251  0.5868  0.1175  0.5257
 6991TIP3    H242389   1.463   4.870   4.120 -0.7536  0.5841  1.2433
 6992TIP3   OH242390   0.821   0.483   0.931 -0.0841  0.1449 -0.3028
 6992TIP3    H142391   0.863   0.548   0.875  0.1522  0.9541  0.7706
 6992TIP3    H242392   0.762   0.535   0.987  1.1622 -0.3506  1.5551
 6993TIP3   OH242393   1.452   3.105  15.057 -1.2907 -0.0046  0.3082
 6993TIP3    H142394   1.546   3.112  15.040 -1.0207 -0.0865  1.6159
 6993TIP3    H242395   1.437   3.163  15.132 -2.7675  1.9826 -1.3917
 6994TIP3   OH242396   3.921   4.733  11.511 -0.5405  0.2473  0.0825
 6994TIP3    H142397   3.843   4.777  11.478 -0.1575  2.5692  1.9670
 6994TIP3    H242398   3.905   4.723  11.605  1.3087  0.5657  0.4709
 6995TIP3   OH242399   5.311   2.278   1.920  0.3525  0.1934 -0.4950
 6995TIP3    H142400   5.318   2.188   1.950 -2.1054  0.5181  1.3259
 6995TIP3    H242401   5.277   2.271   1.831  0.4693 -0.6640 -0.4807
 6996TIP3   OH242402   1.286   2.741   3.990  0.0996 -0.0842 -0.6476
 6996TIP3    H142403   1.309   2.779   3.905 -0.8412  0.8872 -0.4961
 6996TIP3    H242404   1.201   2.700   3.975  0.4325 -0.8627 -0.4354
 6997TIP3   OH242405   4.209   6.006  17.328  0.0744 -0.1459  0.3615
 6997TIP3    H142406   4.243   5.918  17.311 -1.2490 -0.7686  0.8154
 6997TIP3    H242407   4.148   6.022  17.256  1.8312  1.2914 -0.9086
 6998TIP3   OH242408   3.036   5.374  11.122  0.3684  0.7383 -0.2180
 6998TIP3    H142409   3.092   5.298  11.138  0.7036  1.1107  0.3905
 6998TIP3    H242410   3.024   5.375  11.027  1.3435  0.6215 -0.3510
 6999TIP3   OH242411   5.733   2.416  15.108  0.0230  0.0739  0.0665
 6999TIP3    H142412   5.730   2.492  15.166  0.7970 -0.3392  0.6612
 6999TIP3    H242413   5.792   2.355  15.151 -1.4752 -1.3631  0.1649
 7000TIP3   OH242414   4.569   0.761  13.874  0.1945  0.0789 -0.0637
 7000TIP3    H142415   4.588   0.671  13.899 -0.3880 -0.1257 -0.3339
 7000TIP3    H242416   4.637   0.783  13.810 -0.2185 -0.5023 -0.7208
 7001TIP3   OH242417   6.022   0.169   4.993  0.0790 -0.5606  0.0706
 7001TIP3    H142418   6.099   0.115   5.007 -0.1355 -0.8221  0.2587
 7001TIP3    H242419   6.039   0.249   5.043  0.6524 -0.1991 -0.6803
 7002TIP3   OH242420   0.666   3.930   4.143  0.6782  0.6137  0.1119
 7002TIP3    H142421   0.739   3.876   4.174 -0.1216 -1.1644 -0.9655
 7002TIP3    H242422   0.701   4.019   4.142  2.0679  0.1351  1.8680
 7003TIP3   OH242423   1.103   6.354   2.288 -0.4150  0.3102  0.1164
 7003TIP3    H142424   1.174   6.378   2.347 -1.2379  2.6910  0.2354
 7003TIP3    H242425   1.023   6.373   2.337 -1.1673 -1.6303 -0.2832
 7004TIP3   OH242426   4.599   1.074   1.064  0.4990 -0.3269 -0.0143
 7004TIP3    H142427   4.674   1.026   1.028 -0.4228 -0.6667 -1.5878
 7004TIP3    H242428   4.526   1.049   1.007 -1.4033 -1.9622  2.8745
 7005TIP3   OH242429   5.967   4.596  17.209  0.5650 -0.1634  0.2422
 7005TIP3    H142430   5.969   4.668  17.272  1.1874 -1.0334  1.2549
 7005TIP3    H242431   6.057   4.563  17.207  0.2651 -0.9930 -0.1056
 7006TIP3   OH242432   3.329   6.089   3.319 -0.1883 -0.0490  0.6937
 7006TIP3    H142433   3.310   6.043   3.400 -2.0776 -0.6928 -0.0577
 7006TIP3    H242434   3.243   6.111   3.283  0.6158  1.6119 -0.3710
 7007TIP3   OH242435   3.653   0.812   3.003  0.0798  0.2607  0.1791
 7007TIP3    H142436   3.715   0.884   2.994  1.4492 -0.9343 -0.1473
 7007TIP3    H242437   3.664   0.782   3.094  1.4002 -1.1904 -0.4338
 7008TIP3   OH242438   2.893   4.614   0.293 -0.1401 -0.1485  0.5230
 7008TIP3    H142439   2.951   4.578   0.360 -2.0814 -2.6250  1.0140
 7008TIP3    H242440   2.812   4.634   0.339 -0.7115  0.4273 -0.6761
 7009TIP3   OH242441   4.139   3.009  11.324 -0.1743  0.5221  0.0947
 7009TIP3    H142442   4.176   3.090  11.360  2.3488  0.0603 -1.2754
 7009TIP3    H242443   4.090   3.037  11.247  0.5720  0.7838 -0.2946
 7010TIP3   OH242444   5.967   5.397   3.187 -0.1988 -0.2049 -0.0285
 7010TIP3    H142445   6.030   5.458   3.149  1.6675 -3.2729 -2.3046
 7010TIP3    H242446   5.909   5.375   3.114  0.7118 -2.9232 -0.0094
 7011TIP3   OH242447   3.286   3.421  14.070 -0.4354 -0.0277  0.1260
 7011TIP3    H142448   3.346   3.379  14.132 -0.4333 -1.8028 -1.0131
 7011TIP3    H242449   3.339   3.488  14.027 -0.2372  0.7262  1.4840
 7012TIP3   OH242450   4.398   6.340   6.608 -0.3843 -0.0936  0.1342
 7012TIP3    H142451   4.386   6.295   6.692 -1.4780  1.4750  0.8830
 7012TIP3    H242452   4.493   6.343   6.595 -0.2470 -1.3996  0.7143
 7013TIP3   OH242453   6.006   5.628   3.901  0.0947  0.1591  0.5713
 7013TIP3    H142454   5.933   5.597   3.955  0.6938 -1.2773  0.6132
 7013TIP3    H242455   5.964   5.673   3.828 -0.7374  2.0911  2.1564
 7014TIP3   OH242456   4.591   1.508   5.641 -0.4357 -0.5239  0.2908
 7014TIP3    H142457   4.677   1.479   5.611  0.2728 -0.4954  2.1735
 7014TIP3    H242458   4.593   1.604   5.631 -0.4549 -0.5669 -0.1486
 7015TIP3   OH242459   5.208   1.274  14.495  0.8378 -0.0430  0.0703
 7015TIP3    H142460   5.217   1.256  14.589  0.4007 -0.6428  0.0019
 7015TIP3    H242461   5.230   1.367  14.487 -1.6192  0.7255  1.1830
 7016TIP3   OH242462   0.733   6.122   4.397 -0.2003 -0.3281  0.0801
 7016TIP3    H142463   0.782   6.154   4.322  0.3079  1.1027  0.9809
 7016TIP3    H242464   0.794   6.064   4.442  0.3986  0.7573  0.7131
 7017TIP3   OH242465   4.408   4.325  15.189  0.5445 -0.0106  0.0413
 7017TIP3    H142466   4.392   4.331  15.283  1.4359 -0.9162  0.2743
 7017TIP3    H242467   4.503   4.317  15.182  0.3480 -2.3175 -0.7719
 7018TIP3   OH242468   5.904   6.111   5.476 -0.0216 -0.1726 -0.5006
 7018TIP3    H142469   5.821   6.155   5.490  0.2939  0.2245  0.1259
 7018TIP3    H242470   5.949   6.165   5.411  0.4843  0.5995  0.4776
 7019TIP3   OH242471   3.280   1.499  16.112  0.0961  0.1299 -0.2900
 7019TIP3    H142472   3.253   1.448  16.188 -1.9663 -1.1757 -1.7926
 7019TIP3    H242473   3.258   1.444  16.037  0.0532  2.2518 -1.9209
 7020TIP3   OH242474   3.785   0.858  15.969 -0.7603  0.4102  0.0432
 7020TIP3    H142475   3.701   0.903  15.972 -0.1796  1.5009  1.4998
 7020TIP3    H242476   3.802   0.834  16.060 -0.3753 -1.5391 -0.4983
 7021TIP3   OH242477   1.849   3.207  12.304 -0.2982 -0.1236  0.4105
 7021TIP3    H142478   1.838   3.223  12.211  1.1955  0.6122  0.3307
 7021TIP3    H242479   1.771   3.245  12.345  0.5880  2.6562 -0.2740
 7022TIP3   OH242480   3.390   4.384   2.424  0.0014 -0.3702  0.3094
 7022TIP3    H142481   3.419   4.452   2.485 -0.5214  1.2901 -1.2235
 7022TIP3    H242482   3.469   4.333   2.405  0.3115 -0.4990  1.8134
 7023TIP3   OH242483   0.967   1.550  12.785 -0.4712  0.3376  0.0321
 7023TIP3    H142484   0.959   1.644  12.770  0.4348  0.2121 -1.4762
 7023TIP3    H242485   0.946   1.539  12.878  0.6070  2.1989  0.5732
 7024TIP3   OH242486   6.614   1.036   4.233  0.2416 -0.6935 -0.1467
 7024TIP3    H142487   6.519   1.028   4.230 -0.0354  1.2108  1.2461
 7024TIP3    H242488   6.629   1.129   4.251  2.3977 -0.8332 -0.9141
 7025TIP3   OH242489   4.817   4.550   2.324 -0.0018  0.1054  0.1623
 7025TIP3    H142490   4.825   4.566   2.230  0.0466  2.4147  0.4963
 7025TIP3    H242491   4.772   4.628   2.357  1.5810  0.2066  2.2798
 7026TIP3   OH242492   4.383   1.403  16.935 -0.3581 -0.8285 -0.4593
 7026TIP3    H142493   4.341   1.482  16.970 -0.5487 -0.5689 -1.2435
 7026TIP3    H242494   4.402   1.425  16.843 -2.1954 -2.3803 -1.2655
 7027TIP3   OH242495   3.860   0.878  15.007  0.3501 -0.0539  0.1056
 7027TIP3    H142496   3.825   0.804  14.956  0.2398 -0.2337  0.4343
 7027TIP3    H242497   3.924   0.838  15.066 -0.1345  0.0234  0.6952
 7028TIP3   OH242498   2.361   1.222   0.546  0.2076 -0.5105  0.4404
 7028TIP3    H142499   2.327   1.177   0.469 -0.1884 -1.8354  1.3477
 7028TIP3    H242500   2.318   1.179   0.620  0.1912  1.0602  1.3906
 7029TIP3   OH242501   4.846   1.592   0.334  0.1413 -0.5795  0.4774
 7029TIP3    H142502   4.910   1.636   0.278 -1.2035  0.4709 -0.2658
 7029TIP3    H242503   4.813   1.520   0.281  0.8264 -1.2670  0.9474
 7030TIP3   OH242504   0.197   0.513   4.413  0.1395  0.4762 -0.3989
 7030TIP3    H142505   0.226   0.600   4.388  0.6826  0.2902 -0.4271
 7030TIP3    H242506   0.117   0.528   4.464  0.1730  0.9808 -0.4912
 7031TIP3   OH242507   2.457   5.918   5.971  0.9657  0.3627 -0.4868
 7031TIP3    H142508   2.454   5.995   5.914  0.2264 -1.1037 -2.5504
 7031TIP3    H242509   2.388   5.934   6.036  0.0254  0.9524 -1.5910
 7032TIP3   OH242510   6.747   1.228  13.756 -0.2105  0.0639 -0.4876
 7032TIP3    H142511   6.785   1.186  13.679  0.5707  0.6769 -0.4498
 7032TIP3    H242512   6.755   1.322  13.739  1.4729  0.2553  1.0088
 7033TIP3   OH242513   2.319   6.738  16.573  0.3184  0.0719 -0.0128
 7033TIP3    H142514   2.316   6.805  16.505  0.8689 -0.8659 -1.0159
 7033TIP3    H242515   2.339   6.657  16.525  0.8650 -0.5973  1.2831
 7034TIP3   OH242516   4.944   5.886   5.416  0.6960  0.2802  0.3471
 7034TIP3    H142517   4.948   5.948   5.343 -1.0715 -0.3382 -0.3241
 7034TIP3    H242518   4.862   5.907   5.461  0.9131 -0.4712  1.1308
 7035TIP3   OH242519   1.534   6.645   0.369  0.0560  0.4173  0.2767
 7035TIP3    H142520   1.596   6.573   0.359 -0.9450 -0.4433  0.2008
 7035TIP3    H242521   1.461   6.608   0.418  0.1213  1.7435  1.4353
 7036TIP3   OH242522   3.582   1.022  11.878 -0.1386  0.1480  0.0286
 7036TIP3    H142523   3.614   0.942  11.921  1.5314  0.7255 -0.0693
 7036TIP3    H242524   3.645   1.090  11.903 -1.6937  1.5326  0.3558
 7037TIP3   OH242525   4.271   1.879   5.849 -0.1258 -0.4330  0.2114
 7037TIP3    H142526   4.273   1.840   5.937 -0.7688 -2.1582 -0.5016
 7037TIP3    H242527   4.290   1.972   5.864 -0.6282 -0.6012  2.2219
 7038TIP3   OH242528   2.031   2.221  12.813  0.1268  0.3976  0.2882
 7038TIP3    H142529   2.001   2.145  12.864 -1.2845  0.1176 -0.9202
 7038TIP3    H242530   2.074   2.183  12.736 -1.2459  0.7920 -0.7034
 7039TIP3   OH242531   4.118   0.245   2.077 -0.2596  0.2227 -0.4367
 7039TIP3    H142532   4.072   0.170   2.116 -1.2635  0.5177 -1.0215
 7039TIP3    H242533   4.095   0.319   2.132  1.3334  0.0005  0.5814
 7040TIP3   OH242534   6.649   4.319   5.555  0.0240  0.1348 -0.3118
 7040TIP3    H142535   6.650   4.412   5.532  1.0497 -0.3510 -2.4713
 7040TIP3    H242536   6.556   4.297   5.561 -0.2341  1.1200 -0.5050
 7041TIP3   OH242537   5.070   0.310   5.068  0.2331 -0.5119 -0.0819
 7041TIP3    H142538   5.124   0.314   5.146  1.5071 -0.8999 -0.9234
 7041TIP3    H242539   5.105   0.236   5.018  0.0582  0.3085 -1.4603
 7042TIP3   OH242540   4.874   5.049  13.608  0.5504 -0.0023  0.1972
 7042TIP3    H142541   4.906   5.048  13.518  0.4538 -1.2393  0.1585
 7042TIP3    H242542   4.953   5.043  13.661  0.5188 -1.3245  0.1348
 7043TIP3   OH242543   5.123   5.208   4.806 -0.2175 -0.4592 -0.1850
 7043TIP3    H142544   5.129   5.122   4.763 -0.5931  0.1287 -1.4733
 7043TIP3    H242545   5.181   5.264   4.755 -1.1762  0.4199 -0.3477
 7044TIP3   OH242546   1.471   0.431   3.916 -0.6674 -0.6648 -0.2436
 7044TIP3    H142547   1.462   0.474   3.831 -0.5327  1.4487  0.7364
 7044TIP3    H242548   1.382   0.407   3.941 -0.8010 -0.5597 -0.6085
 7045TIP3   OH242549   3.210   6.009   4.981  0.2259 -0.3252  0.1633
 7045TIP3    H142550   3.169   6.094   4.996 -0.7482 -0.8421  0.5421
 7045TIP3    H242551   3.139   5.945   4.996  0.7857 -1.1733 -0.6767
 7046TIP3   OH242552   0.430   0.358   2.056  0.7187  0.1744  0.1382
 7046TIP3    H142553   0.472   0.281   2.095  0.9253 -1.0348 -2.3135
 7046TIP3    H242554   0.393   0.326   1.974  0.0197  2.5152 -0.5177
 7047TIP3   OH242555   5.692   1.981  14.996 -0.4278 -0.2357 -0.0262
 7047TIP3    H142556   5.665   1.947  15.081 -0.1472 -1.3328 -0.3470
 7047TIP3    H242557   5.761   2.044  15.016  0.7935 -1.6722  0.5045
 7048TIP3   OH242558   6.333   3.566  17.202 -0.9664 -0.4758  0.3895
 7048TIP3    H142559   6.333   3.652  17.243 -2.3446 -0.0465 -0.4379
 7048TIP3    H242560   6.272   3.575  17.128 -0.6815 -1.9911 -0.0584
 7049TIP3   OH242561   6.113   2.169  12.474 -0.4374  0.3566 -0.3407
 7049TIP3    H142562   6.087   2.228  12.403  0.3696  0.2762 -0.7192
 7049TIP3    H242563   6.207   2.182  12.483 -0.2551 -0.7996 -0.3647
 7050TIP3   OH242564   0.991   3.548  10.623  0.1411 -0.6835  0.2298
 7050TIP3    H142565   1.067   3.499  10.593 -0.3175 -0.8580 -0.7116
 7050TIP3    H242566   0.918   3.486  10.618 -0.1755 -0.3413  0.4854
 7051TIP3   OH242567   6.075   2.453  13.475  0.0981  0.2298 -0.0689
 7051TIP3    H142568   6.031   2.476  13.394 -1.4590  0.6674  0.8644
 7051TIP3    H242569   6.119   2.370  13.456  2.0277  1.5832 -2.1233
 7052TIP3   OH242570   1.552   6.361  15.290 -0.3674  0.2204 -0.1381
 7052TIP3    H142571   1.593   6.400  15.366 -0.8941 -0.5585  0.5648
 7052TIP3    H242572   1.498   6.430  15.252 -1.0386  0.2886  0.8996
 7053TIP3   OH242573   2.789   2.046   0.237  0.7728  0.2942  0.2367
 7053TIP3    H142574   2.715   2.089   0.194  1.0473 -0.2236 -0.7779
 7053TIP3    H242575   2.865   2.070   0.184  1.4096  1.0720  1.4378
 7054TIP3   OH242576   2.358   0.682   3.239 -0.3385 -0.3853 -0.1698
 7054TIP3    H142577   2.442   0.719   3.212  0.0887 -0.2839  1.2428
 7054TIP3    H242578   2.296   0.715   3.174  0.8466 -1.3693 -1.9180
 7055TIP3   OH242579   5.809   0.886  12.565 -0.5210  0.5257 -0.3511
 7055TIP3    H142580   5.818   0.975  12.598 -2.0402  1.2634 -1.7879
 7055TIP3    H242581   5.897   0.849  12.573  0.2363  2.2724 -0.0854
 7056TIP3   OH242582   1.206   6.594   4.838 -0.0417  0.4990 -0.2465
 7056TIP3    H142583   1.265   6.658   4.876 -0.0918  0.4789 -0.1340
 7056TIP3    H242584   1.263   6.532   4.793 -0.0309  0.9845 -0.9174
 7057TIP3   OH242585   3.762   3.203  16.365 -0.2328  0.0591  0.6417
 7057TIP3    H142586   3.714   3.285  16.366 -0.2603  0.0476  0.3866
 7057TIP3    H242587   3.833   3.215  16.428  0.2831  0.5962 -0.0258
 7058TIP3   OH242588   6.731   4.113   4.391 -0.2723 -0.5237 -0.1679
 7058TIP3    H142589   6.766   4.024   4.390  0.7042 -0.1648 -1.5805
 7058TIP3    H242590   6.794   4.164   4.441 -1.5131 -0.8348  1.8057
 7059TIP3   OH242591   2.127   4.362   0.042  0.1275 -0.4645 -0.3205
 7059TIP3    H142592   2.174   4.278   0.042 -2.8633 -2.2619  0.1563
 7059TIP3    H242593   2.159   4.407   0.120  1.1814 -1.4756 -0.1370
 7060TIP3   OH242594   6.279   3.287  14.515 -0.4866 -0.2117 -0.4088
 7060TIP3    H142595   6.358   3.253  14.557 -0.6031  0.5289  0.4496
 7060TIP3    H242596   6.256   3.221  14.450 -0.3058 -1.4335  0.7133
 7061TIP3   OH242597   6.344   2.015  15.027 -0.3716  0.2896 -0.0979
 7061TIP3    H142598   6.318   2.103  14.999 -1.2227 -0.2011 -0.9304
 7061TIP3    H242599   6.275   1.988  15.088 -1.5991 -0.8093 -1.8912
 7062TIP3   OH242600   2.408   6.596   5.629  0.7664 -0.0018  0.0269
 7062TIP3    H142601   2.390   6.519   5.575  1.3040  0.0702 -0.2632
 7062TIP3    H242602   2.339   6.596   5.695  0.2407 -0.2308 -0.5182
 7063TIP3   OH242603   0.576   5.210   3.279 -0.0443 -0.6398  0.0346
 7063TIP3    H142604   0.620   5.171   3.203 -0.8845 -0.8686 -0.3486
 7063TIP3    H242605   0.640   5.271   3.314 -0.0806  0.4278 -1.6232
 7064TIP3   OH242606   5.800   5.110  16.875  0.2792 -0.2475  0.4902
 7064TIP3    H142607   5.809   5.176  16.806 -0.8809  0.2858  0.8286
 7064TIP3    H242608   5.890   5.089  16.899  0.7758 -1.1838 -1.8410
 7065TIP3   OH242609   4.200   4.799  14.576  0.0948  0.6207 -0.2825
 7065TIP3    H142610   4.199   4.816  14.482 -1.9610  1.7880 -0.0981
 7065TIP3    H242611   4.168   4.880  14.616 -1.9422 -0.8126  1.2101
 7066TIP3   OH242612   0.411   1.680   1.225 -0.0051 -0.1078  0.2155
 7066TIP3    H142613   0.440   1.763   1.186 -0.8259 -0.5104 -1.3470
 7066TIP3    H242614   0.315   1.683   1.220 -0.0544 -1.0118  0.4384
 7067TIP3   OH242615   0.372   5.214   1.434  0.3949  0.1630 -0.1553
 7067TIP3    H142616   0.411   5.130   1.460  0.1621  0.4055  1.0476
 7067TIP3    H242617   0.337   5.250   1.516  0.7317  1.5625 -0.6040
 7068TIP3   OH242618   6.272   5.859  14.818  0.0673 -0.0593 -0.4353
 7068TIP3    H142619   6.334   5.896  14.755  0.6884 -1.0932 -0.4580
 7068TIP3    H242620   6.236   5.782  14.774  1.6289 -1.6857  0.9889
 7069TIP3   OH242621   3.817   5.356   1.981 -0.4786 -0.8180 -0.0432
 7069TIP3    H142622   3.799   5.436   2.030  0.7447 -0.1316 -0.6728
 7069TIP3    H242623   3.806   5.286   2.045  1.6712  0.0816  1.4243
 7070TIP3   OH242624   4.040   3.199   1.887 -0.6483 -0.0599  0.2799
 7070TIP3    H142625   4.099   3.267   1.852 -0.7760 -0.2694 -0.3593
 7070TIP3    H242626   4.097   3.141   1.937 -0.1854 -0.6550 -0.9108
 7071TIP3   OH242627   0.131   2.498  14.597  0.1751 -0.4480  0.2208
 7071TIP3    H142628   0.163   2.413  14.566 -0.2591 -0.6841  0.4160
 7071TIP3    H242629   0.135   2.555  14.521  1.3320 -0.3969  0.3017
 7072TIP3   OH242630   1.276   5.231  14.136 -0.2574 -0.3821  0.0537
 7072TIP3    H142631   1.264   5.150  14.186  0.2875  1.0658  2.6950
 7072TIP3    H242632   1.353   5.272  14.175 -0.3446  1.2851 -1.4217
 7073TIP3   OH242633   4.919   0.528  16.732  0.4445  0.2018  0.0522
 7073TIP3    H142634   4.859   0.601  16.743  0.4259 -0.0502  2.1235
 7073TIP3    H242635   4.866   0.451  16.753  1.0626 -0.1726  0.2712
 7074TIP3   OH242636   4.605   1.598  17.087  0.9274  0.0987 -0.0072
 7074TIP3    H142637   4.527   1.552  17.055  0.9214  0.3038 -0.2804
 7074TIP3    H242638   4.668   1.528  17.105  0.9596 -0.0120 -0.5365
 7075TIP3   OH242639   4.267   3.485   2.052  0.6293 -0.7047  0.2986
 7075TIP3    H142640   4.341   3.545   2.053 -0.5039  0.7942 -0.5517
 7075TIP3    H242641   4.242   3.481   1.959 -1.3946  0.2095  0.7616
 7076TIP3   OH242642   1.852   5.802   4.662  0.3474 -0.1167  0.4420
 7076TIP3    H142643   1.828   5.729   4.720  0.7712  0.2549  1.0973
 7076TIP3    H242644   1.931   5.772   4.618  0.3790 -0.1522  0.5224
 7077TIP3   OH242645   0.493   5.567   1.337 -0.0142  0.5704 -0.3953
 7077TIP3    H142646   0.508   5.527   1.423 -0.9766 -1.0340 -0.9341
 7077TIP3    H242647   0.533   5.506   1.275 -0.9306  0.7705 -1.2092
 7078TIP3   OH242648   3.104   0.629  13.439  0.1328  0.6546 -0.0201
 7078TIP3    H142649   3.147   0.709  13.470  0.8652 -0.5105  2.1827
 7078TIP3    H242650   3.171   0.586  13.385 -0.2298  1.4588 -1.1307
 7079TIP3   OH242651   1.719   3.096   3.542 -0.5979  0.2213 -0.1748
 7079TIP3    H142652   1.648   3.084   3.479 -0.2895  2.6001 -1.0889
 7079TIP3    H242653   1.681   3.153   3.609  0.1239  0.6704 -0.1337
 7080TIP3   OH242654   0.916   5.035  12.022  0.4834  0.2366  0.0671
 7080TIP3    H142655   0.967   4.972  12.073  1.6206  0.9302 -0.1707
 7080TIP3    H242656   0.845   5.061  12.081  0.9954  0.0124  0.8044
 7081TIP3   OH242657   2.965   2.049  13.922 -0.5826  0.2784  0.2958
 7081TIP3    H142658   2.960   1.964  13.965 -2.7235 -0.2118 -0.7891
 7081TIP3    H242659   2.947   2.031  13.830 -0.5405  1.8270 -0.0418
 7082TIP3   OH242660   1.285   2.759  15.832 -0.1200 -0.2218  0.0187
 7082TIP3    H142661   1.231   2.750  15.911  0.8060 -1.8528  0.5261
 7082TIP3    H242662   1.274   2.676  15.786  2.3187 -0.8822  0.4496
 7083TIP3   OH242663   6.209   1.204   3.085 -0.3284  0.2920 -0.3917
 7083TIP3    H142664   6.208   1.244   2.999  1.2607 -0.1895 -0.6719
 7083TIP3    H242665   6.222   1.110   3.068  0.5127  0.2511  0.3595
 7084TIP3   OH242666   3.192   4.243  11.106  0.5265 -0.4349  0.2059
 7084TIP3    H142667   3.284   4.216  11.112  0.7297  0.4258  1.1362
 7084TIP3    H242668   3.174   4.244  11.012  2.0353  1.1680 -0.1255
 7085TIP3   OH242669   5.562   3.613  14.986 -0.4841 -0.0385  0.1409
 7085TIP3    H142670   5.506   3.588  15.059  3.2092 -1.0170  2.9603
 7085TIP3    H242671   5.577   3.531  14.938  1.4497 -0.7505  1.7734
 7086TIP3   OH242672   0.027   3.454   2.926  0.5918 -0.0136  0.7863
 7086TIP3    H142673  -0.041   3.427   2.865  0.6335  0.1522  0.6642
 7086TIP3    H242674  -0.020   3.486   3.003  0.4557  1.7761  0.0256
 7087TIP3   OH242675   6.309   1.898  14.756  0.9054 -0.6396 -0.0032
 7087TIP3    H142676   6.279   1.989  14.766  1.0522 -0.6324  0.4060
 7087TIP3    H242677   6.255   1.862  14.686  1.8671  0.2185 -1.2546
 7088TIP3   OH242678   2.554   6.340  12.659 -0.0854 -0.4975  0.4423
 7088TIP3    H142679   2.571   6.247  12.668  0.5323 -0.2772  1.7355
 7088TIP3    H242680   2.567   6.358  12.566  0.2392 -1.6022  0.2617
 7089TIP3   OH242681   2.552   0.518  10.332 -0.7931  0.1699 -0.3177
 7089TIP3    H142682   2.575   0.583  10.266  0.5788  1.5416  1.4351
 7089TIP3    H242683   2.553   0.566  10.415 -0.6915 -1.8710  0.9311
 7090TIP3   OH242684   4.867   6.115  15.110  0.7255 -0.1804 -0.2017
 7090TIP3    H142685   4.844   6.083  15.197  1.8534 -0.4005  0.0335
 7090TIP3    H242686   4.789   6.162  15.080 -0.0915 -1.0807  0.4425
 7091TIP3   OH242687   6.108   1.318  12.321 -0.0871  0.5413 -0.5583
 7091TIP3    H142688   6.089   1.388  12.384  0.8371  1.5509 -1.3620
 7091TIP3    H242689   6.108   1.238  12.373 -0.6044  1.2043  0.4896
 7092TIP3   OH242690   2.364   3.258  14.317 -0.0905 -0.0562  0.3846
 7092TIP3    H142691   2.321   3.337  14.286 -2.9032 -1.6972 -0.2222
 7092TIP3    H242692   2.302   3.218  14.377  1.1480 -1.9132  0.5267
 7093TIP3   OH242693   0.793   0.285   5.253 -0.7170  0.7116 -0.1278
 7093TIP3    H142694   0.857   0.234   5.304  0.5471  1.8764 -0.4727
 7093TIP3    H242695   0.790   0.241   5.168  0.5502  1.3129 -0.5076
 7094TIP3   OH242696   3.384   2.825  15.605  0.4004  0.2508 -0.0085
 7094TIP3    H142697   3.460   2.774  15.631 -0.7148 -0.5420  1.8779
 7094TIP3    H242698   3.314   2.760  15.594 -0.7935  1.2292  1.4336
 7095TIP3   OH242699   1.226   1.196   5.514  0.0598 -0.2639 -0.4107
 7095TIP3    H142700   1.305   1.170   5.466  1.2793  1.2735  0.6789
 7095TIP3    H242701   1.257   1.257   5.580 -2.2167  1.4384 -0.8019
 7096TIP3   OH242702   3.061   2.990  13.287 -0.1233  0.2749 -0.4619
 7096TIP3    H142703   3.061   2.976  13.193  2.5482  2.0755 -0.8125
 7096TIP3    H242704   3.023   3.077  13.299  0.8805  0.6700 -0.0367
 7097TIP3   OH242705   0.464   2.686   1.215 -0.0363 -0.3250 -0.6529
 7097TIP3    H142706   0.449   2.592   1.200 -1.6290 -0.1830 -0.0782
 7097TIP3    H242707   0.487   2.691   1.308 -2.7669  0.1126  0.0627
 7098TIP3   OH242708   0.233   4.593  16.486 -0.2461 -0.0808 -0.0349
 7098TIP3    H142709   0.225   4.498  16.495 -1.9567 -0.0157 -0.4898
 7098TIP3    H242710   0.147   4.627  16.512 -0.0986  1.2408 -1.1682
 7099TIP3   OH242711   3.129   4.435  11.685  0.4478 -0.3980  0.2503
 7099TIP3    H142712   3.093   4.522  11.668 -0.8394 -0.4412  2.3488
 7099TIP3    H242713   3.128   4.391  11.600 -0.0497  1.2177 -0.6218
 7100TIP3   OH242714   4.994   5.704   3.028 -0.3693 -0.2370  0.0786
 7100TIP3    H142715   5.040   5.750   3.098  0.4929 -3.0124  1.4993
 7100TIP3    H242716   4.902   5.707   3.054 -0.1725 -0.3365  0.8365
 7101TIP3   OH242717   3.246   2.362   3.763 -0.0101  0.2566  0.2611
 7101TIP3    H142718   3.215   2.433   3.820 -2.9050 -0.8310  0.2186
 7101TIP3    H242719   3.252   2.286   3.821 -1.6597 -0.5364 -0.5356
 7102TIP3   OH242720   3.182   3.689  11.191  0.2121  0.1529  0.7705
 7102TIP3    H142721   3.188   3.765  11.249 -2.8667  1.7811 -0.7799
 7102TIP3    H242722   3.118   3.631  11.234 -1.9661  1.2972 -0.7390
 7103TIP3   OH242723   4.703   2.095   0.429  0.8467 -0.3388 -0.5338
 7103TIP3    H142724   4.614   2.127   0.417  0.7628  0.3800  1.6729
 7103TIP3    H242725   4.705   2.060   0.518  2.6013 -0.9488 -0.7686
 7104TIP3   OH242726   1.749   1.130   3.901 -0.4973 -0.0644  0.2766
 7104TIP3    H142727   1.686   1.089   3.843 -1.2722 -0.0263  1.0767
 7104TIP3    H242728   1.717   1.111   3.989  0.4675  0.1751  0.6933
 7105TIP3   OH242729   0.080   4.312  14.404 -0.5449  0.2254  0.8771
 7105TIP3    H142730   0.014   4.378  14.382 -0.5780  0.1317  0.6917
 7105TIP3    H242731   0.099   4.269  14.321 -1.9147 -1.2783  1.2845
 7106TIP3   OH242732   1.685   1.897   3.383 -0.2354 -0.1355 -0.2319
 7106TIP3    H142733   1.763   1.877   3.434  0.5681  0.1379 -1.3300
 7106TIP3    H242734   1.613   1.863   3.435  0.7330 -1.7554  0.0962
 7107TIP3   OH242735   5.095   4.846  16.780  0.3707 -0.2714 -0.3612
 7107TIP3    H142736   5.056   4.933  16.768  0.6671 -0.0688  0.1213
 7107TIP3    H242737   5.134   4.849  16.868 -0.0047 -1.0452 -0.1650
 7108TIP3   OH242738   1.204   6.274  16.001 -0.5624  0.4615  0.6080
 7108TIP3    H142739   1.194   6.274  15.906 -1.1776  0.8219  0.6714
 7108TIP3    H242740   1.165   6.191  16.029  1.6623 -0.7403  0.3530
 7109TIP3   OH242741   2.228   4.468  13.424  1.1239  0.2297 -0.0405
 7109TIP3    H142742   2.146   4.452  13.379  0.0977  0.2282  1.7314
 7109TIP3    H242743   2.264   4.381  13.441  0.6954  0.1527  0.5252
 7110TIP3   OH242744   1.719   0.895  14.373 -0.3936 -0.4728  0.2382
 7110TIP3    H142745   1.668   0.916  14.295 -1.3567 -1.5584  0.5469
 7110TIP3    H242746   1.662   0.837  14.424  0.0338  0.5649  1.9770
 7111TIP3   OH242747   1.391   4.726  17.375  0.0904  0.0816  0.3727
 7111TIP3    H142748   1.457   4.710  17.442  0.2763  1.1504  0.4566
 7111TIP3    H242749   1.385   4.643  17.327  2.3190  0.2719 -0.3521
 7112TIP3   OH242750   1.712   2.722   3.677  0.4097 -0.2284 -0.2637
 7112TIP3    H142751   1.756   2.733   3.593 -0.4617 -1.8884 -0.9760
 7112TIP3    H242752   1.734   2.802   3.726  0.5431  1.0002 -2.2141
 7113TIP3   OH242753   1.256   2.433   3.460 -1.0850 -0.1610 -0.0909
 7113TIP3    H142754   1.345   2.468   3.464 -0.9532 -0.3361 -1.1511
 7113TIP3    H242755   1.238   2.424   3.367 -1.2219 -2.6358  0.0995
 7114TIP3   OH242756   1.280   3.389   4.308  0.0520  0.1236  0.2235
 7114TIP3    H142757   1.201   3.367   4.259  0.5293  0.6237 -0.7984
 7114TIP3    H242758   1.332   3.309   4.307 -0.7588 -0.4610  1.5912
 7115TIP3   OH242759   1.964   2.767  16.567  0.3153 -0.1421 -0.1514
 7115TIP3    H142760   1.999   2.856  16.559 -0.5155  0.2224  0.1870
 7115TIP3    H242761   1.873   2.773  16.539 -0.4077 -0.4038  1.9559
 7116TIP3   OH242762   0.210   0.589  12.984  0.7574  0.5163 -0.3938
 7116TIP3    H142763   0.176   0.535  13.055  3.1468 -0.6875 -0.0617
 7116TIP3    H242764   0.178   0.677  13.005 -1.2096 -0.3163  0.3889
 7117TIP3   OH242765   6.021   4.251  16.869 -0.0543  0.1423  0.0053
 7117TIP3    H142766   5.990   4.198  16.796 -1.1498 -0.2167  0.7049
 7117TIP3    H242767   5.980   4.212  16.946  1.8673 -0.1049  0.9401
 7118TIP3   OH242768   1.606   5.076  11.982 -0.4401 -0.3334  0.6110
 7118TIP3    H142769   1.554   5.021  12.041 -0.6271 -0.3433  0.4398
 7118TIP3    H242770   1.542   5.135  11.941 -0.5179 -1.1977 -0.5604
 7119TIP3   OH242771   4.665   3.560  14.769  0.1013 -0.8723  0.1441
 7119TIP3    H142772   4.646   3.515  14.686  0.0075 -1.1548  0.3194
 7119TIP3    H242773   4.622   3.645  14.760  3.9124  1.1334 -2.0890
 7120TIP3   OH242774   1.979   0.759  15.938  0.0408  0.2771  0.2457
 7120TIP3    H142775   1.900   0.806  15.965  0.1202 -0.2869  1.5435
 7120TIP3    H242776   1.963   0.736  15.846 -1.1456  0.4771  0.3834
 7121TIP3   OH242777   1.911   2.288  11.617 -0.4035 -0.1980  0.1947
 7121TIP3    H142778   1.929   2.373  11.656  0.0606  0.7204 -1.8748
 7121TIP3    H242779   1.849   2.307  11.546  0.0255 -1.5224 -0.5696
 7122TIP3   OH242780   2.323   4.009   0.919  0.4348 -0.3188  0.0779
 7122TIP3    H142781   2.393   4.072   0.905  0.7214 -0.9940 -1.7364
 7122TIP3    H242782   2.359   3.945   0.981  1.2270 -0.3524 -0.4122
 7123TIP3   OH242783   5.639   2.660  11.500 -0.1648  0.6748 -0.3821
 7123TIP3    H142784   5.707   2.664  11.567 -1.1548  1.1148  0.6296
 7123TIP3    H242785   5.635   2.567  11.476 -0.8685  0.2275  1.3237
 7124TIP3   OH242786   3.309   6.491  13.044 -0.0629 -0.0924 -0.2223
 7124TIP3    H142787   3.392   6.485  12.998 -0.6032 -0.2338 -1.2172
 7124TIP3    H242788   3.319   6.433  13.120  1.0935  0.6930  0.2545
 7125TIP3   OH242789   6.382   4.506   4.782  0.2464  0.1101 -0.2560
 7125TIP3    H142790   6.360   4.583   4.730 -2.4976 -1.0047 -0.9171
 7125TIP3    H242791   6.430   4.540   4.857 -2.1051  2.7130  0.2290
 7126TIP3   OH242792   2.759   2.385  11.299 -0.4998  0.2307  0.2015
 7126TIP3    H142793   2.725   2.327  11.230  0.6973  0.3598 -0.5261
 7126TIP3    H242794   2.852   2.394  11.279 -0.1676  0.4497  1.7250
 7127TIP3   OH242795   0.526   6.769   6.308 -0.4317 -0.1322 -0.5839
 7127TIP3    H142796   0.561   6.841   6.361  0.0124 -0.1777 -0.8030
 7127TIP3    H242797   0.431   6.779   6.312 -0.3681  1.3588 -1.8171
 7128TIP3   OH242798   4.394   3.303   4.423  0.5055  1.1607 -0.5054
 7128TIP3    H142799   4.402   3.388   4.465  0.7206  1.3363 -0.8878
 7128TIP3    H242800   4.403   3.239   4.494 -2.9325  1.4397  0.3699
 7129TIP3   OH242801   4.415   5.340   6.221 -0.0984  0.6124 -0.3176
 7129TIP3    H142802   4.348   5.273   6.235 -1.2664  1.3357 -2.1647
 7129TIP3    H242803   4.414   5.392   6.301  0.0122 -0.8365  0.6727
 7130TIP3   OH242804   1.081   0.263  12.709 -0.0433  0.4900  0.3232
 7130TIP3    H142805   1.069   0.237  12.618  1.2775  0.7900  0.0515
 7130TIP3    H242806   1.045   0.190  12.760  1.2538 -0.7225 -0.4402
 7131TIP3   OH242807   5.720   5.853  14.763  0.2466 -0.2106  0.2888
 7131TIP3    H142808   5.813   5.841  14.782  0.0857 -1.2358  0.4908
 7131TIP3    H242809   5.682   5.887  14.844  0.3142 -0.4929  0.4382
 7132TIP3   OH242810   0.890   2.918   4.415  0.2301 -0.3412 -0.2306
 7132TIP3    H142811   0.908   2.824   4.414 -3.1692 -1.1414 -2.2260
 7132TIP3    H242812   0.852   2.935   4.329 -1.1023  2.4591  0.8139
 7133TIP3   OH242813   0.865   4.497  15.041  0.1457  0.1314 -0.3191
 7133TIP3    H142814   0.940   4.441  15.024  0.3174 -0.0309  0.8823
 7133TIP3    H242815   0.808   4.445  15.098  0.7948  1.4994  1.7131
 7134TIP3   OH242816   1.625   5.724  12.732 -0.2675 -0.8849  0.1482
 7134TIP3    H142817   1.660   5.646  12.688  1.5385  0.6523 -1.3153
 7134TIP3    H242818   1.530   5.716  12.724 -0.0895 -2.4866 -0.7526
 7135TIP3   OH242819   1.815   6.735   1.120  0.1270  0.0416  0.0915
 7135TIP3    H142820   1.760   6.696   1.052  0.9886  0.5018 -0.8969
 7135TIP3    H242821   1.811   6.673   1.193 -0.2955 -0.7858 -0.6145
 7136TIP3   OH242822   1.716   4.015   4.628 -0.3341 -0.3028 -0.0814
 7136TIP3    H142823   1.801   3.984   4.660 -0.6665 -0.3792  0.7438
 7136TIP3    H242824   1.679   4.065   4.701 -0.4546  0.7986 -0.8830
 7137TIP3   OH242825   0.199   3.218  17.138  0.3524 -0.0659  0.0141
 7137TIP3    H142826   0.226   3.225  17.046  3.5306  0.4018  0.8692
 7137TIP3    H242827   0.109   3.250  17.138  1.1130  2.5522 -2.5747
 7138TIP3   OH242828   0.566   6.653  12.272  0.3500 -0.5708  0.7527
 7138TIP3    H142829   0.525   6.569  12.293  0.7252 -1.1155 -0.5780
 7138TIP3    H242830   0.643   6.629  12.219  0.5615  0.6033  0.5100
 7139TIP3   OH242831   1.235   3.289   3.410 -0.4572  0.5372  0.4558
 7139TIP3    H142832   1.221   3.201   3.445  1.5091 -0.3569 -0.7871
 7139TIP3    H242833   1.175   3.295   3.336 -0.8688  0.4062  0.7745
 7140TIP3   OH242834   3.843   4.074   0.075  0.4671  0.7382 -0.0541
 7140TIP3    H142835   3.774   4.069   0.141  2.2771  0.5138  1.9701
 7140TIP3    H242836   3.842   4.165   0.046 -0.5009  0.7998  0.1276
 7141TIP3   OH242837   1.003   2.260  14.351  0.1810 -0.0154  0.2282
 7141TIP3    H142838   1.027   2.172  14.322 -0.0745  0.3386 -1.1259
 7141TIP3    H242839   0.921   2.279  14.306  0.2347  0.9174  0.4949
 7142TIP3   OH242840   6.238   2.263  14.968  0.5161 -0.2684 -0.0520
 7142TIP3    H142841   6.231   2.334  15.031  1.5361  0.2490 -0.5048
 7142TIP3    H242842   6.158   2.211  14.982  0.6436 -0.0877  1.5475
 7143TIP3   OH242843   5.894   2.405   4.842  0.0352  0.1070 -0.3675
 7143TIP3    H142844   5.806   2.427   4.874 -0.3405  0.7268 -1.7631
 7143TIP3    H242845   5.952   2.455   4.900 -0.4295 -1.2168  1.3237
 7144TIP3   OH242846   0.561   4.593   4.989  0.6959  0.1566  0.6242
 7144TIP3    H142847   0.546   4.554   5.075 -0.4416 -0.4110  0.1855
 7144TIP3    H242848   0.496   4.663   4.983 -1.2739 -1.6607 -0.8844
 7145TIP3   OH242849   2.999   3.020  13.805  0.0741 -0.3634 -0.1185
 7145TIP3    H142850   2.962   2.932  13.801  3.2501 -1.8050 -0.9381
 7145TIP3    H242851   3.050   3.021  13.886 -0.3258  0.9402  0.1480
 7146TIP3   OH242852   1.600   3.765   0.430 -0.4567  0.1316  0.2749
 7146TIP3    H142853   1.625   3.799   0.515  0.5537 -1.1498  0.5170
 7146TIP3    H242854   1.673   3.709   0.403 -1.2095 -0.3130 -0.9597
 7147TIP3   OH242855   1.501   4.919  14.889  0.6480 -0.1950  0.0667
 7147TIP3    H142856   1.508   4.980  14.815  2.6043 -0.0586  0.2938
 7147TIP3    H242857   1.468   4.838  14.851 -1.1561  0.7026 -0.4020
 7148TIP3   OH242858   0.729   3.792  14.349 -0.0938 -0.3511  0.0396
 7148TIP3    H142859   0.806   3.768  14.400  1.0135  2.1680 -0.2944
 7148TIP3    H242860   0.655   3.780  14.410  0.8782 -0.1158  1.3122
 7149TIP3   OH242861   6.180   5.855   4.887  0.5443  0.5877 -0.3391
 7149TIP3    H142862   6.237   5.799   4.941  0.6046 -1.4416 -2.3522
 7149TIP3    H242863   6.093   5.844   4.926  0.7027 -0.3149 -0.2058
 7150TIP3   OH242864   4.049   5.437  15.161 -0.2043  0.2208  0.3462
 7150TIP3    H142865   4.064   5.486  15.242  0.4469  1.4207 -0.4581
 7150TIP3    H242866   4.086   5.493  15.092 -0.9076 -0.6781 -0.8033
 7151TIP3   OH242867   6.459   4.191  12.911  0.3289  0.0382  0.2386
 7151TIP3    H142868   6.493   4.217  12.997  2.6975 -0.3334 -0.4981
 7151TIP3    H242869   6.417   4.106  12.926 -0.2068  0.4595  1.1953
 7152TIP3   OH242870   1.310   4.625  14.264 -0.3739  0.3559 -0.5979
 7152TIP3    H142871   1.389   4.679  14.273  0.9911 -1.8184  4.4713
 7152TIP3    H242872   1.246   4.667  14.321 -0.2067 -1.6477  1.2061
 7153TIP3   OH242873   4.515   3.207   6.592 -0.5342 -0.2575 -0.0107
 7153TIP3    H142874   4.564   3.244   6.665 -1.4789  0.2372  0.3871
 7153TIP3    H242875   4.500   3.116   6.617  1.6250 -0.9105 -0.9032
 7154TIP3   OH242876   3.132   5.477  17.200  0.0364  0.5280 -0.2104
 7154TIP3    H142877   3.068   5.519  17.142 -0.8857  0.4604  0.7298
 7154TIP3    H242878   3.090   5.478  17.286  0.4876 -1.2687  0.0704
 7155TIP3   OH242879   2.581   1.843  13.530 -0.1649 -0.5791 -0.6854
 7155TIP3    H142880   2.539   1.888  13.603  0.4081  0.8565 -1.2119
 7155TIP3    H242881   2.658   1.801  13.569  1.1188  1.6189 -0.7075
 7156TIP3   OH242882   2.269   3.815  14.067  0.5952 -0.5399  0.3072
 7156TIP3    H142883   2.227   3.735  14.034  0.9521 -0.2087 -0.9925
 7156TIP3    H242884   2.196   3.875  14.084  0.4615 -0.2504 -1.1749
 7157TIP3   OH242885   2.158   5.327  13.485 -0.0055  0.0925  0.3385
 7157TIP3    H142886   2.106   5.283  13.552  1.6885  0.4699  1.9867
 7157TIP3    H242887   2.138   5.420  13.496 -0.1039  0.1179 -0.0352
 7158TIP3   OH242888   5.254   2.352   5.419 -0.2319  0.5908  0.3997
 7158TIP3    H142889   5.269   2.306   5.336  1.1541 -1.3496  1.6249
 7158TIP3    H242890   5.162   2.336   5.439  0.1205 -1.5265  0.6202
 7159TIP3   OH242891   1.733   0.742  11.024  0.7661 -0.6318 -0.3385
 7159TIP3    H142892   1.707   0.817  11.076 -0.3018 -1.4676  0.3708
 7159TIP3    H242893   1.820   0.719  11.057  0.5768 -0.4643  0.2907
 7160TIP3   OH242894   2.107   2.366  12.159 -0.2199 -0.1269  0.2812
 7160TIP3    H142895   2.186   2.392  12.207  0.5892 -3.2631  0.8282
 7160TIP3    H242896   2.139   2.326  12.079 -1.3015 -0.6540  0.0880
 7161TIP3   OH242897   6.198   3.386  13.410 -0.3242  0.5838  0.1503
 7161TIP3    H142898   6.165   3.406  13.497 -0.1613 -1.3393  0.6868
 7161TIP3    H242899   6.175   3.294  13.395  0.5617  0.5718 -1.4174
 7162TIP3   OH242900   0.408   6.719  16.171 -0.4589 -0.4783  0.0091
 7162TIP3    H142901   0.412   6.776  16.094 -2.2605 -0.2384  0.0431
 7162TIP3    H242902   0.487   6.739  16.221 -0.5673  1.2759 -0.4742
 7163TIP3   OH242903   6.151   0.412   0.634  0.2666 -0.2526  0.1176
 7163TIP3    H142904   6.185   0.346   0.572  1.1196  1.1120 -0.9284
 7163TIP3    H242905   6.057   0.417   0.614  0.5050  0.0702 -1.0089
 7164TIP3   OH242906   3.233   3.684   3.282 -0.5609  0.4396 -0.3243
 7164TIP3    H142907   3.294   3.751   3.252 -1.0336  1.2921  0.5838
 7164TIP3    H242908   3.279   3.641   3.355 -0.6541  0.4412 -0.2644
 7165TIP3   OH242909   3.011   1.524   5.724  0.0728 -0.3212  0.9270
 7165TIP3    H142910   3.041   1.502   5.812 -2.2985  0.3713  2.0010
 7165TIP3    H242911   2.941   1.589   5.738  0.3402  0.6268 -1.5371
 7166TIP3   OH242912   5.766   2.867   3.181  0.4101 -0.7030 -0.1691
 7166TIP3    H142913   5.858   2.887   3.195 -0.0262  0.9973  0.4519
 7166TIP3    H242914   5.748   2.899   3.093  0.6511 -2.0930 -0.7641
 7167TIP3   OH242915   2.502   0.643  11.435 -0.0854  0.6672  0.1655
 7167TIP3    H142916   2.549   0.645  11.351 -0.0744 -0.6090  0.1155
 7167TIP3    H242917   2.570   0.652  11.501 -0.0202  1.0542  0.0439
 7168TIP3   OH242918   2.779   3.272  16.126 -0.2730  0.4033  0.0858
 7168TIP3    H142919   2.807   3.186  16.094  1.0516  1.2420 -1.1841
 7168TIP3    H242920   2.789   3.330  16.050  0.8295  2.0675  1.4084
 7169TIP3   OH242921   4.536   5.271   2.789 -0.2015  0.6438  0.0303
 7169TIP3    H142922   4.622   5.242   2.821 -1.5246 -1.4045  2.1254
 7169TIP3    H242923   4.532   5.238   2.699  1.3969  1.3192 -0.3267
 7170TIP3   OH242924   5.977   6.389  10.921 -0.5409 -0.1313  0.3891
 7170TIP3    H142925   6.034   6.325  10.880 -0.9645  0.8182 -1.8618
 7170TIP3    H242926   5.899   6.339  10.946 -0.2623 -0.7498  0.0411
 7171TIP3   OH242927   2.756   1.225   2.611  0.2271 -0.9758  0.4300
 7171TIP3    H142928   2.686   1.242   2.674 -1.5791  0.3985 -1.8077
 7171TIP3    H242929   2.759   1.129   2.603 -2.2166 -1.0475 -0.2347
 7172TIP3   OH242930   0.775   1.778  12.100  0.0878  0.5129 -0.1445
 7172TIP3    H142931   0.715   1.771  12.026 -0.3811  0.0211  0.2783
 7172TIP3    H242932   0.848   1.720  12.077 -1.1709 -1.5416  0.8267
 7173TIP3   OH242933   2.417   1.879   1.796  0.1979 -0.7235  0.1942
 7173TIP3    H142934   2.334   1.851   1.836  0.3598 -1.1163  0.2543
 7173TIP3    H242935   2.402   1.971   1.773 -0.2939 -0.8211  0.1053
 7174TIP3   OH242936   0.741   1.521   2.576  0.0623  0.1834  0.1197
 7174TIP3    H142937   0.834   1.505   2.590 -0.2378 -1.2669  0.6240
 7174TIP3    H242938   0.698   1.488   2.655 -0.9507  0.0391 -0.4606
 7175TIP3   OH242939   6.656   5.363   2.741  0.1155 -0.4198 -0.1167
 7175TIP3    H142940   6.705   5.322   2.811 -2.3845 -0.3829  1.7705
 7175TIP3    H242941   6.626   5.291   2.686 -0.6640 -0.7724  0.7535
 7176TIP3   OH242942   4.036   5.009  15.532  0.1587  0.2497 -0.7309
 7176TIP3    H142943   4.126   5.030  15.505 -0.2803  1.5108 -1.3331
 7176TIP3    H242944   3.982   5.070  15.481 -0.9211  0.6975  0.8908
 7177TIP3   OH242945   6.052   2.190  11.568 -0.3328 -0.3655  0.2613
 7177TIP3    H142946   6.012   2.153  11.489  1.7496 -0.5008 -0.7852
 7177TIP3    H242947   6.006   2.273  11.581  1.8435  1.7358 -3.5389
 7178TIP3   OH242948   2.149   0.107  16.346 -0.0602  0.1960 -0.4340
 7178TIP3    H142949   2.067   0.094  16.393 -0.0676 -0.3185 -0.5871
 7178TIP3    H242950   2.153   0.036  16.283  1.4194 -0.9670  0.8804
 7179TIP3   OH242951   5.056   0.467  13.659 -0.1497 -0.3198 -0.2448
 7179TIP3    H142952   5.107   0.418  13.725  0.2365 -0.3571 -0.5638
 7179TIP3    H242953   5.100   0.446  13.576  0.6174  1.3165 -0.2876
 7180TIP3   OH242954   4.026   6.382   4.897  0.0142 -0.4398  0.0437
 7180TIP3    H142955   4.044   6.298   4.938  0.3125  0.1146  1.0901
 7180TIP3    H242956   3.953   6.365   4.837 -0.0577 -1.3905  0.3870
 7181TIP3   OH242957   3.571   4.566   3.842 -0.6012 -0.3819 -1.1281
 7181TIP3    H142958   3.601   4.609   3.921 -0.0527 -1.4265 -0.7485
 7181TIP3    H242959   3.476   4.581   3.841 -0.6000 -0.2725 -0.3349
 7182TIP3   OH242960   2.740   1.277   3.380  0.1289  0.0266 -0.6603
 7182TIP3    H142961   2.778   1.190   3.371 -2.9002 -1.5488  0.5958
 7182TIP3    H242962   2.678   1.269   3.452 -1.4097  2.8113 -1.5238
 7183TIP3   OH242963   5.397   3.102  15.803  0.1957  0.2618  0.1634
 7183TIP3    H142964   5.426   3.193  15.813 -0.9213  0.8935 -1.8569
 7183TIP3    H242965   5.468   3.059  15.756  0.2031  0.4047  0.0432
 7184TIP3   OH242966   3.071   2.328  17.118 -0.0908  0.5507  0.4317
 7184TIP3    H142967   3.124   2.345  17.040  0.6305  0.1789  0.8338
 7184TIP3    H242968   3.045   2.415  17.149 -1.7226  0.6568 -1.1139
 7185TIP3   OH242969   0.094   0.466   2.735 -0.2675 -0.6114  0.2786
 7185TIP3    H142970   0.119   0.429   2.650  1.2269  1.1239 -0.1140
 7185TIP3    H242971   0.019   0.414   2.763 -1.5552 -0.5671 -2.6435
 7186TIP3   OH242972   3.695   3.180  10.784 -0.5675  0.0553  0.4469
 7186TIP3    H142973   3.707   3.188  10.878  0.3108  0.3823  0.3146
 7186TIP3    H242974   3.632   3.248  10.761 -1.1978 -0.3737  0.8675
 7187TIP3   OH242975   4.523   0.176   0.731  0.8033 -0.5500 -0.3914
 7187TIP3    H142976   4.472   0.175   0.650 -0.1542  0.7279  0.1454
 7187TIP3    H242977   4.559   0.088   0.739 -2.7498 -2.1282  0.0606
 7188TIP3   OH242978   0.625   5.688   5.157  0.3337 -0.2069  0.3830
 7188TIP3    H142979   0.687   5.704   5.228  0.0603 -1.2265  0.8744
 7188TIP3    H242980   0.540   5.678   5.200 -0.0155  0.1512 -0.1898
 7189TIP3   OH242981   6.040   2.207  12.155  0.3515 -0.0928  0.0853
 7189TIP3    H142982   6.124   2.191  12.199  0.9889  1.8784 -0.3157
 7189TIP3    H242983   6.057   2.183  12.063  0.0121 -1.1138  0.2856
 7190TIP3   OH242984   2.130   5.737   4.570 -0.4491  0.3168  0.2201
 7190TIP3    H142985   2.172   5.669   4.622  0.2688  1.1603  0.7640
 7190TIP3    H242986   2.199   5.770   4.513 -0.2486  1.9051  1.3137
 7191TIP3   OH242987   4.732   0.438   1.611 -0.4406  0.0553  0.0715
 7191TIP3    H142988   4.728   0.448   1.706  2.6059 -0.0370  0.3256
 7191TIP3    H242989   4.759   0.524   1.579  1.5469 -0.6602 -0.3207
 7192TIP3   OH242990   3.753   5.834   4.477 -0.0282 -0.0508 -0.6501
 7192TIP3    H142991   3.681   5.806   4.420  1.5875  0.5008 -3.1377
 7192TIP3    H242992   3.830   5.791   4.440  1.2092  0.8848  0.7420
 7193TIP3   OH242993   6.414   0.078   0.452 -0.3593  0.5316 -0.1089
 7193TIP3    H142994   6.399   0.049   0.542 -1.7837  0.1696 -0.4414
 7193TIP3    H242995   6.500   0.120   0.455  1.3617 -2.7036  0.6550
 7194TIP3   OH242996   4.873   2.712   4.323 -0.0453 -0.2103 -0.2484
 7194TIP3    H142997   4.843   2.756   4.403  0.5850  0.7558 -0.5296
 7194TIP3    H242998   4.824   2.755   4.253  1.0205  0.5002 -0.5868
 7195TIP3   OH242999   1.367   5.161  13.447 -0.6315 -0.5913 -0.1422
 7195TIP3    H143000   1.275   5.185  13.443 -0.8241 -0.9376  1.4854
 7195TIP3    H243001   1.414   5.244  13.441 -1.0284 -0.4242 -1.1270
 7196TIP3   OH243002   6.758   6.715   1.689  0.1629 -0.5331 -0.0616
 7196TIP3    H143003   6.717   6.635   1.655 -0.2086  0.2381 -1.5213
 7196TIP3    H243004   6.804   6.752   1.614  0.9308  0.2580  0.7753
 7197TIP3   OH243005   1.079   3.695   5.460 -0.5507  0.8105 -0.1632
 7197TIP3    H143006   1.155   3.636   5.465 -0.5608  0.8225  0.1278
 7197TIP3    H243007   1.006   3.642   5.491 -0.6665  0.7932 -0.4600
 7198TIP3   OH243008   2.894   3.044   3.051  0.7816 -0.4235  0.3947
 7198TIP3    H143009   2.929   3.021   3.137  1.9448 -1.5224 -0.3313
 7198TIP3    H243010   2.958   3.008   2.989 -2.0983 -3.5460 -1.0947
 7199TIP3   OH243011   6.690   0.145  16.270 -0.0042  0.7923 -0.2100
 7199TIP3    H143012   6.634   0.140  16.192  0.1495  0.5679 -0.3054
 7199TIP3    H243013   6.742   0.065  16.267  0.0308  0.8033  0.1030
 7200TIP3   OH243014   5.980   6.751  16.087  0.2386 -0.1794  0.1111
 7200TIP3    H143015   5.998   6.829  16.140  0.2407  2.4270 -3.2923
 7200TIP3    H243016   5.890   6.763  16.056  1.1558  0.1797 -2.7975
 7201TIP3   OH243017   4.934   6.637  16.644  0.5549 -0.1013 -0.1972
 7201TIP3    H143018   4.941   6.721  16.598  0.6903 -0.7566 -1.4316
 7201TIP3    H243019   4.999   6.581  16.601 -0.7250 -1.3532 -0.6142
 7202TIP3   OH243020   1.068   2.882  10.559 -0.2455  0.1242  0.2052
 7202TIP3    H143021   0.997   2.832  10.600  0.6386 -0.0063  1.6418
 7202TIP3    H243022   1.148   2.843  10.593  0.5291  0.6496 -0.9300
 7203TIP3   OH243023   2.022   0.571  15.728  0.1264  0.0429 -0.1815
 7203TIP3    H143024   2.071   0.519  15.665  1.3702  0.5065  0.3646
 7203TIP3    H243025   1.959   0.510  15.767  0.4021 -0.6186 -0.7578
 7204TIP3   OH243026   2.545   5.889   1.194  0.6558 -0.0755 -1.2084
 7204TIP3    H143027   2.507   5.962   1.242  1.9370 -0.7063  0.8584
 7204TIP3    H243028   2.487   5.878   1.118 -1.0159  1.4400 -0.2301
 7205TIP3   OH243029   0.548   3.596  13.981  0.2565  0.1976 -0.0322
 7205TIP3    H143030   0.560   3.501  13.980  0.3243  0.1613  1.4278
 7205TIP3    H243031   0.499   3.615  13.901  0.6549 -1.0004 -0.5887
 7206TIP3   OH243032   3.126   6.207  17.328 -0.5402  0.2351  0.3203
 7206TIP3    H143033   3.158   6.205  17.418  1.3370  0.3536 -0.2873
 7206TIP3    H243034   3.150   6.121  17.292 -2.9220 -0.5442  0.4070
 7207TIP3   OH243035   1.372   2.474  11.980  0.5158  0.1013 -0.0942
 7207TIP3    H143036   1.352   2.492  11.888  0.8189  0.0681 -0.1665
 7207TIP3    H243037   1.445   2.532  12.001  0.5485 -0.0022  0.0808
 7208TIP3   OH243038   0.349   5.312   4.570 -0.2896  0.0648 -0.0099
 7208TIP3    H143039   0.325   5.222   4.592  1.8382 -0.3958  0.6305
 7208TIP3    H243040   0.324   5.363   4.647 -1.1349 -0.0220 -0.2165
 7209TIP3   OH243041   0.506   6.567  14.571 -0.1636 -0.2358  0.0051
 7209TIP3    H143042   0.475   6.633  14.508  0.1403 -1.5704 -1.6271
 7209TIP3    H243043   0.463   6.486  14.543  0.2028 -0.9342  1.3785
 7210TIP3   OH243044   2.869   1.246  14.089 -0.0442 -0.0913  0.2079
 7210TIP3    H143045   2.849   1.163  14.133 -3.3813  0.4437 -0.0794
 7210TIP3    H243046   2.929   1.290  14.149 -0.5700 -1.4682  1.8303
 7211TIP3   OH243047   3.547   5.361  15.346  0.1886  0.0844 -0.0997
 7211TIP3    H143048   3.536   5.267  15.336  1.9900  0.0380 -2.3541
 7211TIP3    H243049   3.636   5.372  15.380  0.1210  0.9937 -0.1831
 7212TIP3   OH243050   4.726   0.837   2.217  0.1533 -0.0372  0.1277
 7212TIP3    H143051   4.779   0.793   2.150  0.8159  1.3584 -0.3041
 7212TIP3    H243052   4.681   0.907   2.171  0.3730  0.7526  1.0669
 7213TIP3   OH243053   1.781   6.507   2.952 -0.0339 -0.4695 -0.4494
 7213TIP3    H143054   1.822   6.561   3.020 -1.1088  0.0286 -0.1600
 7213TIP3    H243055   1.853   6.476   2.898  0.6510  1.0555 -0.4608
 7214TIP3   OH243056   4.255   6.054  10.747  0.2222 -0.0950 -0.1984
 7214TIP3    H143057   4.293   6.103  10.674  2.3371  2.1029  2.1774
 7214TIP3    H243058   4.163   6.080  10.750 -0.2239 -1.1220 -2.6617
 7215TIP3   OH243059   2.842   4.652   2.482 -0.3204 -0.1466  0.4906
 7215TIP3    H143060   2.875   4.581   2.427 -0.2960  0.2217  0.0245
 7215TIP3    H243061   2.899   4.726   2.462 -1.1263  0.3592  0.0428
 7216TIP3   OH243062   4.631   4.454   0.642  0.4592  0.4242 -0.6471
 7216TIP3    H143063   4.720   4.455   0.608  0.3916 -4.4223 -1.6134
 7216TIP3    H243064   4.641   4.433   0.735  0.3426 -0.0428 -0.7384
 7217TIP3   OH243065   5.008   5.143  14.366  0.2795  0.3779 -0.1133
 7217TIP3    H143066   5.047   5.085  14.301  0.4639 -0.5196  0.7712
 7217TIP3    H243067   5.064   5.134  14.443 -0.7061  0.3641  0.6201
 7218TIP3   OH243068   5.339   0.798   4.123 -0.3489 -0.2391 -0.4632
 7218TIP3    H143069   5.255   0.835   4.151  0.0349 -1.0571  1.9633
 7218TIP3    H243070   5.370   0.749   4.198  2.0864 -0.3976 -1.4865
 7219TIP3   OH243071   2.369   1.380  13.211 -0.0235  0.3688  0.4345
 7219TIP3    H143072   2.291   1.333  13.239  0.3310 -0.7207 -0.3405
 7219TIP3    H243073   2.433   1.365  13.281 -0.7233  1.9350  1.4640
 7220TIP3   OH243074   5.330   6.503  13.290 -0.3139 -0.1927 -0.2023
 7220TIP3    H143075   5.369   6.590  13.290 -1.0833  0.1729  0.6187
 7220TIP3    H243076   5.285   6.496  13.206  0.4604 -0.1393 -0.6302
 7221TIP3   OH243077   6.313   4.243   0.975  0.6668 -0.2100  0.5587
 7221TIP3    H143078   6.320   4.183   1.049  1.0909 -1.0926 -0.1686
 7221TIP3    H243079   6.309   4.186   0.898  1.1579  0.6959 -0.1646
 7222TIP3   OH243080   4.285   6.470   4.882  1.0929 -0.3933  0.3442
 7222TIP3    H143081   4.312   6.471   4.790  0.2213  0.0521  0.0810
 7222TIP3    H243082   4.196   6.435   4.880  0.5924  0.7902  0.8665
 7223TIP3   OH243083   1.284   4.805   4.017  0.0441 -0.0230 -0.2456
 7223TIP3    H143084   1.259   4.839   3.931  0.4536  0.7664 -0.0545
 7223TIP3    H243085   1.306   4.713   4.001 -1.6523 -0.4010 -0.6611
 7224TIP3   OH243086   4.127   4.561  11.007  0.0288  0.0793  0.6479
 7224TIP3    H143087   4.214   4.536  11.039  0.2401  0.0307  0.0605
 7224TIP3    H243088   4.142   4.646  10.964 -0.1461 -0.0773  0.2700
 7225TIP3   OH243089   3.993   2.574  16.659 -0.3891 -0.7615 -0.5839
 7225TIP3    H143090   4.038   2.494  16.634  1.8191  0.1778  0.1824
 7225TIP3    H243091   3.968   2.561  16.751 -1.3324 -1.1041 -0.8760
 7226TIP3   OH243092   0.627   1.916  13.069  0.3994 -0.1038 -0.0146
 7226TIP3    H143093   0.552   1.933  13.126  0.4652  1.6381 -0.3805
 7226TIP3    H243094   0.607   1.833  13.026 -1.4783  0.4723 -0.3300
 7227TIP3   OH243095   3.387   2.067  16.391  0.2858  0.0398 -0.4183
 7227TIP3    H143096   3.473   2.055  16.352  0.2896 -0.0953 -0.3714
 7227TIP3    H243097   3.341   1.985  16.372 -0.3339  0.6512 -1.6973
 7228TIP3   OH243098   3.831   1.222  11.563  0.0201  0.5095 -0.4445
 7228TIP3    H143099   3.902   1.182  11.615 -0.0741 -0.7118 -1.2054
 7228TIP3    H243100   3.781   1.273  11.627  0.2948 -0.4205  0.5553
 7229TIP3   OH243101   6.372   4.702   5.462  0.0851 -0.1417 -0.1458
 7229TIP3    H143102   6.365   4.648   5.541 -2.2689  0.2009 -0.0484
 7229TIP3    H243103   6.364   4.792   5.493 -2.2503 -0.0552 -0.8354
 7230TIP3   OH243104   2.980   0.401  14.321 -0.2551  0.1736 -0.0490
 7230TIP3    H143105   2.910   0.340  14.295 -1.3006  1.7554 -1.0936
 7230TIP3    H243106   2.934   0.480  14.347  1.1322  1.9447 -2.5720
 7231TIP3   OH243107   5.858   4.829   2.067  1.0563  0.1289 -0.0776
 7231TIP3    H143108   5.932   4.840   2.126 -0.3790  2.0836  1.4941
 7231TIP3    H243109   5.892   4.854   1.981  2.3057  0.6942  0.5523
 7232TIP3   OH243110   3.388   3.872  12.596  0.5732  0.4317 -0.1238
 7232TIP3    H143111   3.344   3.788  12.580  1.8330  0.1191 -2.5397
 7232TIP3    H243112   3.342   3.934  12.540 -1.5997  1.9628  3.0464
 7233TIP3   OH243113   0.929   2.491   5.495  0.3331 -0.2407  0.1219
 7233TIP3    H143114   0.941   2.570   5.442  2.7357 -0.7555 -0.2138
 7233TIP3    H243115   0.975   2.511   5.577 -0.4731 -0.7024  0.6976
 7234TIP3   OH243116   4.009   1.127   0.433 -0.0221  0.1654 -0.5934
 7234TIP3    H143117   3.942   1.089   0.490  0.3947  0.4338  0.0899
 7234TIP3    H243118   4.090   1.083   0.458  0.2288  0.5465 -0.7219
 7235TIP3   OH243119   2.524   0.801   4.600 -0.4956 -0.3608 -0.2875
 7235TIP3    H143120   2.492   0.793   4.690 -2.1836  0.2918 -0.7972
 7235TIP3    H243121   2.537   0.894   4.588 -0.2034 -0.4563 -0.7043
 7236TIP3   OH243122   3.355   3.974  14.024  0.0002  0.1723  0.2721
 7236TIP3    H143123   3.439   3.949  13.986  0.4559  0.2021  1.2230
 7236TIP3    H243124   3.377   4.002  14.113 -0.7673  1.9529 -0.0560
 7237TIP3   OH243125   2.153   4.689  12.333 -0.9185  0.3457 -0.2150
 7237TIP3    H143126   2.184   4.755  12.396 -0.5118 -0.4608  0.4549
 7237TIP3    H243127   2.061   4.710  12.320 -1.1665  0.1952  1.1098
 7238TIP3   OH243128   5.238   2.403  13.565  0.7376  0.2517 -0.2366
 7238TIP3    H143129   5.300   2.476  13.564 -1.1994  2.0937 -3.5293
 7238TIP3    H243130   5.173   2.428  13.631  0.3259  1.3224 -1.0273
 7239TIP3   OH243131   0.737   1.907   0.244  0.4566 -0.0766 -0.1454
 7239TIP3    H143132   0.648   1.918   0.211 -0.1999 -1.6194  1.0196
 7239TIP3    H243133   0.779   1.849   0.180  0.5793  0.4762 -0.5781
 7240TIP3   OH243134   3.453   6.349  15.435 -1.0167  0.7739  0.0066
 7240TIP3    H143135   3.421   6.305  15.514 -0.8742  1.3957  0.4216
 7240TIP3    H243136   3.480   6.277  15.377  0.8853  0.2828  1.3610
 7241TIP3   OH243137   3.201   0.478  14.151  0.1955 -0.1088 -0.0508
 7241TIP3    H143138   3.126   0.501  14.206  0.8729  0.8170  0.5190
 7241TIP3    H243139   3.162   0.439  14.073 -0.8081 -0.9761  0.8507
 7242TIP3   OH243140   6.548   3.778   6.679 -0.6850 -0.3032  0.1897
 7242TIP3    H143141   6.474   3.785   6.740 -0.1836 -3.1131  1.3072
 7242TIP3    H243142   6.624   3.806   6.731 -0.7891  1.7724 -0.6933
 7243TIP3   OH243143   5.754   5.564  14.774  0.2808 -0.5246  0.6204
 7243TIP3    H143144   5.708   5.643  14.743  0.7208 -0.5597 -0.1164
 7243TIP3    H243145   5.684   5.511  14.813 -0.0367  0.1879  1.0627
 7244TIP3   OH243146   2.654   2.508  11.855 -0.0206  0.0288  0.4612
 7244TIP3    H143147   2.657   2.506  11.759  0.6495 -3.7762  0.4085
 7244TIP3    H243148   2.721   2.446  11.883 -0.2716  0.9273  3.4443
 7245TIP3   OH243149   0.089   6.598   5.616  0.1903 -0.3567  0.1239
 7245TIP3    H143150   0.149   6.527   5.593 -1.6807 -1.5476 -1.2674
 7245TIP3    H243151   0.084   6.652   5.538 -1.4898 -0.9862 -0.2401
 7246TIP3   OH243152   5.826   5.775   2.687 -0.4314  0.0817 -0.0381
 7246TIP3    H143153   5.881   5.814   2.620 -1.3145  0.2886 -0.6592
 7246TIP3    H243154   5.801   5.690   2.651  0.9221 -0.8041  1.0140
 7247TIP3   OH243155   6.622   1.348   4.548  0.0806 -0.2893 -0.2684
 7247TIP3    H143156   6.657   1.430   4.583  0.7553 -1.0818  0.9861
 7247TIP3    H243157   6.627   1.359   4.453  1.1679  0.7095 -0.1219
 7248TIP3   OH243158   0.168   3.990  12.967 -0.0502  0.3141 -0.0872
 7248TIP3    H143159   0.197   3.936  13.040  0.0949  1.3052  0.6115
 7248TIP3    H243160   0.101   4.048  13.005 -0.8387  0.0404 -1.0138
 7249TIP3   OH243161   6.542   0.547   0.550  0.5119  0.6926  0.0558
 7249TIP3    H143162   6.467   0.580   0.500  1.4184  2.2085 -0.3643
 7249TIP3    H243163   6.607   0.524   0.484  0.7563  0.2664  0.4454
 7250TIP3   OH243164   4.656   1.423  13.859 -0.1134 -0.5050 -0.1309
 7250TIP3    H143165   4.630   1.375  13.780  0.8107 -0.7393 -0.3077
 7250TIP3    H243166   4.576   1.467  13.888 -0.5173 -0.5911 -1.0741
 7251TIP3   OH243167   6.282   5.064  10.657  0.3795 -0.0079  0.4519
 7251TIP3    H143168   6.323   4.996  10.711  1.0437  0.6724  0.8291
 7251TIP3    H243169   6.356   5.114  10.621 -0.0553  1.8842  1.9607
 7252TIP3   OH243170   5.238   5.640  13.950 -0.6291 -0.5188  0.3373
 7252TIP3    H143171   5.189   5.656  14.031 -0.0122 -0.4261  0.7041
 7252TIP3    H243172   5.222   5.717  13.896  0.5169  0.3554  1.1819
 7253TIP3   OH243173   2.864   3.475  11.534 -0.1755 -0.1268 -0.3599
 7253TIP3    H143174   2.886   3.392  11.575  0.2066 -0.0520 -0.4161
 7253TIP3    H243175   2.858   3.537  11.607 -0.3669 -0.1790 -0.3283
 7254TIP3   OH243176   0.731   6.541  13.028  0.3215 -0.0783 -0.0237
 7254TIP3    H143177   0.644   6.520  12.994  0.1703 -2.8037  1.7873
 7254TIP3    H243178   0.720   6.628  13.068 -0.8438  0.7652 -2.0252
 7255TIP3   OH243179   3.041   1.553   0.254 -0.0158 -0.1632 -0.3239
 7255TIP3    H143180   3.099   1.629   0.252 -2.9679  2.3600  1.0850
 7255TIP3    H243181   2.963   1.580   0.207 -0.3557 -3.2868 -1.8505
 7256TIP3   OH243182   1.829   6.413   2.506  0.4188 -0.1971 -0.1004
 7256TIP3    H143183   1.761   6.347   2.508 -0.1871  0.4313  1.2601
 7256TIP3    H243184   1.910   6.364   2.490 -0.3124 -0.9378 -1.8773
 7257TIP3   OH243185   3.571   3.553  14.484  0.3121 -0.1536 -0.3100
 7257TIP3    H143186   3.629   3.630  14.479  1.4555 -1.0341 -1.3519
 7257TIP3    H243187   3.531   3.558  14.571  2.0442  0.4509  0.4935
 7258TIP3   OH243188   3.147   3.908   3.563  0.0189  0.2985 -0.3894
 7258TIP3    H143189   3.222   3.871   3.609  0.2935  1.7324  0.3551
 7258TIP3    H243190   3.182   3.933   3.477  0.5246  1.3746  0.1146
 7259TIP3   OH243191   1.038   0.276  16.415  0.3347  0.0916  0.4487
 7259TIP3    H143192   1.112   0.263  16.474  1.4386  0.4510 -0.8178
 7259TIP3    H243193   1.065   0.348  16.358  0.0402 -1.3508 -1.6095
 7260TIP3   OH243194   3.524   4.304   5.116  0.2640  0.4151 -0.4565
 7260TIP3    H143195   3.472   4.384   5.119 -0.6267 -0.1620  0.3696
 7260TIP3    H243196   3.494   4.254   5.192  0.4062 -0.9372 -1.2597
 7261TIP3   OH243197   5.369   4.625   5.190 -0.0544  0.5288 -0.3544
 7261TIP3    H143198   5.459   4.615   5.160 -0.4998 -0.9249 -1.3337
 7261TIP3    H243199   5.376   4.635   5.285  1.1943  1.8407 -0.5584
 7262TIP3   OH243200   4.234   2.054  12.549 -0.3537 -0.4665 -0.1083
 7262TIP3    H143201   4.220   2.024  12.639 -0.0634 -0.0735  0.0724
 7262TIP3    H243202   4.265   1.976  12.502  3.2221  0.0657  1.0200
 7263TIP3   OH243203   5.725   0.510   2.211  0.0851  0.0158 -0.0974
 7263TIP3    H143204   5.736   0.464   2.128 -0.3860  0.2602 -0.2946
 7263TIP3    H243205   5.775   0.592   2.200 -1.0652  0.6624 -0.6287
 7264TIP3   OH243206   3.699   1.552   2.238 -0.1368  0.2859 -0.3953
 7264TIP3    H143207   3.638   1.541   2.164  0.5006 -0.2742 -0.8560
 7264TIP3    H243208   3.782   1.516   2.205  0.4767  1.1662  0.1731
 7265TIP3   OH243209   4.478   0.240   4.702  0.3447 -0.2839 -0.3736
 7265TIP3    H143210   4.493   0.160   4.752 -0.8222  0.1172  0.6661
 7265TIP3    H243211   4.544   0.301   4.736 -1.7293  0.6463  2.2787
 7266TIP3   OH243212   3.973   6.195   4.617 -0.3628  0.2376  0.3937
 7266TIP3    H143213   3.944   6.164   4.531 -0.0316  1.3548 -0.1333
 7266TIP3    H243214   3.938   6.284   4.624 -0.0015  0.3232  1.2236
 7267TIP3   OH243215   6.657   5.215   3.066  0.0403 -0.2305 -0.1566
 7267TIP3    H143216   6.636   5.303   3.035  1.3742  0.9630  2.0545
 7267TIP3    H243217   6.742   5.196   3.027 -1.2062 -1.5609 -2.4237
 7268TIP3   OH243218   6.682   2.041   3.723 -0.1604 -0.1215 -0.3902
 7268TIP3    H143219   6.668   1.946   3.731 -1.5815 -0.0290 -1.4110
 7268TIP3    H243220   6.602   2.080   3.757  0.0465  0.6953 -0.8253
 7269TIP3   OH243221   6.263   0.012   1.782  0.1187  0.3809  0.5056
 7269TIP3    H143222   6.269   0.098   1.741  0.0262  0.4609  0.6609
 7269TIP3    H243223   6.205   0.025   1.857  0.4309  0.2727  0.7690
 7270TIP3   OH243224   1.102   0.508  13.031 -0.2766  0.0184 -0.1165
 7270TIP3    H143225   1.048   0.480  13.105  0.9052  2.3209  1.7669
 7270TIP3    H243226   1.178   0.450  13.034 -0.6131 -0.4278 -0.0695
 7271TIP3   OH243227   1.768   4.110  14.471  0.6123 -0.2470 -0.1598
 7271TIP3    H143228   1.736   4.042  14.412  0.9866 -1.7279  1.2500
 7271TIP3    H243229   1.710   4.105  14.547  0.5983  1.0976 -0.0577
 7272TIP3   OH243230   5.576   1.898  17.024 -0.2577  0.0442  0.3801
 7272TIP3    H143231   5.571   1.860  17.111 -0.2872  0.3605  0.5151
 7272TIP3    H243232   5.495   1.870  16.981  1.3531 -3.2646 -0.8353
 7273TIP3   OH243233   5.744   1.472  13.399  0.2178  0.2040  0.4284
 7273TIP3    H143234   5.815   1.426  13.355 -0.6181  0.0954 -0.8531
 7273TIP3    H243235   5.678   1.404  13.415  0.8080  0.0742  2.5878
 7274TIP3   OH243236   0.743   4.041  12.827 -0.0912  0.0683  0.4047
 7274TIP3    H143237   0.696   3.960  12.803  0.8325  0.1481 -1.8574
 7274TIP3    H243238   0.684   4.111  12.800 -0.1923  0.1648  0.8716
 7275TIP3   OH243239   0.582   0.488   2.303  0.1043 -0.6038 -0.1497
 7275TIP3    H143240   0.585   0.540   2.222  0.6677  2.0589  1.4299
 7275TIP3    H243241   0.674   0.486   2.332 -0.3419  0.4039  1.4652
 7276TIP3   OH243242   0.466   5.296  14.937  0.0287  0.0527 -0.5933
 7276TIP3    H143243   0.498   5.205  14.941 -1.2208 -0.3955 -0.2586
 7276TIP3    H243244   0.377   5.288  14.904 -0.6087  1.0241  0.8097
 7277TIP3   OH243245   3.995   4.093   2.457  0.2792  0.3081  0.3458
 7277TIP3    H143246   4.011   4.044   2.537  0.3073 -3.1789 -1.6045
 7277TIP3    H243247   4.082   4.107   2.419  0.1103 -1.3937 -0.7953
 7278TIP3   OH243248   3.770   3.694  12.032 -0.5810  0.1077  0.2152
 7278TIP3    H143249   3.739   3.746  12.105  0.0632  0.8616 -0.0346
 7278TIP3    H243250   3.715   3.719  11.958 -0.2014  0.5321  0.0691
 7279TIP3   OH243251   3.981   3.171  13.146 -0.1808 -0.7515  0.2568
 7279TIP3    H143252   4.017   3.250  13.105  1.1645 -0.5490  1.7492
 7279TIP3    H243253   3.907   3.148  13.090 -0.1649  1.1313 -0.6425
 7280TIP3   OH243254   6.063   5.601   3.525 -0.0293 -0.4566 -0.2562
 7280TIP3    H143255   6.157   5.584   3.529  0.2577  0.9845 -0.4023
 7280TIP3    H243256   6.056   5.696   3.532 -1.4973 -0.5718  0.0278
 7281TIP3   OH243257   6.293   5.081  13.744  0.2425 -0.0246 -0.1328
 7281TIP3    H143258   6.358   5.041  13.685  1.3322  0.8017  0.4733
 7281TIP3    H243259   6.266   5.009  13.801 -0.1349 -0.6154 -1.0328
 7282TIP3   OH243260   4.194   2.386   0.098  0.3202  0.1059  0.6509
 7282TIP3    H143261   4.249   2.318   0.058  1.5079  0.9805  0.7355
 7282TIP3    H243262   4.105   2.352   0.091  0.8989 -1.5768  0.9121
 7283TIP3   OH243263   0.851   3.159   0.398 -0.2747 -0.3019  0.0297
 7283TIP3    H143264   0.943   3.132   0.403  0.7330  1.8203 -3.4999
 7283TIP3    H243265   0.828   3.181   0.488  2.5522 -1.2361  1.1104
 7284TIP3   OH243266   5.595   3.147  16.800  0.4090  0.2545  0.0215
 7284TIP3    H143267   5.502   3.164  16.814  0.1048 -0.7004 -0.6946
 7284TIP3    H243268   5.622   3.095  16.875  0.9124  2.2655  1.3137
 7285TIP3   OH243269   0.901   1.701  14.893  0.0516  0.4772  0.3184
 7285TIP3    H143270   0.867   1.641  14.827 -0.5683 -0.7600  1.6949
 7285TIP3    H243271   0.895   1.788  14.853  0.0264 -0.2602 -1.3544
 7286TIP3   OH243272   3.964   3.567  10.797 -0.3075 -0.1391 -0.1867
 7286TIP3    H143273   3.891   3.529  10.748 -0.6076 -1.4100  1.1600
 7286TIP3    H243274   4.031   3.499  10.795  1.1138  1.2175 -1.8736
 7287TIP3   OH243275   4.645   4.200  14.116 -0.0496 -0.1321 -0.0991
 7287TIP3    H143276   4.733   4.179  14.084  0.4341 -0.1866  1.1845
 7287TIP3    H243277   4.655   4.202  14.211 -1.5744 -0.7034  0.0899
 7288TIP3   OH243278   1.857   5.834  12.498  0.9140  0.2857  0.3599
 7288TIP3    H143279   1.800   5.765  12.533 -0.0601  0.8950  0.0242
 7288TIP3    H243280   1.859   5.818  12.404 -0.7908  1.7131  0.0168
 7289TIP3   OH243281   3.596   2.209   3.419 -0.0041  0.2386 -0.3329
 7289TIP3    H143282   3.633   2.129   3.456  0.4105 -0.1235 -1.4673
 7289TIP3    H243283   3.672   2.265   3.402 -0.1145  0.1273 -1.2348
 7290TIP3   OH243284   0.191   1.199   0.800  0.2851 -0.3836  0.0918
 7290TIP3    H143285   0.213   1.169   0.888 -1.4553 -2.6527 -0.1465
 7290TIP3    H243286   0.120   1.261   0.812 -0.3543 -1.1367  0.2969
 7291TIP3   OH243287   0.823   6.301  14.328 -0.0626  0.0185 -0.0455
 7291TIP3    H143288   0.747   6.301  14.269 -0.9604  0.8712  1.0592
 7291TIP3    H243289   0.797   6.357  14.401  0.5844 -1.8942  1.7468
 7292TIP3   OH243290   3.600   3.545   2.013 -0.2300  0.1601 -0.1506
 7292TIP3    H143291   3.681   3.595   2.007 -1.3253  2.0964  0.3224
 7292TIP3    H243292   3.604   3.484   1.940  1.4973  0.3998 -0.3138
 7293TIP3   OH243293   5.827   5.784   5.116 -0.1464 -0.2956 -0.2172
 7293TIP3    H143294   5.731   5.779   5.117 -0.1129 -1.5253  1.2943
 7293TIP3    H243295   5.850   5.784   5.023 -1.6252  1.0165 -0.6377
 7294TIP3   OH243296   3.589   1.526   5.117 -0.3129  0.4513  0.3161
 7294TIP3    H143297   3.499   1.496   5.117 -0.0494 -0.3757  0.0500
 7294TIP3    H243298   3.585   1.616   5.150 -1.3921  0.9383 -1.0253
 7295TIP3   OH243299   3.054   5.164   5.108 -0.5839 -0.3895  0.5633
 7295TIP3    H143300   3.114   5.240   5.109  0.8496 -1.2933 -2.5107
 7295TIP3    H243301   2.970   5.201   5.083 -0.3724  0.4122  0.9856
 7296TIP3   OH243302   6.242   0.732   5.653 -0.3203 -0.1402 -0.1425
 7296TIP3    H143303   6.190   0.659   5.620 -1.0691 -0.0992  0.9041
 7296TIP3    H243304   6.275   0.702   5.737 -0.9833  0.8521  0.5014
 7297TIP3   OH243305   2.347   6.188   2.928  1.0703  0.3965  0.4892
 7297TIP3    H143306   2.303   6.245   2.864 -2.2190 -1.1615  1.1528
 7297TIP3    H243307   2.356   6.243   3.006 -1.4250  0.3743  0.8953
 7298TIP3   OH243308   3.720   1.760  13.071  0.0743 -0.0676 -0.1720
 7298TIP3    H143309   3.640   1.716  13.040  0.2681 -0.4958 -0.0786
 7298TIP3    H243310   3.776   1.766  12.994 -0.2841  0.7798 -0.3754
 7299TIP3   OH243311   1.951   1.906   1.884 -0.5370 -0.5272  0.3077
 7299TIP3    H143312   1.918   1.817   1.889  1.0519 -1.2451 -0.9505
 7299TIP3    H243313   2.013   1.905   1.811 -1.0450  1.8074 -0.2583
 7300TIP3   OH243314   1.208   2.366   3.209 -0.2387  0.0611  0.1458
 7300TIP3    H143315   1.126   2.326   3.180  0.3659  0.0850 -1.6824
 7300TIP3    H243316   1.241   2.412   3.132  1.8821 -0.5703  0.6259
 7301TIP3   OH243317   3.777   3.404  16.589  0.1368 -0.3511 -0.0819
 7301TIP3    H143318   3.832   3.368  16.659 -1.6886 -1.9184  0.6413
 7301TIP3    H243319   3.798   3.497  16.587 -0.7557  0.0982  3.6008
 7302TIP3   OH243320   2.227   6.570   2.941 -0.7873 -0.2622 -0.3080
 7302TIP3    H143321   2.304   6.586   2.886 -0.0279  0.6386  0.9411
 7302TIP3    H243322   2.263   6.563   3.030 -2.0884 -0.4469  0.2212
 7303TIP3   OH243323   5.416   0.320   4.384 -0.4002 -0.5803  0.1964
 7303TIP3    H143324   5.356   0.377   4.431 -0.6730 -1.3317  0.7847
 7303TIP3    H243325   5.458   0.268   4.453 -2.1451 -3.0070 -0.4372
 7304TIP3   OH243326   0.520   2.766  15.170 -0.2084  0.2158 -0.2708
 7304TIP3    H143327   0.555   2.711  15.240  0.0991 -0.1395 -0.6959
 7304TIP3    H243328   0.444   2.718  15.137  1.3410 -1.0995 -2.1307
 7305TIP3   OH243329   4.638   0.938   3.690 -0.2959 -0.9629  0.4686
 7305TIP3    H143330   4.702   0.993   3.646  0.2248 -1.7224  0.2486
 7305TIP3    H243331   4.614   0.872   3.625  0.0108 -1.7148  1.1030
 7306TIP3   OH243332   5.760   3.627  13.094  0.0166 -0.4464  0.2280
 7306TIP3    H143333   5.768   3.564  13.022  1.3836 -0.9116  0.7637
 7306TIP3    H243334   5.694   3.690  13.063  2.6694  1.1399 -2.7935
 7307TIP3   OH243335   3.492   0.474   1.692 -0.1236 -0.1951  0.1296
 7307TIP3    H143336   3.429   0.540   1.665 -1.4467 -2.0886 -1.6664
 7307TIP3    H243337   3.571   0.524   1.712 -1.5152  2.0519  0.3965
 7308TIP3   OH243338   6.727   2.019   4.984 -0.7167  0.0202 -0.1902
 7308TIP3    H143339   6.679   1.961   5.043  0.6764  0.1915  1.1761
 7308TIP3    H243340   6.810   1.973   4.968  0.1373  1.3183  0.3862
 7309TIP3   OH243341   3.760   1.958   4.923 -0.3729 -0.0993  0.3754
 7309TIP3    H143342   3.704   2.030   4.895 -0.9540 -0.6776  0.0260
 7309TIP3    H243343   3.816   1.996   4.991  0.2117  1.0034 -0.6863
 7310TIP3   OH243344   6.353   1.415  12.664  0.3190 -0.1963 -0.3211
 7310TIP3    H143345   6.317   1.504  12.661  0.6058 -0.0267  0.8978
 7310TIP3    H243346   6.438   1.422  12.621 -0.0865 -0.1083 -1.1335
 7311TIP3   OH243347   6.498   1.042  16.301  0.3650 -0.5173  0.1016
 7311TIP3    H143348   6.534   1.130  16.300 -1.0240  0.1866  2.3432
 7311TIP3    H243349   6.457   1.031  16.216  0.3241  1.1280 -0.1137
 7312TIP3   OH243350   4.683   1.351   1.077 -0.7036  0.0399  0.0224
 7312TIP3    H143351   4.727   1.390   1.001 -0.1076 -1.0145 -0.1943
 7312TIP3    H243352   4.691   1.256   1.062 -0.0883 -0.1917  1.6844
 7313TIP3   OH243353   2.408   4.379  13.786  0.4342 -0.1269 -0.6204
 7313TIP3    H143354   2.422   4.438  13.860  1.4204 -1.7210  0.5095
 7313TIP3    H243355   2.315   4.391  13.764  0.0477  0.1938  1.0350
 7314TIP3   OH243356   2.131   3.012  16.983 -0.1879  0.0941 -0.3009
 7314TIP3    H143357   2.199   2.957  16.943 -0.5465 -1.7086  1.4271
 7314TIP3    H243358   2.087   3.053  16.908  3.5164  2.4089 -1.5032
 7315TIP3   OH243359   4.512   2.639  15.831 -0.4718 -0.2848 -0.0447
 7315TIP3    H143360   4.565   2.559  15.837  2.7146  1.5613 -1.3356
 7315TIP3    H243361   4.470   2.633  15.745 -0.2560 -0.5623 -0.1337
 7316TIP3   OH243362   6.732   2.730   6.265  0.5685 -0.4618  0.5014
 7316TIP3    H143363   6.790   2.655   6.277  1.3236 -0.0558 -0.5260
 7316TIP3    H243364   6.666   2.720   6.334  0.7476 -1.9688  0.4914
 7317TIP3   OH243365   1.722   5.585   0.802 -0.0970  0.1717 -0.0410
 7317TIP3    H143366   1.695   5.571   0.712 -0.5084  1.0953 -0.0688
 7317TIP3    H243367   1.732   5.680   0.810 -0.4720  0.1378  0.9894
 7318TIP3   OH243368   0.577   5.237  13.966  0.5575  0.1648  0.0225
 7318TIP3    H143369   0.519   5.178  14.014 -1.3062  2.1521  0.3431
 7318TIP3    H243370   0.649   5.255  14.026 -1.0203  1.4961  1.6010
 7319TIP3   OH243371   2.952   5.715   3.821  0.3764  0.1050 -0.4057
 7319TIP3    H143372   2.945   5.793   3.877 -3.7475 -0.8014  0.7180
 7319TIP3    H243373   3.001   5.652   3.874  0.4210  0.7257  0.3067
 7320TIP3   OH243374   4.608   2.612   0.787 -0.2417 -0.0858 -0.5385
 7320TIP3    H143375   4.670   2.547   0.756  0.7719  0.9519 -0.7332
 7320TIP3    H243376   4.561   2.640   0.708  0.1929  0.3242 -0.6519
 7321TIP3   OH243377   5.564   3.119  11.412  0.0258  0.1698 -0.5268
 7321TIP3    H143378   5.647   3.131  11.457  0.1421 -0.0907 -0.6711
 7321TIP3    H243379   5.583   3.138  11.321 -0.3317  1.2309 -0.3897
 7322TIP3   OH243380   5.411   4.072   6.474 -0.0356  0.2059 -0.2223
 7322TIP3    H143381   5.364   4.150   6.503 -0.8235 -1.1509  2.4864
 7322TIP3    H243382   5.504   4.095   6.483 -0.2596  0.5409  1.6414
 7323TIP3   OH243383   4.979   2.702   3.396 -0.1331 -0.1256  0.0806
 7323TIP3    H143384   4.942   2.614   3.395  0.1614 -0.2903  1.6789
 7323TIP3    H243385   4.942   2.745   3.319 -3.1369 -0.4781  1.2010
 7324TIP3   OH243386   0.409   4.132  14.552 -0.3172 -0.0515 -0.3505
 7324TIP3    H143387   0.416   4.040  14.576  1.0686  0.6255  2.3038
 7324TIP3    H243388   0.319   4.156  14.574 -0.4458 -0.5865 -0.2811
 7325TIP3   OH243389   0.893   0.753   1.362  0.2456  0.6715 -0.7251
 7325TIP3    H143390   0.926   0.687   1.301 -0.6454 -1.6298  1.1160
 7325TIP3    H243391   0.960   0.760   1.430 -0.6806 -0.1545  0.3197
 7326TIP3   OH243392   0.382   5.069  11.313 -0.0517 -0.3995 -0.0181
 7326TIP3    H143393   0.351   5.013  11.242  1.4230 -1.1317 -0.1269
 7326TIP3    H243394   0.347   5.155  11.292 -2.1092 -1.1826 -0.0148
 7327TIP3   OH243395   0.981   5.089  17.364  0.4394 -0.1780 -0.3776
 7327TIP3    H143396   1.045   5.018  17.371  0.4525 -0.0424  1.4058
 7327TIP3    H243397   0.904   5.055  17.410  0.8933  1.4102  1.6591
 7328TIP3   OH243398   6.529   6.068   4.025  0.5374 -0.1826  0.2363
 7328TIP3    H143399   6.592   6.093   4.092  1.5966  0.1358 -0.8445
 7328TIP3    H243400   6.447   6.110   4.052  1.1618  0.6357  0.8881
 7329TIP3   OH243401   3.528   2.341   2.064  0.1897  0.2297 -0.3571
 7329TIP3    H143402   3.586   2.335   2.139  1.8300 -2.4408 -1.6851
 7329TIP3    H243403   3.552   2.266   2.009 -2.0538  1.1125 -2.7497
 7330TIP3   OH243404   2.499   0.874  17.373  0.6627 -0.2943  0.3988
 7330TIP3    H143405   2.439   0.803  17.349 -1.3200  1.0518  1.0512
 7330TIP3    H243406   2.460   0.912  17.452  1.9921  1.1330  0.4095
 7331TIP3   OH243407   3.638   3.886  15.404 -0.4953 -0.5153 -0.8331
 7331TIP3    H143408   3.661   3.842  15.486  2.0288  1.0071 -0.6057
 7331TIP3    H243409   3.664   3.823  15.336 -2.0460 -1.5403 -0.5300
 7332TIP3   OH243410   4.014   1.318  13.658  0.0311  0.9900  0.4414
 7332TIP3    H143411   4.016   1.259  13.733  0.9613  1.6231  0.9367
 7332TIP3    H243412   4.080   1.385  13.679  2.0387 -0.1020 -1.9957
 7333TIP3   OH243413   0.407   1.129   3.428  0.1923 -0.4541 -0.5792
 7333TIP3    H143414   0.453   1.078   3.361  0.8857 -2.5165  1.3565
 7333TIP3    H243415   0.316   1.129   3.400  0.2994 -2.1630 -1.0381
 7334TIP3   OH243416   4.910   1.781  11.585 -0.3285  0.0413  0.1860
 7334TIP3    H143417   4.939   1.866  11.550  0.2274 -0.3422 -0.3075
 7334TIP3    H243418   4.920   1.790  11.680 -0.7293  0.6885  0.1758
 7335TIP3   OH243419   4.783   0.025  16.190  0.4893 -0.1111  0.0643
 7335TIP3    H143420   4.871   0.013  16.153 -0.4572 -1.1081 -2.0293
 7335TIP3    H243421   4.774   0.120  16.197  1.3580  0.0526 -0.7004
 7336TIP3   OH243422   6.143   3.164  13.643 -0.2827 -0.3692  0.4796
 7336TIP3    H143423   6.093   3.097  13.690 -2.5969 -0.3759 -1.7480
 7336TIP3    H243424   6.100   3.246  13.665 -0.9895 -0.3046 -0.9489
 7337TIP3   OH243425   4.265   4.554   1.119 -0.4969 -0.3367  0.0179
 7337TIP3    H143426   4.221   4.591   1.196  2.7952  0.9082  1.4826
 7337TIP3    H243427   4.244   4.460   1.123 -3.0513  0.1754  0.4656
 7338TIP3   OH243428   6.743   2.369  16.247 -0.0063  0.2063  0.1450
 7338TIP3    H143429   6.669   2.308  16.256  0.6929 -1.0714 -2.0327
 7338TIP3    H243430   6.715   2.447  16.294 -3.8344  0.7572 -2.5479
 7339TIP3   OH243431   4.423   3.628   2.721 -0.4038 -0.7428 -0.1216
 7339TIP3    H143432   4.477   3.580   2.658 -1.2537 -1.4090 -0.3531
 7339TIP3    H243433   4.353   3.567   2.745 -1.1900  0.1874  0.0018
 7340TIP3   OH243434   1.295   6.592  15.742 -0.6924  0.1119  0.3212
 7340TIP3    H143435   1.338   6.650  15.678  0.4536 -0.5279  0.4804
 7340TIP3    H243436   1.356   6.589  15.815 -1.3584 -0.2665  0.8659
 7341TIP3   OH243437   5.863   2.069   5.151 -0.1658 -0.1866  0.6143
 7341TIP3    H143438   5.923   2.009   5.105  0.4342  1.2340 -0.5227
 7341TIP3    H243439   5.807   2.105   5.083  1.2084  2.5215  0.7936
 7342TIP3   OH243440   1.292   2.105   3.423 -0.0497  0.1578  0.1671
 7342TIP3    H143441   1.209   2.067   3.392 -0.4080  0.8694  0.2520
 7342TIP3    H243442   1.359   2.051   3.381 -0.5495 -0.8001  0.5580
 7343TIP3   OH243443   4.173   5.417  14.785 -0.1354  0.6025  0.1294
 7343TIP3    H143444   4.185   5.479  14.713 -0.6641  0.2627 -0.2511
 7343TIP3    H243445   4.206   5.464  14.862 -0.3183  1.2697 -0.1905
 7344TIP3   OH243446   3.497   5.240   4.349 -0.6306 -0.0396 -0.1243
 7344TIP3    H143447   3.476   5.147   4.335 -2.3894  0.2217  0.5029
 7344TIP3    H243448   3.512   5.246   4.443 -2.4553  0.6174  0.1656
 7345TIP3   OH243449   0.377   0.630   0.664 -0.6847 -0.1745  0.0855
 7345TIP3    H143450   0.372   0.617   0.759 -1.6371 -1.0721 -0.0680
 7345TIP3    H243451   0.469   0.649   0.648 -0.2921 -1.0871  1.0815
 7346TIP3   OH243452   5.375   6.016   1.174  0.2573 -0.1471 -0.0202
 7346TIP3    H143453   5.464   5.995   1.145  0.4396 -0.5146  0.7821
 7346TIP3    H243454   5.377   6.109   1.195 -0.0432  0.2810 -1.7526
 7347TIP3   OH243455   5.911   1.631   5.981  0.2335  0.1747 -0.1345
 7347TIP3    H143456   6.003   1.631   5.957 -0.0866 -2.9492 -1.9165
 7347TIP3    H243457   5.865   1.651   5.900 -0.7097  1.7586  0.7468
 7348TIP3   OH243458   1.863   1.957   5.503  0.6778 -0.6569 -0.3807
 7348TIP3    H143459   1.876   2.036   5.452  0.7678  0.0800  0.7572
 7348TIP3    H243460   1.775   1.966   5.539  0.2140 -1.6514 -1.1973
 7349TIP3   OH243461   4.133   0.517  14.298  0.2011 -0.8897 -0.0519
 7349TIP3    H143462   4.211   0.501  14.245  0.0953 -2.7201  0.2749
 7349TIP3    H243463   4.061   0.477  14.249 -0.6810  1.2572 -0.6218
 7350TIP3   OH243464   5.586   4.025  12.377  0.5777  0.2594 -0.5487
 7350TIP3    H143465   5.669   4.017  12.424 -0.5917  2.4361  2.1828
 7350TIP3    H243466   5.567   4.119  12.377 -1.5932 -0.1059 -1.6414
 7351TIP3   OH243467   2.062   0.544  13.890 -0.2819 -0.1948 -0.4150
 7351TIP3    H143468   2.156   0.529  13.876 -0.4621 -0.4142 -1.4914
 7351TIP3    H243469   2.053   0.639  13.892 -0.0350 -0.1712 -0.3096
 7352TIP3   OH243470   4.313   0.844  11.291 -0.1046  0.2688 -0.0123
 7352TIP3    H143471   4.336   0.824  11.200 -2.2946  0.3674 -0.6558
 7352TIP3    H243472   4.294   0.759  11.331 -0.6252  0.3349 -0.1091
 7353TIP3   OH243473   2.754   1.520   3.553 -0.0975  0.3613 -0.8212
 7353TIP3    H143474   2.689   1.564   3.498  0.3482  2.3308  0.1367
 7353TIP3    H243475   2.836   1.528   3.505 -0.2193 -0.4542 -1.1695
 7354TIP3   OH243476   4.902   4.423   4.317  0.3548 -0.1008 -0.0911
 7354TIP3    H143477   4.935   4.355   4.258  0.2726 -1.3178  1.2106
 7354TIP3    H243478   4.976   4.481   4.332  0.6702 -0.3795 -0.5527
 7355TIP3   OH243479   4.814   4.371   0.206  0.1520 -0.0262  0.3385
 7355TIP3    H143480   4.742   4.332   0.255  0.4275 -0.3427  0.4931
 7355TIP3    H243481   4.810   4.465   0.227 -1.0809  0.1921 -0.7592
 7356TIP3   OH243482   2.271   0.461  13.033  0.0333  0.4532 -0.1237
 7356TIP3    H143483   2.306   0.400  13.097 -1.3843 -0.9136 -0.5954
 7356TIP3    H243484   2.342   0.524  13.018  0.6135  0.4458  2.2738
 7357TIP3   OH243485   4.841   6.275   4.557 -0.0394 -0.6528  0.1650
 7357TIP3    H143486   4.758   6.245   4.521  1.1989 -3.7985 -0.3890
 7357TIP3    H243487   4.906   6.250   4.491  1.5896 -0.3193  1.5610
 7358TIP3   OH243488   2.834   1.112  14.643  0.3562  0.2271  0.4398
 7358TIP3    H143489   2.922   1.139  14.615  0.5729  0.3879  1.2384
 7358TIP3    H243490   2.782   1.192  14.639 -0.1228 -0.1396 -1.3478
 7359TIP3   OH243491   2.291   5.267  13.893  0.2685 -0.6614  0.1188
 7359TIP3    H143492   2.280   5.356  13.859 -0.0168 -0.5532  0.4902
 7359TIP3    H243493   2.251   5.211  13.826  0.4945 -0.5161 -0.1404
 7360TIP3   OH243494   5.492   2.857   1.956  0.0905  0.5773 -0.1075
 7360TIP3    H143495   5.485   2.839   1.862  0.0435  1.9151 -0.3760
 7360TIP3    H243496   5.423   2.921   1.973 -0.5304 -0.3547  1.0456
 7361TIP3   OH243497   0.981   5.151  12.308  0.1254 -0.3517  0.1533
 7361TIP3    H143498   1.036   5.218  12.348  1.1390  0.6720 -2.6873
 7361TIP3    H243499   1.031   5.070  12.317  1.1206  0.1762 -0.5225
 7362TIP3   OH243500   5.063   3.755  16.068  0.7322  0.3035  0.5564
 7362TIP3    H143501   4.975   3.720  16.055  0.9331  0.0631 -0.2255
 7362TIP3    H243502   5.053   3.822  16.136  0.0365 -0.0555  0.8109
 7363TIP3   OH243503   5.220   2.313  15.160 -0.0281  0.7847 -0.2488
 7363TIP3    H143504   5.212   2.255  15.235  0.4627 -1.3337 -1.7359
 7363TIP3    H243505   5.313   2.309  15.136 -0.4556  0.1438 -1.8995
 7364TIP3   OH243506   3.696   2.654  15.288 -0.1493 -0.4341 -0.5150
 7364TIP3    H143507   3.727   2.635  15.199  0.1668 -1.1965 -0.2567
 7364TIP3    H243508   3.697   2.568  15.331 -0.7207 -0.1356  0.0894
 7365TIP3   OH243509   0.042   0.800  13.066  0.0958 -0.0730 -0.7794
 7365TIP3    H143510  -0.011   0.771  13.140 -1.3209  0.7185 -1.4284
 7365TIP3    H243511   0.076   0.885  13.092  0.3883 -0.2302 -0.6566
 7366TIP3   OH243512   0.247   0.193  14.292 -0.5069  0.7002  0.4984
 7366TIP3    H143513   0.298   0.260  14.338  0.1249  0.6636 -0.1290
 7366TIP3    H243514   0.313   0.130  14.262 -0.8316  0.9784 -0.8733
 7367TIP3   OH243515   4.066   1.198  13.155  0.7767  0.3800  0.2776
 7367TIP3    H143516   4.087   1.269  13.216 -1.0826  0.9501  0.3327
 7367TIP3    H243517   4.038   1.242  13.075 -0.6097 -0.2607  0.3812
 7368TIP3   OH243518   1.540   2.971   1.294 -0.6004 -0.5836  0.2423
 7368TIP3    H143519   1.552   3.049   1.240 -0.3921 -1.2098 -0.6356
 7368TIP3    H243520   1.492   2.911   1.238  0.3500 -1.5592  0.4470
 7369TIP3   OH243521   1.806   1.379   6.207  0.6199  0.0644  0.1390
 7369TIP3    H143522   1.900   1.388   6.189  0.2729  0.3264 -1.8117
 7369TIP3    H243523   1.794   1.287   6.226  0.9017 -0.6270 -2.5683
 7370TIP3   OH243524   5.854   0.426  11.130 -0.5852 -0.5542 -0.0458
 7370TIP3    H143525   5.858   0.375  11.211  0.2779 -0.0812  0.2199
 7370TIP3    H243526   5.822   0.512  11.157 -0.7449 -0.5401 -0.2793
 7371TIP3   OH243527   6.129   3.252  10.492  1.2619 -0.1612  0.7000
 7371TIP3    H143528   6.079   3.315  10.544  1.2825  0.5313 -0.1094
 7371TIP3    H243529   6.069   3.178  10.479  0.7668  0.2731  0.5121
 7372TIP3   OH243530   3.695   1.332  11.768 -0.1693  0.5500  0.3594
 7372TIP3    H143531   3.602   1.353  11.760 -0.0415  0.8957 -0.3209
 7372TIP3    H243532   3.702   1.283  11.849 -1.0376 -0.0161  0.1008
 7373TIP3   OH243533   2.340   3.690  14.798 -0.5399  0.1945  0.0192
 7373TIP3    H143534   2.333   3.709  14.705  1.1993  1.5820  0.1106
 7373TIP3    H243535   2.253   3.709  14.833 -2.0699 -3.0245 -1.6607
 7374TIP3   OH243536   4.451   0.004  16.848  0.1742 -0.3907  0.0181
 7374TIP3    H143537   4.505   0.080  16.869 -0.4524  0.2558 -0.6334
 7374TIP3    H243538   4.512  -0.060  16.811  0.9531 -0.8003  1.9194
 7375TIP3   OH243539   0.598   1.558   1.799  0.0787  0.6457  0.0363
 7375TIP3    H143540   0.506   1.582   1.791  0.0595  0.2369 -1.0478
 7375TIP3    H243541   0.613   1.494   1.730  1.3618  1.2769 -0.3158
 7376TIP3   OH243542   5.296   3.874  16.577 -0.4586 -0.7685 -0.2743
 7376TIP3    H143543   5.312   3.957  16.532 -0.9434 -1.5112 -1.8620
 7376TIP3    H243544   5.369   3.866  16.638 -0.4242  0.8316 -0.0530
 7377TIP3   OH243545   0.598   1.979   2.347 -0.0944 -0.5202 -0.6389
 7377TIP3    H143546   0.623   1.891   2.319  1.3532  0.0708 -1.3436
 7377TIP3    H243547   0.539   2.010   2.278  2.3274  0.3906 -2.4343
 7378TIP3   OH243548   0.828   6.312   4.615 -0.3985  0.1220 -0.1599
 7378TIP3    H143549   0.852   6.395   4.573  0.0834  0.4748  0.7632
 7378TIP3    H243550   0.889   6.248   4.578  0.9485  0.6936  0.9572
 7379TIP3   OH243551   0.106   5.396   2.412  0.3520 -0.3591  0.3707
 7379TIP3    H143552   0.184   5.344   2.433 -0.5840 -2.7695 -1.5590
 7379TIP3    H243553   0.035   5.333   2.413 -1.0586  1.1234 -1.0780
 7380TIP3   OH243554   1.013   1.113   0.013 -0.0479 -0.4247 -0.3595
 7380TIP3    H143555   0.927   1.139   0.045 -0.5703  0.3834 -2.2807
 7380TIP3    H243556   1.023   1.159  -0.071  2.3809 -0.2349 -0.0642
 7381TIP3   OH243557   3.954   5.971  14.678 -0.0984  0.0393  0.5856
 7381TIP3    H143558   3.946   6.009  14.766  0.9373 -0.0817  0.7407
 7381TIP3    H243559   3.971   6.046  14.621  0.0755  0.0228  0.6153
 7382TIP3   OH243560   1.977   0.831  13.225 -0.2896  0.2023  0.2809
 7382TIP3    H143561   2.013   0.837  13.314  2.4656 -0.0260 -0.7224
 7382TIP3    H243562   2.019   0.754  13.188 -1.4793  0.2399 -1.2067
 7383TIP3   OH243563   3.150   0.446  15.078  0.3960  0.0858 -0.2182
 7383TIP3    H143564   3.096   0.371  15.051  1.0527 -0.5430  0.1643
 7383TIP3    H243565   3.111   0.474  15.161  2.4289 -2.3475  1.7236
 7384TIP3   OH243566   5.994   0.786  12.110 -0.2976 -0.0979  0.4847
 7384TIP3    H143567   6.082   0.764  12.082 -0.2527  0.8896 -0.1861
 7384TIP3    H243568   5.959   0.704  12.145  0.3161 -0.8992 -0.7128
 7385TIP3   OH243569   0.022   1.601   3.877 -0.3534  0.2727  0.3438
 7385TIP3    H143570   0.033   1.649   3.958 -2.1896  2.2995 -0.5306
 7385TIP3    H243571   0.111   1.598   3.839  0.2316  0.6870  1.6354
 7386TIP3   OH243572   5.679   3.511  12.144  0.5249  0.2887 -0.6975
 7386TIP3    H143573   5.596   3.463  12.138 -0.6494  1.8347  1.6234
 7386TIP3    H243574   5.744   3.443  12.161 -0.8798 -0.6631  1.2604
 7387TIP3   OH243575   3.718   1.916   2.378 -0.3151  0.7169 -0.1276
 7387TIP3    H143576   3.740   1.896   2.469  1.4463 -0.5733 -0.7928
 7387TIP3    H243577   3.773   1.991   2.356  0.7153 -0.1710 -0.6718
 7388TIP3   OH243578   2.749   2.456  16.050  0.7074  0.2154 -0.3765
 7388TIP3    H143579   2.688   2.400  16.002 -1.2379  0.6688  1.4499
 7388TIP3    H243580   2.698   2.534  16.072  2.5122  1.4502 -0.3485
 7389TIP3   OH243581   5.551   6.505  16.050  0.2963 -0.0489  0.4047
 7389TIP3    H143582   5.541   6.544  15.963 -3.2597 -0.2534  0.5729
 7389TIP3    H243583   5.600   6.424  16.035 -0.4017 -0.1625 -1.4615
 7390TIP3   OH243584   5.575   3.553   5.489  0.2221  0.2505  0.0645
 7390TIP3    H143585   5.610   3.473   5.451  1.5345  0.7045  0.2714
 7390TIP3    H243586   5.650   3.613   5.491 -0.4015  1.0201  1.1813
 7391TIP3   OH243587   4.810   1.643  12.040  0.3708  0.1111  0.0586
 7391TIP3    H143588   4.786   1.554  12.014  1.0694 -0.3515  0.9481
 7391TIP3    H243589   4.844   1.683  11.960 -0.6284 -0.1606 -0.5290
 7392TIP3   OH243590   6.168   2.232   4.745 -0.7307 -0.5082 -0.0207
 7392TIP3    H143591   6.191   2.275   4.663 -0.6637 -0.9885 -0.2595
 7392TIP3    H243592   6.076   2.206   4.734 -1.2957  1.0490  0.7747
 7393TIP3   OH243593   3.410   3.368  14.789  0.3224 -0.2217  0.2258
 7393TIP3    H143594   3.314   3.367  14.796  0.0203 -2.6783 -2.3785
 7393TIP3    H243595   3.438   3.287  14.831  1.2968  0.5202  1.0489
 7394TIP3   OH243596   0.523   0.015   1.850 -0.0407  0.8608  0.8313
 7394TIP3    H143597   0.431  -0.004   1.870 -0.5382  2.6452  0.4476
 7394TIP3    H243598   0.568   0.008   1.934 -0.6655  0.7215  1.1603
 7395TIP3   OH243599   5.829   4.717  13.490 -0.0512 -0.2393  0.5763
 7395TIP3    H143600   5.832   4.679  13.578 -0.6561  0.6925  1.0148
 7395TIP3    H243601   5.824   4.641  13.432 -1.4322 -0.8542  1.4416
 7396TIP3   OH243602   0.397   4.797   4.896  0.9126 -0.1684 -0.3806
 7396TIP3    H143603   0.337   4.722   4.885 -0.7773  1.2913 -1.7873
 7396TIP3    H243604   0.427   4.816   4.807  1.0114  1.0497 -0.0960
 7397TIP3   OH243605   5.877   3.446  11.055 -0.6845 -0.1296  0.1372
 7397TIP3    H143606   5.971   3.441  11.039 -0.6249 -2.4380  0.8686
 7397TIP3    H243607   5.839   3.463  10.968  0.4179  1.7367 -0.0194
 7398TIP3   OH243608   1.342   5.071   2.645 -0.4064 -0.2071  0.1164
 7398TIP3    H143609   1.249   5.088   2.662 -0.6691 -0.4743 -0.9574
 7398TIP3    H243610   1.352   5.089   2.552  0.3905 -1.1731 -0.0002
 7399TIP3   OH243611   2.835   4.893   3.596 -0.1100  0.2224 -0.1707
 7399TIP3    H143612   2.791   4.904   3.511 -0.7113  3.0367  0.3947
 7399TIP3    H243613   2.928   4.887   3.574 -0.2751  0.7392 -1.0752
 7400TIP3   OH243614   6.140   1.895  14.517 -0.1245  0.4759  0.2792
 7400TIP3    H143615   6.062   1.886  14.573 -0.0459 -0.2213  0.2848
 7400TIP3    H243616   6.118   1.846  14.438  0.2577  0.3726  0.2340
 7401TIP3   OH243617   0.275   3.290   2.848  0.2080  0.0779 -0.5624
 7401TIP3    H143618   0.268   3.238   2.768  1.7651 -1.3512  0.1636
 7401TIP3    H243619   0.185   3.311   2.872 -0.4256 -1.5861 -1.3563
 7402TIP3   OH243620   1.210   4.188   3.181  0.1709 -0.1490  0.1826
 7402TIP3    H143621   1.268   4.191   3.257  0.0577 -0.6149  0.2899
 7402TIP3    H243622   1.212   4.277   3.146  0.1689  0.0878  0.7743
 7403TIP3   OH243623   0.872   1.222  16.920 -0.3790  0.3252 -0.3588
 7403TIP3    H143624   0.865   1.236  16.826  1.8602  0.5021 -0.5478
 7403TIP3    H243625   0.883   1.310  16.957 -0.5343  0.2002 -0.0119
 7404TIP3   OH243626   2.595   0.028   5.072  0.8484 -0.2915  0.0590
 7404TIP3    H143627   2.594  -0.010   5.160  3.1309 -1.1279 -0.2059
 7404TIP3    H243628   2.638   0.112   5.082  1.6159 -0.6298 -0.3212
 7405TIP3   OH243629   4.985   5.609   6.486 -0.3961  0.3596  0.4669
 7405TIP3    H143630   4.988   5.693   6.533 -0.1973 -0.0684  1.2297
 7405TIP3    H243631   4.909   5.618   6.428 -0.5170  0.9861  0.7074
 7406TIP3   OH243632   3.301   2.962  17.228  0.4287  0.2059 -0.4513
 7406TIP3    H143633   3.266   3.016  17.299  1.0124 -0.8584  0.6756
 7406TIP3    H243634   3.236   2.894  17.214  1.0542 -0.5353  0.1936
 7407TIP3   OH243635   3.508   2.559  12.320  0.3135 -0.1398 -0.6638
 7407TIP3    H143636   3.489   2.648  12.351 -0.6178 -0.3377 -0.6255
 7407TIP3    H243637   3.445   2.545  12.250 -0.5039 -1.2739  0.2581
 7408TIP3   OH243638   0.477   5.979  12.765  0.0274  0.1878 -0.3469
 7408TIP3    H143639   0.428   5.936  12.695 -0.3481 -0.8829  0.5269
 7408TIP3    H243640   0.490   6.068  12.735 -0.4251 -0.1587 -1.6207
 7409TIP3   OH243641   1.001   1.921  15.294 -0.2096  0.0952  0.2052
 7409TIP3    H143642   1.071   1.939  15.356 -1.1290  0.3337  1.1986
 7409TIP3    H243643   0.920   1.927  15.346 -0.9707 -0.1480 -0.9125
 7410TIP3   OH243644   0.757   4.375   0.342  0.2193  0.9330 -0.5290
 7410TIP3    H143645   0.717   4.441   0.284 -0.5201 -1.2997 -2.7337
 7410TIP3    H243646   0.693   4.363   0.412  0.8802  3.3076  0.5718
 7411TIP3   OH243647   3.179   2.350   3.451 -0.3037 -0.2703 -0.0789
 7411TIP3    H143648   3.188   2.275   3.510  3.2219 -1.4138 -1.8066
 7411TIP3    H243649   3.149   2.312   3.368  0.1065  0.4415 -0.5644
 7412TIP3   OH243650   1.578   3.411   3.140 -0.2836  0.0778  0.2528
 7412TIP3    H143651   1.502   3.356   3.122 -0.1607 -0.5582  1.5195
 7412TIP3    H243652   1.581   3.416   3.236  0.2587  1.5399  0.1843
 7413TIP3   OH243653   5.094   0.973  13.495  0.4550 -0.3875 -0.0762
 7413TIP3    H143654   5.150   0.956  13.571  0.4082 -0.1998  0.0020
 7413TIP3    H243655   5.114   1.063  13.470  1.4440 -0.8751 -1.1153
 7414TIP3   OH243656   1.299   6.624   3.955 -0.0432  0.2258 -0.5729
 7414TIP3    H143657   1.262   6.663   4.034  0.1396  0.1253 -0.4357
 7414TIP3    H243658   1.224   6.589   3.907 -0.0388 -0.9276  0.2185
 7415TIP3   OH243659   5.705   5.228   0.299 -0.1519 -0.3436 -0.1306
 7415TIP3    H143660   5.690   5.301   0.239 -0.2650 -0.1366  0.1506
 7415TIP3    H243661   5.718   5.152   0.241  1.9706  0.2476 -0.5162
 7416TIP3   OH243662   2.677   3.153   1.146 -0.9068  0.1191 -0.2386
 7416TIP3    H143663   2.741   3.222   1.125  0.2912  0.0672  2.7444
 7416TIP3    H243664   2.674   3.098   1.067  1.4411  1.1018 -1.1036
 7417TIP3   OH243665   2.024   6.724   1.853 -0.3904  0.1801 -0.6302
 7417TIP3    H143666   1.958   6.679   1.800 -0.8347  1.7788 -1.5020
 7417TIP3    H243667   2.040   6.806   1.806  0.9122  0.6267  0.5255
 7418TIP3   OH243668   6.284   6.320  17.265  0.2487 -0.8377 -0.6851
 7418TIP3    H143669   6.297   6.342  17.357  1.1358 -0.7881 -0.8204
 7418TIP3    H243670   6.236   6.395  17.229  0.6226 -0.4827 -0.4538
 7419TIP3   OH243671   5.394   3.689   4.135  0.1182  0.4271  0.1839
 7419TIP3    H143672   5.308   3.721   4.109  0.5493  2.2057  0.8008
 7419TIP3    H243673   5.400   3.601   4.096 -3.1776 -1.0793  2.5819
 7420TIP3   OH243674   1.024   2.680  13.377  0.1441 -0.0323 -0.3092
 7420TIP3    H143675   1.028   2.601  13.432  1.7067  0.5882  0.5499
 7420TIP3    H243676   1.104   2.676  13.324  0.5313  1.2200  0.1432
 7421TIP3   OH243677   2.490   1.576  14.490  0.2096 -0.1681  0.1836
 7421TIP3    H143678   2.418   1.601  14.431  1.0813  1.3558 -0.2689
 7421TIP3    H243679   2.447   1.561  14.574 -0.6307  0.8736 -0.0376
 7422TIP3   OH243680   1.194   2.217  13.084  0.4087 -0.1971  0.1022
 7422TIP3    H143681   1.157   2.135  13.052  1.4531 -0.3248 -0.8378
 7422TIP3    H243682   1.165   2.223  13.175 -0.8861 -0.8716 -0.2485
 7423TIP3   OH243683   1.063   6.291  14.485  0.6485  0.3108 -0.0344
 7423TIP3    H143684   0.982   6.267  14.440  0.5074  0.0838  0.3356
 7423TIP3    H243685   1.082   6.216  14.540  3.3020 -1.4769 -3.0514
 7424TIP3   OH243686   0.280   2.362  17.006  0.5571 -0.7502  0.1969
 7424TIP3    H143687   0.366   2.377  17.047  0.8609 -1.2747 -0.2347
 7424TIP3    H243688   0.287   2.405  16.921  0.3225 -0.6313  0.2384
 7425TIP3   OH243689   0.875   1.950  14.760 -0.0749 -0.1875  0.3648
 7425TIP3    H143690   0.845   2.008  14.830  0.4117 -0.5667  0.8998
 7425TIP3    H243691   0.968   1.969  14.751  0.6951 -2.6240  2.3064
 7426TIP3   OH243692   6.241   1.447  14.512 -0.0360  0.1702  0.2094
 7426TIP3    H143693   6.278   1.453  14.424  2.5200 -2.0422  0.9810
 7426TIP3    H243694   6.302   1.496  14.567 -0.5124 -0.0959  0.9843
 7427TIP3   OH243695   3.620   4.332  12.634 -0.2321  0.6354 -0.3902
 7427TIP3    H143696   3.636   4.421  12.602  0.3251  0.3979 -0.7936
 7427TIP3    H243697   3.708   4.295  12.647 -0.3906  1.0588  2.4294
 7428TIP3   OH243698   2.504   1.197   3.513 -0.3761 -0.4302 -0.2049
 7428TIP3    H143699   2.477   1.107   3.530  0.0457 -0.8243 -1.4676
 7428TIP3    H243700   2.441   1.229   3.448 -0.9459  0.4353  0.7569
 7429TIP3   OH243701   3.825   0.344  13.487 -0.3008 -0.1550  0.2534
 7429TIP3    H143702   3.787   0.260  13.460  0.8104 -1.0328  1.3163
 7429TIP3    H243703   3.830   0.339  13.582  1.2536  0.4586  0.2260
 7430TIP3   OH243704   1.056   1.669  12.091  0.3522  0.4508 -0.0185
 7430TIP3    H143705   1.091   1.605  12.028 -0.9050 -0.1314 -0.1560
 7430TIP3    H243706   1.056   1.623  12.175 -0.4164  0.2952 -0.0919
 7431TIP3   OH243707   0.057   4.046  17.125  0.0491 -0.3758 -0.4526
 7431TIP3    H143708   0.100   3.995  17.057  0.4216 -0.3305 -0.2507
 7431TIP3    H243709  -0.013   4.093  17.079 -0.2172 -0.9694 -0.6573
 7432TIP3   OH243710   2.671   5.295  11.819 -0.4951  0.0434  0.6908
 7432TIP3    H143711   2.708   5.381  11.835  1.0208 -0.9335  2.7944
 7432TIP3    H243712   2.687   5.245  11.899 -0.2604 -2.5780 -0.8452
 7433TIP3   OH243713   6.051   4.575  15.471 -0.2590 -0.1891  0.5862
 7433TIP3    H143714   6.086   4.488  15.493 -0.4323 -0.6888 -0.9800
 7433TIP3    H243715   5.966   4.578  15.514 -0.9260 -1.4398 -0.5646
 7434TIP3   OH243716   2.368   4.071   5.979  0.0220 -0.0824 -0.1329
 7434TIP3    H143717   2.410   3.992   6.014 -0.6770 -0.2183  0.4385
 7434TIP3    H243718   2.360   4.055   5.885  0.7536 -0.2803 -0.1604
 7435TIP3   OH243719   6.356   5.391   5.131 -0.6800  0.1672 -0.1652
 7435TIP3    H143720   6.439   5.388   5.179 -0.1980 -0.8243 -1.0063
 7435TIP3    H243721   6.294   5.343   5.186 -0.8811  1.4147  0.7479
 7436TIP3   OH243722   1.465   0.013  11.697  0.0219 -0.5788  0.0250
 7436TIP3    H143723   1.393   0.074  11.716  0.5309 -0.3631  1.3646
 7436TIP3    H243724   1.471   0.012  11.601 -1.4875 -0.2870 -0.0933
 7437TIP3   OH243725   6.023   5.026   5.024  0.1531  0.7167  0.3227
 7437TIP3    H143726   6.016   5.020   5.119  1.9483  1.4336  0.5446
 7437TIP3    H243727   6.095   5.088   5.009  0.1394  0.3575 -1.4992
 7438TIP3   OH243728   0.763   6.544   1.936  0.1769  0.3130 -0.1325
 7438TIP3    H143729   0.699   6.518   2.003  0.8106 -0.1015  0.3339
 7438TIP3    H243730   0.848   6.526   1.977  0.6315  2.1313 -0.2102
 7439TIP3   OH243731   4.588   5.215  17.314  0.5268  0.0931 -0.0825
 7439TIP3    H143732   4.569   5.309  17.317  0.6613  0.2313 -2.0631
 7439TIP3    H243733   4.677   5.210  17.278  0.0352 -0.8087 -1.2311
 7440TIP3   OH243734   3.035   0.229  12.722  0.0130  0.1753 -0.0397
 7440TIP3    H143735   2.973   0.298  12.745  1.6043  1.4781  0.4620
 7440TIP3    H243736   3.084   0.264  12.648  1.0330 -0.2858  0.4057
 7441TIP3   OH243737   4.636   0.944  11.437 -0.7247 -0.0054  0.0048
 7441TIP3    H143738   4.633   1.039  11.430  0.9192  0.0559 -0.0768
 7441TIP3    H243739   4.642   0.913  11.347  1.6975 -0.0206  0.1132
 7442TIP3   OH243740   2.934   3.373   3.236  0.1020 -0.6387  0.0453
 7442TIP3    H143741   2.933   3.469   3.240  0.0728 -0.6121 -0.4759
 7442TIP3    H243742   2.855   3.347   3.282  0.8028 -0.4755  1.3999
 7443TIP3   OH243743   5.556   4.704   3.191  0.7674 -0.3614  0.2471
 7443TIP3    H143744   5.535   4.742   3.106  0.3475  1.6832  1.2099
 7443TIP3    H243745   5.498   4.748   3.252  1.7188 -1.0878  1.7326
 7444TIP3   OH243746   2.271   6.722   3.598 -0.1605 -0.3264 -0.5782
 7444TIP3    H143747   2.288   6.675   3.680 -0.2635  0.4562 -0.0957
 7444TIP3    H243748   2.211   6.666   3.550 -0.3261 -0.6627  0.0117
 7445TIP3   OH243749   1.305   4.636  11.014  0.3247  0.4081 -0.2842
 7445TIP3    H143750   1.228   4.607  11.063  0.6582 -0.3080 -0.1653
 7445TIP3    H243751   1.345   4.703  11.069 -0.2762  0.8633 -0.3994
 7446TIP3   OH243752   2.583   4.416  17.396  0.0895 -0.5692  0.1943
 7446TIP3    H143753   2.513   4.435  17.458 -0.2545 -1.2352  0.0229
 7446TIP3    H243754   2.608   4.502  17.361 -0.2543 -0.2705  0.6672
 7447TIP3   OH243755   2.644   5.782   4.379  0.0535 -0.4703 -0.0393
 7447TIP3    H143756   2.626   5.753   4.468 -0.8190  0.2822  0.0469
 7447TIP3    H243757   2.731   5.747   4.359  1.6902  1.9031  2.2276
 7448TIP3   OH243758   4.646   6.645  14.129  0.5054  0.2352  0.5243
 7448TIP3    H143759   4.592   6.573  14.162 -0.3434  0.0024 -1.2386
 7448TIP3    H243760   4.705   6.603  14.066 -0.8606  1.1791 -1.5058
 7449TIP3   OH243761   0.334   6.456   5.565 -0.7956 -0.4017 -0.8518
 7449TIP3    H143762   0.327   6.393   5.493 -1.6221 -1.2417 -0.0763
 7449TIP3    H243763   0.317   6.403   5.643  2.1800  0.0258  0.2003
 7450TIP3   OH243764   3.846   6.377   5.786  0.3311 -0.0933  0.0427
 7450TIP3    H143765   3.888   6.459   5.758 -1.4253  1.3133  1.2646
 7450TIP3    H243766   3.803   6.344   5.707  2.6110 -0.9399 -0.9384
 7451TIP3   OH243767   4.149   3.077  15.047  0.5917 -0.3876 -0.2693
 7451TIP3    H143768   4.153   3.168  15.018  0.0451 -0.5506 -0.8781
 7451TIP3    H243769   4.233   3.039  15.022 -0.1367 -0.7302 -2.3879
 7452TIP3   OH243770   2.735   2.356  13.657  0.4020  0.1649 -0.2387
 7452TIP3    H143771   2.726   2.311  13.573  0.7127  2.2175 -1.4586
 7452TIP3    H243772   2.655   2.336  13.705  0.8128 -2.1684 -0.3960
 7453TIP3   OH243773   4.221   0.078  15.352  0.6917 -0.1388 -0.2900
 7453TIP3    H143774   4.151   0.088  15.417 -1.5309 -0.8092 -2.4346
 7453TIP3    H243775   4.288   0.141  15.379 -0.9457  0.9065  1.5934
 7454TIP3   OH243776   2.232   1.296  14.450 -1.0008  0.0554  0.6422
 7454TIP3    H143777   2.250   1.380  14.408 -0.1558 -0.0533  0.7810
 7454TIP3    H243778   2.197   1.241  14.380 -0.8093  0.2753  0.3707
 7455TIP3   OH243779   0.765   3.124   3.074  0.5020  0.1146  0.1774
 7455TIP3    H143780   0.745   3.032   3.059 -0.5066  0.2943  0.3443
 7455TIP3    H243781   0.859   3.131   3.057  0.9702 -1.2936  1.8962
 7456TIP3   OH243782   0.083   4.054   3.840 -0.4637 -0.0654  0.2771
 7456TIP3    H143783   0.105   4.024   3.928 -1.0125  0.7598  0.6982
 7456TIP3    H243784   0.071   4.148   3.848  0.7760  0.2295 -0.9492
 7457TIP3   OH243785   4.013   1.331  15.356  0.2956  0.2365  0.2778
 7457TIP3    H143786   4.008   1.311  15.450 -1.7541 -0.4692  0.0735
 7457TIP3    H243787   4.037   1.423  15.352  2.5930 -0.2392  1.4243
 7458TIP3   OH243788   3.137   0.330  12.493  0.4156 -0.1793  0.0556
 7458TIP3    H143789   3.115   0.421  12.513 -0.2932 -0.3835  0.2192
 7458TIP3    H243790   3.138   0.327  12.397  0.3164 -0.0307  0.0494
 7459TIP3   OH243791   3.028   0.685   5.055 -0.0533 -0.8822 -0.1454
 7459TIP3    H143792   3.028   0.774   5.020 -1.2093 -0.7570  0.1396
 7459TIP3    H243793   3.046   0.629   4.980 -0.4748 -0.4840 -0.5426
 7460TIP3   OH243794   0.250   0.116   2.575  0.1018  0.4774 -0.3016
 7460TIP3    H143795   0.239   0.202   2.534 -0.2267  0.2540 -0.6843
 7460TIP3    H243796   0.174   0.107   2.632  0.9049  1.0877  0.9244
 7461TIP3   OH243797   0.232   6.256   2.365  0.0998 -0.1486  0.3847
 7461TIP3    H143798   0.290   6.328   2.389  1.0147 -0.8509  0.3108
 7461TIP3    H243799   0.247   6.189   2.432 -0.4031 -0.4677  0.1907
 7462TIP3   OH243800   3.128   2.692  16.813 -0.2357 -0.2503  0.3673
 7462TIP3    H143801   3.058   2.754  16.792 -1.0172 -1.1367  0.2667
 7462TIP3    H243802   3.081   2.613  16.842  0.7586 -0.0987  2.5151
 7463TIP3   OH243803   5.524   5.912   1.996  0.6121 -0.2420 -0.4524
 7463TIP3    H143804   5.476   5.901   1.914 -1.1659  1.1971  0.3185
 7463TIP3    H243805   5.472   5.863   2.060 -0.5721  2.2682  0.6255
 7464TIP3   OH243806   4.824   5.279  16.734  0.2880 -0.2070  0.5897
 7464TIP3    H143807   4.768   5.213  16.694 -0.3192  1.7485 -2.0674
 7464TIP3    H243808   4.911   5.261  16.699 -0.1414  1.1705 -1.3093
 7465TIP3   OH243809   6.010   2.754   2.037 -0.6088  0.0471 -0.5964
 7465TIP3    H143810   5.988   2.708   2.118  0.7733  2.3272  1.1960
 7465TIP3    H243811   5.927   2.791   2.007 -0.8705  0.7565  0.8927
 7466TIP3   OH243812   0.388   4.614  17.200 -0.4671  0.2203  0.1381
 7466TIP3    H143813   0.323   4.634  17.132 -1.3130 -0.2788  0.7886
 7466TIP3    H243814   0.473   4.624  17.155 -0.8608  3.1944 -0.1435
 7467TIP3   OH243815   6.720   6.714  13.808  0.6138  0.7045 -0.4367
 7467TIP3    H143816   6.791   6.651  13.821 -1.1997 -1.9570 -2.3978
 7467TIP3    H243817   6.714   6.761  13.891 -0.1836 -4.2450  2.7438
 7468TIP3   OH243818   5.078   1.835   5.769 -1.0180  0.0819 -0.5815
 7468TIP3    H143819   5.158   1.845   5.718  0.4842 -0.2981  1.5593
 7468TIP3    H243820   5.061   1.740   5.768 -0.3055 -0.0821  0.5051
 7469TIP3   OH243821   5.130   4.137  14.726  0.0270 -0.1290  0.1008
 7469TIP3    H143822   5.139   4.056  14.674 -1.6320  0.5128 -1.2762
 7469TIP3    H243823   5.038   4.161  14.717  0.7016  2.5345 -0.4918
 7470TIP3   OH243824   4.623   5.109   3.925  0.6454  0.3228  0.0661
 7470TIP3    H143825   4.635   5.019   3.895  0.3846  1.1095 -2.6593
 7470TIP3    H243826   4.709   5.135   3.957  0.6346 -0.9612  1.2511
 7471TIP3   OH243827   3.471   1.174  12.897 -0.8671 -0.1973  0.5506
 7471TIP3    H143828   3.486   1.083  12.874 -1.1210  0.1048 -0.9156
 7471TIP3    H243829   3.552   1.202  12.941  0.3772 -0.3714 -1.4961
 7472TIP3   OH243830   5.851   6.113   3.677  0.1360 -0.3548 -0.3524
 7472TIP3    H143831   5.812   6.192   3.639 -1.4103 -1.0000 -0.1482
 7472TIP3    H243832   5.862   6.135   3.770 -0.6131 -0.5042 -0.2285
 7473TIP3   OH243833   5.623   2.323   0.752 -0.4140 -0.4461  0.1602
 7473TIP3    H143834   5.543   2.375   0.745  0.3492  0.5886 -1.8686
 7473TIP3    H243835   5.645   2.323   0.845 -1.1248  1.8597  0.3869
 7474TIP3   OH243836   0.791   1.219  14.966 -0.4020  0.3379  0.7012
 7474TIP3    H143837   0.698   1.205  14.985 -0.5823 -1.3036 -1.1157
 7474TIP3    H243838   0.794   1.245  14.874  0.8870  1.2939  0.9845
 7475TIP3   OH243839   3.776   5.920   4.984  0.4015 -0.4313  0.0452
 7475TIP3    H143840   3.790   5.914   4.890 -2.0563 -1.9313 -0.3240
 7475TIP3    H243841   3.807   5.836   5.018  0.2894 -0.3252  0.4121
 7476TIP3   OH243842   4.911   1.419   5.887  0.3704  0.0476 -0.4629
 7476TIP3    H143843   4.890   1.353   5.953 -3.2973  1.9856  0.5909
 7476TIP3    H243844   4.885   1.379   5.804  0.1255 -0.6095 -0.0741
 7477TIP3   OH243845   5.573   1.604   1.609  0.7381  0.3214  0.6951
 7477TIP3    H143846   5.598   1.522   1.566 -0.2224  0.5178 -0.2704
 7477TIP3    H243847   5.656   1.650   1.623  1.0971  0.1215 -0.6802
 7478TIP3   OH243848   6.533   2.354   5.079  0.1979 -0.9555 -0.1830
 7478TIP3    H143849   6.521   2.323   4.989 -1.2475 -0.0798 -0.3147
 7478TIP3    H243850   6.592   2.429   5.071 -0.3999 -0.5180 -0.4684
 7479TIP3   OH243851   3.834   5.019  11.843 -0.3450 -0.5478  0.2176
 7479TIP3    H143852   3.824   4.925  11.829  1.7920 -0.9856  1.2102
 7479TIP3    H243853   3.929   5.033  11.843 -0.4977  2.2643 -3.8057
 7480TIP3   OH243854   0.203   4.212  13.557 -0.3521  0.1694 -0.0839
 7480TIP3    H143855   0.248   4.141  13.511 -1.5992  0.5012 -1.9138
 7480TIP3    H243856   0.167   4.171  13.636 -0.1226 -0.9741 -0.5606
 7481TIP3   OH243857   6.318   0.934  16.490 -0.0417 -0.1410 -0.0280
 7481TIP3    H143858   6.382   0.988  16.445  0.4827 -0.6388  0.0978
 7481TIP3    H243859   6.234   0.974  16.471  0.2037 -0.1197 -1.1325
 7482TIP3   OH243860   5.844   1.194  12.556 -0.2219 -0.2596  0.3447
 7482TIP3    H143861   5.796   1.194  12.473 -0.4322  0.2529  0.4596
 7482TIP3    H243862   5.858   1.287  12.575 -1.6239 -0.2886  1.7091
 7483TIP3   OH243863   2.010   3.262   1.439 -0.0598 -0.0200  0.1348
 7483TIP3    H143864   1.950   3.218   1.499 -1.2238 -0.1031 -1.0534
 7483TIP3    H243865   2.094   3.217   1.453 -1.1305 -2.5331 -0.8520
 7484TIP3   OH243866   2.580   4.495   0.337  0.2425  0.0643  0.0529
 7484TIP3    H143867   2.560   4.498   0.243  3.0844  0.3544 -0.6435
 7484TIP3    H243868   2.521   4.559   0.376 -1.2889 -0.3476 -1.4415
 7485TIP3   OH243869   5.014   0.742  13.845  0.3480  0.0943  0.6088
 7485TIP3    H143870   4.930   0.779  13.819  1.3479  1.3768 -0.9312
 7485TIP3    H243871   4.997   0.648  13.851 -0.7261  0.0651 -1.7491
 7486TIP3   OH243872   4.936   3.418  15.566  0.3622 -0.3040 -0.6467
 7486TIP3    H143873   4.865   3.422  15.502 -0.8260  1.1705  0.6700
 7486TIP3    H243874   4.915   3.341  15.620  0.9879 -1.1405 -1.5648
 7487TIP3   OH243875   0.890   4.043  12.071  0.2048 -0.0414 -0.4937
 7487TIP3    H143876   0.882   4.004  11.984 -1.6798 -0.2411 -0.2895
 7487TIP3    H243877   0.850   4.129  12.063  0.3320  0.0793  0.0818
 7488TIP3   OH243878   5.392   3.993   3.626  0.1975  0.1663 -0.2890
 7488TIP3    H143879   5.349   4.079   3.637  1.3309  0.6827  0.2748
 7488TIP3    H243880   5.320   3.930   3.633 -0.6399  1.0569 -0.5449
 7489TIP3   OH243881   5.864   0.520   0.348  0.2978  0.5673 -0.1550
 7489TIP3    H143882   5.781   0.505   0.303  0.6542  1.3802 -1.1263
 7489TIP3    H243883   5.864   0.458   0.420 -0.6683 -0.1964 -0.7915
 7490TIP3   OH243884   0.154   2.824  12.079 -0.3240 -0.2613 -0.6383
 7490TIP3    H143885   0.151   2.849  11.987  1.1528 -1.1307 -0.9527
 7490TIP3    H243886   0.081   2.872  12.119 -1.2390 -0.1807 -2.3141
 7491TIP3   OH243887   6.390   4.242  13.972 -0.3651  0.3397  0.3300
 7491TIP3    H143888   6.355   4.330  13.984  1.2652  1.0458  0.1137
 7491TIP3    H243889   6.410   4.211  14.061 -0.3539  0.4387  0.3616
 7492TIP3   OH243890   1.133   0.066   1.623  0.0244  0.3940  0.5034
 7492TIP3    H143891   1.143  -0.020   1.663 -0.7531  0.2278  0.3670
 7492TIP3    H243892   1.039   0.073   1.607  0.2280  0.7982 -0.5358
 7493TIP3   OH243893   5.319   5.436  12.119  0.9729  0.3373  0.2094
 7493TIP3    H143894   5.368   5.511  12.086 -0.0221  1.7927  1.8927
 7493TIP3    H243895   5.373   5.360  12.097  0.7922  1.1776 -3.9539
 7494TIP3   OH243896   1.029   4.109   0.555 -0.2744  0.3539  0.1665
 7494TIP3    H143897   0.937   4.099   0.579 -0.5933  0.8307 -0.8343
 7494TIP3    H243898   1.038   4.200   0.528  0.6663  0.5152  0.9482
 7495TIP3   OH243899   0.999   4.241  15.756 -0.1523  0.7034  0.4505
 7495TIP3    H143900   0.979   4.153  15.725  0.6661  0.8306 -0.4821
 7495TIP3    H243901   1.094   4.249  15.748 -0.2441  1.7703  0.2222
 7496TIP3   OH243902   0.040   3.362   5.924  0.1569 -0.6640 -0.1948
 7496TIP3    H143903   0.114   3.418   5.946  0.3853 -1.1949  0.4151
 7496TIP3    H243904  -0.037   3.412   5.951  0.2506  0.0909 -1.2656
 7497TIP3   OH243905   3.085   4.631   2.035  0.0700  0.2845  0.5023
 7497TIP3    H143906   3.114   4.548   1.999 -0.9940  0.5514 -1.0341
 7497TIP3    H243907   3.123   4.633   2.123  1.3507 -1.1337  0.0210
 7498TIP3   OH243908   5.191   3.204   1.914 -0.0496  0.5643  0.0307
 7498TIP3    H143909   5.264   3.265   1.921  0.3698  0.1089 -0.3259
 7498TIP3    H243910   5.114   3.255   1.942  0.1514  1.5141 -1.0679
 7499TIP3   OH243911   2.326   6.083  16.228  0.0245  0.5827  0.1417
 7499TIP3    H143912   2.286   6.138  16.295 -1.1382  0.7117 -0.6375
 7499TIP3    H243913   2.255   6.026  16.197  0.6874  0.1200 -0.5688
 7500TIP3   OH243914   5.166   5.928  14.550 -0.1111  0.4390 -0.0868
 7500TIP3    H143915   5.187   5.898  14.639  0.8185  1.2041 -0.0331
 7500TIP3    H243916   5.071   5.925  14.546 -0.0987 -2.1272  0.0401
 7501TIP3   OH243917   3.939   1.566  12.563 -0.1132  0.4376 -0.1776
 7501TIP3    H143918   4.017   1.512  12.547 -0.6455 -0.3197 -0.2857
 7501TIP3    H243919   3.965   1.654  12.535  0.7912  0.2539  0.0527
 7502TIP3   OH243920   2.326   4.929  14.703  0.1562 -0.1386  0.1415
 7502TIP3    H143921   2.316   4.839  14.733  0.0574 -1.0287 -2.3884
 7502TIP3    H243922   2.243   4.949  14.659  0.9026  0.4722 -1.0281
 7503TIP3   OH243923   5.769   0.537   4.592 -0.0454 -0.3173 -0.0960
 7503TIP3    H143924   5.819   0.456   4.599  0.0928 -0.1773  0.7645
 7503TIP3    H243925   5.807   0.594   4.660 -1.0937 -0.0601  0.2948
 7504TIP3   OH243926   4.664   1.961  13.230  0.9512 -0.3988  0.0636
 7504TIP3    H143927   4.706   2.008  13.158  0.7805 -0.6281 -0.1906
 7504TIP3    H243928   4.633   2.029  13.289  2.7531 -0.2429  0.8765
 7505TIP3   OH243929   0.189   4.899   0.724  0.3380 -0.1397  0.5964
 7505TIP3    H143930   0.263   4.853   0.764  1.9038  3.2238  1.9843
 7505TIP3    H243931   0.229   4.962   0.664 -1.5340  0.5264 -0.0401
 7506TIP3   OH243932   0.938   1.777   5.289 -0.3479 -0.0825  0.3136
 7506TIP3    H143933   1.025   1.769   5.250  0.3589  1.2805  1.5179
 7506TIP3    H243934   0.882   1.806   5.217  0.1860 -0.9625 -0.4723
 7507TIP3   OH243935   5.676   2.365  15.772 -0.0269 -0.4779  0.2728
 7507TIP3    H143936   5.643   2.365  15.682 -0.1071  1.0270  0.2846
 7507TIP3    H243937   5.717   2.279  15.782  1.6575 -0.0216 -1.8231
 7508TIP3   OH243938   5.678   3.344   6.659 -0.3443 -0.2089  0.6580
 7508TIP3    H143939   5.764   3.331   6.699  0.0723  0.0246 -0.1598
 7508TIP3    H243940   5.620   3.286   6.709  0.8569 -2.8122 -0.7582
 7509TIP3   OH243941   1.144   5.472   5.450 -0.3053  0.1790  0.3377
 7509TIP3    H143942   1.195   5.425   5.384 -0.8103 -0.6511  0.5183
 7509TIP3    H243943   1.144   5.414   5.526 -1.2142  0.3177  0.4576
 7510TIP3   OH243944   3.016   4.585   3.754  0.0558  0.3102  0.6868
 7510TIP3    H143945   2.983   4.638   3.826 -1.6337  0.5701 -0.2005
 7510TIP3    H243946   2.938   4.566   3.701  0.9806 -1.1524 -0.2470
 7511TIP3   OH243947   1.199   4.209  14.889 -0.2573 -0.4353 -0.0277
 7511TIP3    H143948   1.190   4.294  14.845 -2.1542 -1.2661 -1.3859
 7511TIP3    H243949   1.161   4.224  14.976 -1.5268 -0.1165 -0.6112
 7512TIP3   OH243950   3.830   5.958  11.698  0.3103 -0.2269 -0.6848
 7512TIP3    H143951   3.886   6.034  11.680 -1.0151  1.0253  0.2955
 7512TIP3    H243952   3.802   5.970  11.789 -3.1390  0.3021 -1.6924
 7513TIP3   OH243953   0.133   4.380  12.504  0.5401  0.3823 -0.0743
 7513TIP3    H143954   0.039   4.399  12.511  0.7836  1.3965  0.5600
 7513TIP3    H243955   0.175   4.449  12.555  1.6067 -0.3692  0.0804
 7514TIP3   OH243956   3.067   5.445   4.884 -0.4609  0.3840 -0.5286
 7514TIP3    H143957   3.151   5.437   4.840 -1.6002  0.6624 -2.9436
 7514TIP3    H243958   3.028   5.524   4.847 -1.5718  0.5547  0.9245
 7515TIP3   OH243959   1.412   1.393   4.455 -0.0655  0.0872  0.1176
 7515TIP3    H143960   1.330   1.419   4.496 -0.3366 -0.4285 -0.0980
 7515TIP3    H243961   1.388   1.323   4.395  0.9674 -2.3219  2.3298
 7516TIP3   OH243962   6.222   3.196   1.715 -0.2285 -0.1632 -0.2683
 7516TIP3    H143963   6.147   3.245   1.748 -0.2426  0.2912 -0.9527
 7516TIP3    H243964   6.255   3.148   1.791 -0.8644  0.0749  0.1655
 7517TIP3   OH243965   0.814   1.759   4.087  0.2674  1.2792 -0.4628
 7517TIP3    H143966   0.727   1.720   4.094  0.9134 -0.0573  0.8385
 7517TIP3    H243967   0.840   1.745   3.996  1.3677 -3.6544  0.3377
 7518TIP3   OH243968   1.896   4.520   6.895  0.4655 -0.6317 -0.5042
 7518TIP3    H143969   1.850   4.600   6.870 -0.4790 -1.7906 -2.8111
 7518TIP3    H243970   1.967   4.513   6.830  0.6347 -1.5803 -0.2327
 7519TIP3   OH243971   1.254   4.960  17.114  0.3768 -0.4643  0.5898
 7519TIP3    H143972   1.320   4.892  17.099 -0.5496 -1.2871  0.1275
 7519TIP3    H243973   1.171   4.912  17.121 -0.6409  0.7270 -2.0068
 7520TIP3   OH243974   1.280   2.885   1.945  0.1162 -0.4454 -0.0001
 7520TIP3    H143975   1.231   2.896   1.863  2.3396 -0.7358 -1.4318
 7520TIP3    H243976   1.264   2.966   1.993 -0.6504  0.0318 -1.0241
 7521TIP3   OH243977   4.616   2.758   6.345  0.2464 -0.1119 -0.1467
 7521TIP3    H143978   4.660   2.674   6.359 -1.1743 -0.6006  1.6537
 7521TIP3    H243979   4.533   2.751   6.392 -0.6801  1.6920 -1.3767
 7522TIP3   OH243980   2.510   2.457  11.114 -0.0463  0.5005  0.6335
 7522TIP3    H143981   2.589   2.498  11.148  0.3756  0.9702 -0.8529
 7522TIP3    H243982   2.524   2.363  11.127  1.4036  0.4649 -0.8633
 7523TIP3   OH243983   4.453   6.765  17.192  0.5240  0.0883 -0.0313
 7523TIP3    H143984   4.408   6.845  17.164 -1.4304 -2.0157 -3.7573
 7523TIP3    H243985   4.415   6.745  17.277 -1.2826  1.5280 -0.4204
 7524TIP3   OH243986   6.415   6.365   4.683  0.2767  0.1545  0.1188
 7524TIP3    H143987   6.355   6.440   4.675  0.5796  0.2037 -2.3087
 7524TIP3    H243988   6.358   6.290   4.699 -0.5952  0.1371 -2.5331
 7525TIP3   OH243989   0.181   1.908   3.148 -0.6801  0.1613 -0.4874
 7525TIP3    H143990   0.243   1.855   3.199 -0.3454  0.6573 -0.3687
 7525TIP3    H243991   0.198   1.997   3.176 -1.8708  0.2546 -0.0181
 7526TIP3   OH243992   4.807   6.350  12.921  0.2059 -0.4691  0.5562
 7526TIP3    H143993   4.858   6.431  12.909  0.9993 -1.1234 -0.6858
 7526TIP3    H243994   4.824   6.299  12.841  0.1020 -2.0673  1.5182
 7527TIP3   OH243995   2.235   2.147   6.451 -0.5396  0.7289 -0.2679
 7527TIP3    H143996   2.224   2.105   6.536 -3.2703  0.5411 -0.6031
 7527TIP3    H243997   2.326   2.132   6.428  0.1362  0.3042  2.3470
 7528TIP3   OH243998   1.880   0.947  14.670  0.0429  0.3106  0.1975
 7528TIP3    H143999   1.925   0.988  14.744 -2.4021  0.3174  1.8027
 7528TIP3    H244000   1.805   1.003  14.654 -1.0987 -1.2916 -0.3088
 7529TIP3   OH244001   2.619   5.222  15.518  0.2462  0.1279  0.4125
 7529TIP3    H144002   2.599   5.161  15.588  1.9553  1.5996  2.3069
 7529TIP3    H244003   2.545   5.283  15.518  0.0910 -0.0586  0.7366
 7530TIP3   OH244004   1.571   5.149  15.753 -0.3727  0.2966 -0.2171
 7530TIP3    H144005   1.514   5.185  15.821 -1.2638  1.1183 -1.3581
 7530TIP3    H244006   1.567   5.054  15.767  0.2001  0.4727  1.4214
 7531TIP3   OH244007   6.231   2.733   4.988  0.2932  0.8271  0.4452
 7531TIP3    H144008   6.309   2.735   4.933 -0.0118  1.1630  0.0173
 7531TIP3    H244009   6.231   2.645   5.026 -0.7435 -0.3194 -1.9739
 7532TIP3   OH244010   2.709   0.675   4.449 -0.0980 -0.2060  0.0864
 7532TIP3    H144011   2.649   0.747   4.467 -1.0022 -1.3712  2.2096
 7532TIP3    H244012   2.783   0.715   4.405  0.5854  2.5214  3.3490
 7533TIP3   OH244013   6.375   4.259   3.256  0.2915  0.2655  0.1481
 7533TIP3    H144014   6.346   4.297   3.338 -0.7824 -0.2130  0.0066
 7533TIP3    H244015   6.406   4.171   3.279  2.3318  0.9804  0.4005
 7534TIP3   OH244016   2.851   2.199   4.486 -0.1545 -0.1750  0.4262
 7534TIP3    H144017   2.823   2.254   4.413  1.1515 -0.0035  0.0479
 7534TIP3    H244018   2.904   2.130   4.446  0.9755  0.1908  1.2518
 7535TIP3   OH244019   2.123   6.083  11.175  0.0726  1.2320  0.0901
 7535TIP3    H144020   2.159   6.058  11.089 -1.1777  1.8871 -0.6374
 7535TIP3    H244021   2.177   6.157  11.202  0.5205  0.9790 -0.0799
 7536TIP3   OH244022   5.925   1.107   4.917 -0.5724  0.6101 -0.4284
 7536TIP3    H144023   5.843   1.064   4.942 -0.5994  1.2153  0.5947
 7536TIP3    H244024   5.907   1.142   4.829 -0.3476 -1.8956 -1.5580
 7537TIP3   OH244025   3.380   2.182   1.181  0.4329 -0.3501 -0.0487
 7537TIP3    H144026   3.350   2.141   1.262  0.0534  0.4684  0.2409
 7537TIP3    H244027   3.460   2.135   1.158 -0.9533 -2.4804 -0.7691
 7538TIP3   OH244028   2.619   4.813  13.658 -0.4681  0.2669 -0.1152
 7538TIP3    H144029   2.664   4.735  13.626 -1.4502  0.1687 -1.3377
 7538TIP3    H244030   2.599   4.795  13.750 -1.9691 -1.5609 -0.7427
 7539TIP3   OH244031   3.823   0.972   0.588  0.2657  0.0694 -0.1121
 7539TIP3    H144032   3.762   0.902   0.564  0.1210  0.3621 -0.6112
 7539TIP3    H244033   3.782   1.014   0.664 -0.5392  0.7354 -0.8921
 7540TIP3   OH244034   5.264   2.133  11.704  0.4870 -0.2587 -0.4045
 7540TIP3    H144035   5.306   2.183  11.774 -0.4073  1.0495 -0.7760
 7540TIP3    H244036   5.321   2.057  11.693  1.7344  0.5108  0.3755
 7541TIP3   OH244037   6.224   5.808   2.202 -0.0634 -0.4659  0.6895
 7541TIP3    H144038   6.298   5.799   2.142 -0.2324 -1.8103  0.6628
 7541TIP3    H244039   6.214   5.903   2.213  1.4360 -0.2538  0.4263
 7542TIP3   OH244040   1.537   4.695  16.313 -0.3601 -0.8220 -0.0666
 7542TIP3    H144041   1.615   4.646  16.339  0.6692  0.4731 -0.6051
 7542TIP3    H244042   1.474   4.627  16.287  0.5132 -1.8960  0.5246
 7543TIP3   OH244043   3.777   6.602   0.171 -0.0978 -0.6693  0.5121
 7543TIP3    H144044   3.775   6.696   0.186 -1.0542 -0.3380 -1.4356
 7543TIP3    H244045   3.736   6.565   0.249 -0.2875  0.5718  1.0219
 7544TIP3   OH244046   3.070   2.992   3.267  0.1323 -0.3173  0.2808
 7544TIP3    H144047   3.107   3.074   3.234 -0.5638 -0.1985 -0.2301
 7544TIP3    H244048   3.140   2.954   3.321  1.4951 -0.7271 -1.6591
 7545TIP3   OH244049   5.760   5.338   0.767  0.2600  0.0908 -0.4615
 7545TIP3    H144050   5.839   5.288   0.786  2.0055  2.4537 -1.1024
 7545TIP3    H244051   5.727   5.365   0.853  1.9444  1.6371 -0.2430
 7546TIP3   OH244052   1.015   0.168  15.500 -0.1953 -0.0384 -0.0891
 7546TIP3    H144053   1.057   0.238  15.550 -0.2525  0.6847 -1.0200
 7546TIP3    H244054   1.049   0.179  15.411 -1.6423 -0.0102 -0.6614
 7547TIP3   OH244055   0.933   4.593   1.135  0.8075  0.4565 -0.2469
 7547TIP3    H144056   1.006   4.558   1.186 -0.6113 -0.6515  1.1181
 7547TIP3    H244057   0.968   4.671   1.093  2.8190 -0.1482  0.2155
 7548TIP3   OH244058   3.783   3.864   3.201  0.3688 -0.0706  0.1737
 7548TIP3    H144059   3.741   3.908   3.127  0.0845 -1.6762 -0.6445
 7548TIP3    H244060   3.737   3.898   3.278  1.2497  2.3043 -0.2382
 7549TIP3   OH244061   3.945   0.179  13.073 -1.0348  0.3030  0.3017
 7549TIP3    H144062   3.897   0.102  13.041  2.5235 -2.3122  0.5900
 7549TIP3    H244063   4.007   0.198  13.003  1.5744 -0.4606  2.2719
 7550TIP3   OH244064   4.521   2.401   4.739 -0.2737 -0.2501 -0.1710
 7550TIP3    H144065   4.562   2.397   4.652  1.6513  0.0201  0.6748
 7550TIP3    H244066   4.544   2.317   4.780 -1.1542 -0.3685  0.0988
 7551TIP3   OH244067   4.777   0.213  17.368  0.3402  0.0608  0.0883
 7551TIP3    H144068   4.767   0.119  17.384  1.1610 -0.3231 -1.3811
 7551TIP3    H244069   4.690   0.250  17.382  0.1694 -0.7959  1.3926
 7552TIP3   OH244070   6.630   5.846  13.648 -0.6457 -0.4199  0.3340
 7552TIP3    H144071   6.557   5.807  13.695 -0.3553  0.3428  1.4434
 7552TIP3    H244072   6.590   5.914  13.594 -0.5571  1.8776  2.9524
 7553TIP3   OH244073   2.952   3.966   2.599 -0.0095  0.1054 -0.0853
 7553TIP3    H144074   2.934   3.972   2.692  0.1911  0.0152 -0.0385
 7553TIP3    H244075   2.926   3.877   2.574  0.1894  0.0389 -0.0576
 7554TIP3   OH244076   2.305   2.098   1.663 -0.5121 -0.1871  0.1779
 7554TIP3    H144077   2.242   2.156   1.706 -0.8351 -0.0031 -0.5330
 7554TIP3    H244078   2.360   2.156   1.611 -0.1711 -0.4151  0.2831
 7555TIP3   OH244079   1.272   5.301   5.273  0.1385 -0.2353 -0.3857
 7555TIP3    H144080   1.323   5.292   5.354 -1.9844  0.0895  1.0510
 7555TIP3    H244081   1.305   5.230   5.217  1.8499 -0.2961  0.6162
 7556TIP3   OH244082   4.615   1.625  12.546 -0.5351  0.5152  0.2844
 7556TIP3    H144083   4.552   1.612  12.618 -0.6995  0.1027  0.0702
 7556TIP3    H244084   4.617   1.719  12.533 -1.6797  0.4864 -0.2053
 7557TIP3   OH244085   1.640   4.392   3.862 -0.1777  0.2199  0.6396
 7557TIP3    H144086   1.692   4.383   3.781 -0.4466 -0.6687  0.5553
 7557TIP3    H244087   1.605   4.481   3.858 -0.0016  0.2651 -0.1143
 7558TIP3   OH244088   4.414   2.842  12.762  0.2458 -0.3269 -0.0931
 7558TIP3    H144089   4.472   2.807  12.830 -1.1842  0.3778  1.5612
 7558TIP3    H244090   4.473   2.872  12.693  1.6426 -4.3847 -0.9304
 7559TIP3   OH244091   4.946   5.608   0.102  0.0923  0.4670  0.0889
 7559TIP3    H144092   4.987   5.627   0.187 -0.4118  1.8296  0.0514
 7559TIP3    H244093   4.916   5.693   0.071 -0.8973 -0.2152 -0.8595
 7560TIP3   OH244094   4.025   2.524  14.111 -0.4311 -0.4723  0.5001
 7560TIP3    H144095   3.966   2.554  14.042  0.9413  0.7996 -0.1863
 7560TIP3    H244096   4.065   2.444  14.077  0.5681  0.3855 -0.4133
 7561TIP3   OH244097   5.791   1.386   5.350  0.1112  0.2567 -0.2190
 7561TIP3    H144098   5.768   1.293   5.346  0.4778  0.1494  0.0473
 7561TIP3    H244099   5.789   1.415   5.258  0.3508 -0.1085 -0.3440
 7562TIP3   OH244100   2.210   5.058  14.093  0.7890 -0.2637 -0.0450
 7562TIP3    H144101   2.148   5.008  14.039  1.2409 -1.4455  0.5136
 7562TIP3    H244102   2.229   5.136  14.040  0.4546 -0.9076 -1.1614
 7563TIP3   OH244103   4.501   5.732   1.541  0.0927  0.5737 -0.5386
 7563TIP3    H144104   4.419   5.746   1.495 -0.8831 -2.9432 -0.1520
 7563TIP3    H244105   4.527   5.643   1.518  2.0346  0.3772  1.9461
 7564TIP3   OH244106   4.593   0.433   5.785 -0.1480 -0.3996 -0.4008
 7564TIP3    H144107   4.649   0.399   5.855  0.2414  1.2575  0.1454
 7564TIP3    H244108   4.647   0.498   5.741 -2.3452  3.3323  1.8799
 7565TIP3   OH244109   3.928   0.394  17.206 -0.5584 -0.2025  0.2884
 7565TIP3    H144110   3.947   0.486  17.187  1.1306 -0.4580  0.5793
 7565TIP3    H244111   3.936   0.387  17.301  3.1843 -1.3493  0.0470
 7566TIP3   OH244112   4.430   0.967  14.296  0.1669  0.5134  0.0384
 7566TIP3    H144113   4.422   0.976  14.201 -0.3042  0.5103  0.0719
 7566TIP3    H244114   4.346   0.930  14.323  1.2376 -1.9965  0.1482
 7567TIP3   OH244115   3.746   4.111   2.591  0.2364  0.3549 -0.1514
 7567TIP3    H144116   3.739   4.205   2.578 -1.2387  0.2845 -0.0321
 7567TIP3    H244117   3.826   4.086   2.544 -0.3360  1.3837 -1.7483
 7568TIP3   OH244118   3.861   1.243   1.647  0.2026  0.1186  0.1502
 7568TIP3    H144119   3.908   1.257   1.565  0.4219 -0.1717  0.2260
 7568TIP3    H244120   3.804   1.320   1.655 -0.1811 -0.0821 -0.5195
 7569TIP3   OH244121   4.407   5.695   4.001  0.0040 -0.0872 -0.3093
 7569TIP3    H144122   4.364   5.781   4.000  0.9802  0.4158 -1.5313
 7569TIP3    H244123   4.493   5.712   4.038 -0.3783 -0.8772  1.0134
 7570TIP3   OH244124   0.797   6.629   6.290 -0.1949 -0.0508  0.2268
 7570TIP3    H144125   0.815   6.535   6.292 -0.4942 -0.0963  1.7658
 7570TIP3    H244126   0.704   6.635   6.271 -0.0051 -0.0278 -0.7319
 7571TIP3   OH244127   1.629   0.668   5.571  0.2957  0.0287  0.0415
 7571TIP3    H144128   1.657   0.706   5.654  1.0013 -0.1142 -0.1250
 7571TIP3    H244129   1.628   0.741   5.510 -0.0252  0.0961  0.1268
 7572TIP3   OH244130   0.250   1.286   5.864  0.0799  0.1261  0.1784
 7572TIP3    H144131   0.317   1.336   5.912 -0.3443 -0.0015  0.9146
 7572TIP3    H244132   0.185   1.351   5.840 -0.0901  0.0632  0.4614
 7573TIP3   OH244133   5.262   5.916  16.226 -0.0812 -0.0319 -0.5821
 7573TIP3    H144134   5.274   5.868  16.308 -0.4508  1.4264  0.3842
 7573TIP3    H244135   5.172   5.896  16.199  0.0170 -0.4616 -0.5849
 7574TIP3   OH244136   2.656   2.778   1.042 -0.2920  0.0864 -0.0213
 7574TIP3    H144137   2.589   2.830   0.999 -0.1714 -0.8291 -1.3711
 7574TIP3    H244138   2.715   2.751   0.972  0.4247 -0.7020  0.8527
 7575TIP3   OH244139   5.856   1.859  15.656  0.3387  0.0788  0.1476
 7575TIP3    H144140   5.824   1.893  15.739  1.7769 -0.3875  0.9410
 7575TIP3    H244141   5.893   1.935  15.612  1.6681 -0.0245  1.0006
 7576TIP3   OH244142   5.236   3.431  15.191 -0.0907  0.5191 -0.0666
 7576TIP3    H144143   5.276   3.373  15.126 -1.6737  0.9778 -1.5332
 7576TIP3    H244144   5.302   3.497  15.209  0.9481 -0.5085 -0.0045
 7577TIP3   OH244145   6.661   4.295  11.777 -0.4796  0.0127  0.8358
 7577TIP3    H144146   6.591   4.338  11.727  0.7597  0.9986 -0.1132
 7577TIP3    H244147   6.722   4.365  11.799  0.5675 -0.9306  1.0220
 7578TIP3   OH244148   2.693   2.541   3.631 -0.2255  0.2547 -0.5357
 7578TIP3    H144149   2.691   2.556   3.726 -0.4247 -0.3122 -0.4480
 7578TIP3    H244150   2.774   2.493   3.616 -0.8541 -0.8816 -0.4554
 7579TIP3   OH244151   6.278   3.692   5.461 -0.2915 -0.2856  0.2147
 7579TIP3    H144152   6.253   3.773   5.506 -2.6220 -0.4156 -0.7404
 7579TIP3    H244153   6.196   3.655   5.430  1.0465 -0.9169 -2.9262
 7580TIP3   OH244154   0.532   2.815  16.344 -0.2452  0.7376  0.1975
 7580TIP3    H144155   0.512   2.767  16.424 -0.3302  0.9189  0.2867
 7580TIP3    H244156   0.616   2.780  16.315 -0.4022  0.3977  0.1544
 7581TIP3   OH244157   4.572   2.039  12.499  0.0588  0.4447 -0.4639
 7581TIP3    H144158   4.642   2.058  12.561 -0.3583 -1.2418  0.5866
 7581TIP3    H244159   4.603   1.962  12.451 -0.3253  0.7503 -1.2068
 7582TIP3   OH244160   2.089   3.142   6.134 -0.1510  0.3722 -0.3277
 7582TIP3    H144161   2.078   3.203   6.207  0.5326  1.4556 -1.0983
 7582TIP3    H244162   2.003   3.101   6.124 -0.5167  0.9270  0.4575
 7583TIP3   OH244163   2.647   3.922   1.536  0.2305 -0.3393  0.2412
 7583TIP3    H144164   2.678   3.877   1.615 -1.8344 -0.6802  0.9164
 7583TIP3    H244165   2.562   3.883   1.518 -0.5782  1.6732 -0.5254
 7584TIP3   OH244166   2.569   2.298  15.927  0.2906  0.3446 -0.0727
 7584TIP3    H144167   2.537   2.244  16.000 -0.9592 -0.3425 -1.0902
 7584TIP3    H244168   2.489   2.331  15.885  1.0088  1.9208 -0.2934
 7585TIP3   OH244169   1.666   1.912  15.623 -0.6218  0.3039 -0.0799
 7585TIP3    H144170   1.631   1.870  15.544 -2.3673 -0.4595  1.0509
 7585TIP3    H244171   1.637   2.003  15.615 -2.7261 -0.2400  0.6763
 7586TIP3   OH244172   0.995   1.624   0.525 -0.6690 -0.1268 -0.7282
 7586TIP3    H144173   0.950   1.599   0.444 -0.2283 -0.4043 -0.8887
 7586TIP3    H244174   0.984   1.549   0.582  1.3033 -1.0447 -1.4737
 7587TIP3   OH244175   6.113   1.005   2.518 -0.4407 -0.1842  0.1025
 7587TIP3    H144176   6.072   1.021   2.433 -0.3394  0.1943  0.1263
 7587TIP3    H244177   6.043   0.966   2.571  0.0005 -2.2330 -0.7251
 7588TIP3   OH244178   3.944   6.539   2.122 -0.3252  0.6777 -0.0801
 7588TIP3    H144179   3.928   6.465   2.180  0.7786  0.8463  0.4663
 7588TIP3    H244180   3.857   6.563   2.089 -0.9004  0.2008  1.0315
 7589TIP3   OH244181   5.015   2.128  13.550  0.2823  0.2856  0.2442
 7589TIP3    H144182   4.983   2.191  13.614 -2.3995 -0.1480 -0.5711
 7589TIP3    H244183   5.063   2.182  13.486 -1.1643  1.4052  0.0497
 7590TIP3   OH244184   5.826   5.616   1.901 -0.0688  0.4556  0.0686
 7590TIP3    H144185   5.901   5.574   1.858 -1.0861 -0.7683 -0.5750
 7590TIP3    H244186   5.859   5.702   1.928  2.0185 -0.6361  1.2401
 7591TIP3   OH244187   4.519   5.907   1.756  0.5324 -0.0523 -0.1302
 7591TIP3    H144188   4.484   5.896   1.668 -0.3250 -3.2956  0.5118
 7591TIP3    H244189   4.444   5.896   1.814  1.3826  0.2545  1.0707
 7592TIP3   OH244190   4.202   4.603  12.282  0.0017  0.0029 -0.1685
 7592TIP3    H144191   4.292   4.590  12.254 -0.4795 -0.4641 -1.5962
 7592TIP3    H244192   4.167   4.514  12.291 -0.6796  0.1844 -0.9164
 7593TIP3   OH244193   5.739   6.105  16.311 -1.0015  0.2149 -0.2547
 7593TIP3    H144194   5.733   6.162  16.388  1.1182  0.5191 -0.2636
 7593TIP3    H244195   5.833   6.098  16.294 -1.2649 -2.2647 -1.0336
 7594TIP3   OH244196   2.664   5.108  15.269  0.6233 -0.2651  0.2948
 7594TIP3    H144197   2.632   5.163  15.198 -0.2322 -1.1181 -0.0062
 7594TIP3    H244198   2.646   5.158  15.348 -0.8871 -0.4329  0.0867
 7595TIP3   OH244199   3.241   1.190   4.787 -0.3852  0.6386  0.2057
 7595TIP3    H144200   3.154   1.157   4.765 -0.9307  0.7966  1.9643
 7595TIP3    H244201   3.296   1.112   4.792 -0.4626  0.5186 -0.7013
 7596TIP3   OH244202   1.220   3.920   4.279 -0.3021  0.0118  0.0743
 7596TIP3    H144203   1.310   3.951   4.290 -0.1477 -0.5867  0.6139
 7596TIP3    H244204   1.186   3.968   4.204  0.3750  0.4545  0.0464
 7597TIP3   OH244205   4.068   5.994   0.450  0.1337  0.1061 -0.2332
 7597TIP3    H144206   4.026   6.057   0.392  1.5520  0.8397 -0.4868
 7597TIP3    H244207   4.154   6.030   0.468  0.6736 -1.3546  0.2936
 7598TIP3   OH244208   2.269   3.223   2.622 -0.2393 -0.4797  0.4153
 7598TIP3    H144209   2.345   3.163   2.628  0.9165  0.9748  0.9100
 7598TIP3    H244210   2.283   3.270   2.540  0.0028  0.5557  1.0342
 7599TIP3   OH244211   0.652   6.235   1.019 -0.3246 -0.5000 -0.3954
 7599TIP3    H144212   0.632   6.328   1.028 -0.3351 -0.5062 -0.3557
 7599TIP3    H244213   0.633   6.198   1.105 -2.0073 -0.8580 -0.8836
 7600TIP3   OH244214   2.446   3.044   4.687 -0.1230 -0.0506 -0.0364
 7600TIP3    H144215   2.410   3.072   4.602 -2.6050  0.8771  1.2116
 7600TIP3    H244216   2.520   3.102   4.703  0.4116 -0.2682 -1.5538
 7601TIP3   OH244217   0.367   6.750  12.859  0.5278 -0.0476  0.0970
 7601TIP3    H144218   0.412   6.711  12.784  1.1761  0.4624  0.2134
 7601TIP3    H244219   0.309   6.815  12.820  2.1082  1.4479  0.1003
 7602TIP3   OH244220   2.303   3.314  16.227  0.1274  0.2965 -0.2686
 7602TIP3    H144221   2.242   3.350  16.292  0.3029 -0.4303  0.3194
 7602TIP3    H244222   2.371   3.380  16.219  0.0340  0.4589  0.2005
 7603TIP3   OH244223   1.082   0.632  13.682  0.6465  0.0031 -0.5398
 7603TIP3    H144224   1.091   0.618  13.588  2.5883 -3.2103 -0.0269
 7603TIP3    H244225   1.170   0.656  13.712 -0.0725  1.5846  0.4318
 7604TIP3   OH244226   0.377   4.428   6.284  0.3539  0.5148  0.8666
 7604TIP3    H144227   0.469   4.448   6.267  0.7916 -1.1001  1.2597
 7604TIP3    H244228   0.350   4.494   6.348  1.4663  0.5103  1.3600
 7605TIP3   OH244229   0.824   4.586  17.238  0.3973 -0.0577 -0.2224
 7605TIP3    H144230   0.801   4.634  17.318  0.6968 -1.4331  0.7189
 7605TIP3    H244231   0.815   4.494  17.262  3.7702 -0.6356 -0.7162
 7606TIP3   OH244232   1.093   3.088  14.434  0.2608 -0.4520  0.0811
 7606TIP3    H144233   1.177   3.085  14.389 -0.7451 -1.8703 -1.8728
 7606TIP3    H244234   1.101   3.021  14.502  1.1809  0.4230  0.8529
 7607TIP3   OH244235   3.800   3.323  12.027 -0.1838  0.5916  0.3441
 7607TIP3    H144236   3.713   3.316  11.989 -0.4461  0.1865  0.9951
 7607TIP3    H244237   3.821   3.233  12.054  2.0693 -0.1632 -3.2572
 7608TIP3   OH244238   3.540   2.423   5.108  0.1806 -0.0650  0.5028
 7608TIP3    H144239   3.522   2.401   5.199 -1.0783 -2.5753 -0.2510
 7608TIP3    H244240   3.460   2.399   5.061  0.8586  0.9935 -1.3061
 7609TIP3   OH244241   3.151   6.410  15.417  0.2575 -0.2583  0.5531
 7609TIP3    H144242   3.233   6.370  15.447  0.3119 -1.2203 -0.7843
 7609TIP3    H244243   3.100   6.422  15.497  1.1133 -1.0166  1.2417
 7610TIP3   OH244244   0.783   4.673  16.534 -0.7947  0.4453  0.1618
 7610TIP3    H144245   0.695   4.664  16.497 -1.1553  0.9362  0.8791
 7610TIP3    H244246   0.792   4.597  16.592 -0.8474  0.5339  0.2865
 7611TIP3   OH244247   0.262   3.601   3.520 -0.2828  0.2240 -0.0595
 7611TIP3    H144248   0.289   3.616   3.610  1.5759  0.0163 -0.5202
 7611TIP3    H244249   0.344   3.583   3.474 -1.2352 -0.1294 -1.6987
 7612TIP3   OH244250   5.386   3.666  14.320  0.5506  0.3708 -0.1486
 7612TIP3    H144251   5.439   3.742  14.343  0.8560  0.5208 -1.3122
 7612TIP3    H244252   5.428   3.593  14.367  1.2596  0.6380 -0.3501
 7613TIP3   OH244253   5.168   3.509  14.572  0.0283 -0.6810 -0.0816
 7613TIP3    H144254   5.090   3.550  14.609 -0.2139 -1.8527  0.7852
 7613TIP3    H244255   5.134   3.442  14.513  0.2841 -2.4530  1.6771
 7614TIP3   OH244256   1.794   6.159   5.724  0.2614  0.3620 -0.1479
 7614TIP3    H144257   1.747   6.082   5.693 -1.5242  1.5479 -0.5570
 7614TIP3    H244258   1.851   6.184   5.652  0.9368 -0.5950  0.0273
 7615TIP3   OH244259   5.579   2.254   0.091 -0.5046 -0.3293 -0.0351
 7615TIP3    H144260   5.671   2.259   0.116 -0.3322 -2.1173 -0.1955
 7615TIP3    H244261   5.578   2.281  -0.001 -0.4041  1.2341  0.3872
 7616TIP3   OH244262   0.131   3.992  16.283 -0.3806 -0.1654 -0.1552
 7616TIP3    H144263   0.093   3.964  16.200 -1.0816 -0.7955  0.3633
 7616TIP3    H244264   0.068   4.056  16.318  0.6064  1.2017 -0.7497
 7617TIP3   OH244265   2.017   4.619  15.752 -0.9811  0.7352 -0.3444
 7617TIP3    H144266   1.952   4.685  15.779 -1.4402 -0.4029  1.4742
 7617TIP3    H244267   2.058   4.591  15.834  0.8206  0.3847 -1.3222
 7618TIP3   OH244268   0.407   6.410   6.030  0.0571  0.4608  0.3296
 7618TIP3    H144269   0.463   6.474   6.074  2.1516  0.1612 -1.7019
 7618TIP3    H244270   0.372   6.456   5.955  0.7202 -0.4039 -0.5501
 7619TIP3   OH244271   2.606   0.525   0.604  0.3701  0.2136 -0.1262
 7619TIP3    H144272   2.514   0.505   0.586 -0.0555  1.5915  0.4448
 7619TIP3    H244273   2.641   0.553   0.519  0.2635 -0.2533 -0.3319
 7620TIP3   OH244274   4.375   4.265  16.150  0.3274 -0.2373 -0.1827
 7620TIP3    H144275   4.286   4.255  16.117 -0.5586  2.6255  0.9693
 7620TIP3    H244276   4.411   4.339  16.100  1.8604 -0.9714 -0.2232
 7621TIP3   OH244277   3.244   5.954  14.301  0.6521 -0.0205 -0.0734
 7621TIP3    H144278   3.282   5.960  14.214  0.4048 -0.2809 -0.2019
 7621TIP3    H244279   3.268   6.036  14.344 -1.0742  1.0927 -1.1279
 7622TIP3   OH244280   4.487   5.075   4.176  0.0750  0.2037 -0.1985
 7622TIP3    H144281   4.471   5.022   4.098 -0.1947  0.0299 -0.0279
 7622TIP3    H244282   4.527   5.156   4.143 -0.7177  0.4465 -0.5903
 7623TIP3   OH244283   4.953   2.632  11.887 -0.0524  0.6393 -0.5287
 7623TIP3    H144284   5.011   2.708  11.892  0.8756  0.0423 -1.7057
 7623TIP3    H244285   5.006   2.564  11.845 -0.6513 -0.8743  1.0636
 7624TIP3   OH244286   2.736   1.726   5.557  0.2698 -0.0411  0.0357
 7624TIP3    H144287   2.748   1.806   5.505 -0.1908 -0.9501 -1.5361
 7624TIP3    H244288   2.784   1.743   5.638  0.9639  1.4684 -0.6424
 7625TIP3   OH244289   0.421   2.930  14.902 -0.6971  0.0929 -0.0397
 7625TIP3    H144290   0.517   2.936  14.909 -0.7930  1.2846  0.4629
 7625TIP3    H244291   0.400   2.969  14.817 -0.6095 -2.0676 -1.1300
 7626TIP3   OH244292   6.491   4.774   4.685  0.2923 -0.3001  0.7660
 7626TIP3    H144293   6.577   4.807   4.657  0.1196 -0.0893  0.4785
 7626TIP3    H244294   6.467   4.829   4.759 -0.3963  0.8335 -0.2570
 7627TIP3   OH244295   5.791   6.455  14.530  0.3474 -0.2979 -0.2562
 7627TIP3    H144296   5.775   6.445  14.436 -0.6796 -0.2417 -0.0889
 7627TIP3    H244297   5.708   6.435  14.572  1.0030 -1.1301  0.7078
 7628TIP3   OH244298   0.073   1.638  14.434 -0.4060  0.1726 -0.2481
 7628TIP3    H144299   0.023   1.562  14.465 -0.5029 -0.0883 -1.0164
 7628TIP3    H244300   0.026   1.667  14.356 -0.0194  0.6491 -0.3065
 7629TIP3   OH244301   0.834   6.076   2.520  0.5400  0.4326 -0.0604
 7629TIP3    H144302   0.840   6.089   2.614  0.2200 -1.5053  0.2658
 7629TIP3    H244303   0.925   6.065   2.491  0.5531 -3.3227  0.8089
 7630TIP3   OH244304   2.190   5.380  15.163  0.7420 -0.2720 -0.1565
 7630TIP3    H144305   2.103   5.355  15.133  0.8701 -1.5421  0.4862
 7630TIP3    H244306   2.202   5.333  15.245  2.0888 -0.2426 -0.3096
 7631TIP3   OH244307   6.324   0.009   0.210  0.2971 -0.5398 -0.3687
 7631TIP3    H144308   6.350   0.025   0.301  1.5826 -1.1713 -0.6125
 7631TIP3    H244309   6.239  -0.034   0.217 -1.4489  2.6541  0.4181
 7632TIP3   OH244310   5.199   4.355   1.297  0.6069  0.2665  0.1052
 7632TIP3    H144311   5.145   4.418   1.346 -2.1325 -2.0516  0.3003
 7632TIP3    H244312   5.227   4.292   1.363 -0.0006 -0.8511 -0.6831
 7633TIP3   OH244313   4.666   5.771  15.191 -0.0170  0.1248  0.6159
 7633TIP3    H144314   4.697   5.713  15.121 -0.0361  2.6873 -1.6971
 7633TIP3    H244315   4.667   5.716  15.269 -1.6556 -3.4790 -1.6200
 7634TIP3   OH244316   2.288   4.475   5.701  0.5281 -0.4151  0.5854
 7634TIP3    H144317   2.333   4.552   5.667  0.5359 -0.5903  0.1980
 7634TIP3    H244318   2.220   4.455   5.637  0.4074 -0.6213  0.7735
 7635TIP3   OH244319   3.867   5.564  16.805 -0.5024 -0.2459 -0.4915
 7635TIP3    H144320   3.954   5.569  16.847 -0.8749 -1.6295  0.5266
 7635TIP3    H244321   3.846   5.471  16.807 -1.5891 -0.0417 -1.6630
 7636TIP3   OH244322   2.992   4.854   2.406  0.3277 -0.5455  0.1305
 7636TIP3    H144323   3.054   4.833   2.476 -0.4823 -0.1379  0.9882
 7636TIP3    H244324   3.024   4.937   2.371 -0.1952  0.1098  1.1481
 7637TIP3   OH244325   3.110   1.747   3.921  0.0716 -0.1458  0.5710
 7637TIP3    H144326   3.175   1.735   3.991  0.5642  0.4090  0.2192
 7637TIP3    H244327   3.087   1.658   3.895  0.3040 -0.3568  1.0541
 7638TIP3   OH244328   6.350   5.608   6.150 -0.1448  0.2290  0.1441
 7638TIP3    H144329   6.427   5.553   6.142  2.4137  3.4996  0.1758
 7638TIP3    H244330   6.325   5.628   6.059 -0.2967  0.0263  0.1405
 7639TIP3   OH244331   1.475   2.930  14.750 -0.6128  0.0163  0.0221
 7639TIP3    H144332   1.527   2.949  14.829 -3.4601  1.4483  1.7066
 7639TIP3    H244333   1.528   2.964  14.678  1.6364 -0.3842  1.3901
 7640TIP3   OH244334   2.271   5.223   4.713  0.2992  0.5795 -0.1854
 7640TIP3    H144335   2.190   5.246   4.759  0.7909  0.2616  0.8744
 7640TIP3    H244336   2.275   5.284   4.640 -0.8873  0.6174 -0.2455
 7641TIP3   OH244337   4.057   3.912   3.370 -0.0405  0.2279 -0.2550
 7641TIP3    H144338   4.116   3.860   3.424  0.9877 -0.3921 -1.8758
 7641TIP3    H244339   3.991   3.945   3.430  0.6848 -0.9337  1.2373
 7642TIP3   OH244340   0.802   5.949   1.308 -0.1727 -0.1618  0.6282
 7642TIP3    H144341   0.746   6.026   1.316 -0.9223 -0.8547  2.4045
 7642TIP3    H244342   0.741   5.875   1.302  0.5489 -0.7217 -0.1726
 7643TIP3   OH244343   0.670   4.432  11.105 -0.8675  0.3240  0.0047
 7643TIP3    H144344   0.601   4.439  11.039 -2.4261  0.2910  1.5445
 7643TIP3    H244345   0.622   4.415  11.187  1.0799 -1.3448  0.8752
 7644TIP3   OH244346   6.534   1.994  15.770 -0.1882 -0.3083 -0.1969
 7644TIP3    H144347   6.463   1.956  15.719  0.6666  0.2596 -1.8980
 7644TIP3    H244348   6.560   1.925  15.831 -0.9659 -1.1747 -0.8219
 7645TIP3   OH244349   1.650   4.848  14.075 -0.0967 -0.3161 -0.1277
 7645TIP3    H144350   1.657   4.927  14.022 -1.2052 -0.2143 -0.1550
 7645TIP3    H244351   1.712   4.786  14.034  1.3008  0.7378  0.3239
 7646TIP3   OH244352   6.039   3.775   6.133 -0.0685 -0.2041 -1.0213
 7646TIP3    H144353   6.028   3.850   6.191 -0.2286  0.4059 -1.8199
 7646TIP3    H244354   5.953   3.732   6.132 -0.2833  0.2263 -1.3967
 7647TIP3   OH244355   0.502   0.248  15.188  0.0111 -0.0810  0.2210
 7647TIP3    H144356   0.558   0.214  15.117  0.5504  0.4302  0.3871
 7647TIP3    H244357   0.458   0.323  15.148 -0.6134 -0.5190  0.0739
 7648TIP3   OH244358   1.710   5.168  13.177  0.5427 -0.2138  0.0578
 7648TIP3    H144359   1.692   5.256  13.143 -0.0248 -0.6437 -0.7881
 7648TIP3    H244360   1.624   5.132  13.199  0.7721 -0.5675  0.3922
 7649TIP3   OH244361   3.345   4.260   5.621  0.9200  1.2819  0.8872
 7649TIP3    H144362   3.275   4.237   5.682  0.5537  0.6697  0.2442
 7649TIP3    H244363   3.421   4.211   5.653  0.5912  0.5415  0.5521
 7650TIP3   OH244364   5.356   6.269  11.822 -0.0043 -0.2344 -0.1760
 7650TIP3    H144365   5.416   6.209  11.777  0.3787  0.6444 -0.8634
 7650TIP3    H244366   5.280   6.274  11.764 -0.3736 -0.6448  0.2612
 7651TIP3   OH244367   6.754   5.337  12.751 -0.5652 -0.2038  0.3081
 7651TIP3    H144368   6.797   5.331  12.837  0.4854 -0.4341 -0.2150
 7651TIP3    H244369   6.666   5.369  12.770  0.3330  1.8346  1.2828
 7652TIP3   OH244370   2.550   3.912  12.144  0.0316  0.0040 -0.0130
 7652TIP3    H144371   2.476   3.882  12.197  0.1185 -0.5378 -0.1938
 7652TIP3    H244372   2.511   3.971  12.080 -0.2018 -0.0402  0.0876
 7653TIP3   OH244373   1.086   3.458  12.224  0.1943  0.0806  0.1088
 7653TIP3    H144374   1.034   3.397  12.277  0.6149 -3.0603 -2.7879
 7653TIP3    H244375   1.168   3.468  12.273 -0.4204 -0.5730  1.3224
 7654TIP3   OH244376   5.026   5.963  17.019 -0.0323  0.2910 -0.9948
 7654TIP3    H144377   4.932   5.966  17.037  0.1481  0.8531 -0.0420
 7654TIP3    H244378   5.037   5.886  16.964 -1.0687  0.2952 -1.2410
 7655TIP3   OH244379   1.384   3.063   0.332  0.0029 -0.5963  0.5090
 7655TIP3    H144380   1.290   3.071   0.314  0.4795  1.3495 -1.5149
 7655TIP3    H244381   1.401   3.127   0.402  0.1610  0.7785 -0.7390
 7656TIP3   OH244382   1.244   3.623   5.743 -0.7071  0.1100  0.5874
 7656TIP3    H144383   1.290   3.666   5.815 -1.1518 -1.8183  2.1363
 7656TIP3    H244384   1.180   3.688   5.713  0.9894  1.7657  0.3655
 7657TIP3   OH244385   6.253   2.277  11.096 -0.5049  0.4422 -0.1881
 7657TIP3    H144386   6.329   2.261  11.041  0.5510  1.1910  0.9856
 7657TIP3    H244387   6.178   2.274  11.037  0.4149 -0.5415 -1.3332
 7658TIP3   OH244388   5.802   4.778  14.179  0.2485  0.1066 -0.2532
 7658TIP3    H144389   5.843   4.860  14.208  0.8598 -1.1243  2.6725
 7658TIP3    H244390   5.845   4.758  14.095  1.1927  1.9691 -0.2545
 7659TIP3   OH244391   1.310   2.473   1.774 -0.3628 -0.0553 -0.3936
 7659TIP3    H144392   1.316   2.559   1.731  1.6322  0.3079  0.4869
 7659TIP3    H244393   1.275   2.415   1.706 -2.6025  1.5658 -0.7648
 7660TIP3   OH244394   1.888   4.604   1.949  0.3533  0.4474 -0.3022
 7660TIP3    H144395   1.910   4.512   1.964 -0.9778  0.1327 -0.1864
 7660TIP3    H244396   1.796   4.611   1.974  0.2267  1.6417 -1.0393
 7661TIP3   OH244397   5.531   0.462  12.862 -0.4309 -0.0468 -0.1076
 7661TIP3    H144398   5.541   0.375  12.899  0.5611 -0.1578 -0.5979
 7661TIP3    H244399   5.477   0.509  12.925  1.5158 -0.0964  1.7111
 7662TIP3   OH244400   2.957   4.340  12.256  0.0087  0.4584  0.1930
 7662TIP3    H144401   2.916   4.427  12.259  1.1342  1.0206  0.1694
 7662TIP3    H244402   2.919   4.298  12.180 -0.0460  1.2080 -0.2082
 7663TIP3   OH244403   3.843   0.147   4.737 -0.5265  0.2075 -0.2723
 7663TIP3    H144404   3.837   0.061   4.697 -1.1303 -0.4221  1.0891
 7663TIP3    H244405   3.861   0.129   4.830  1.9879  1.6193 -0.4166
 7664TIP3   OH244406   6.475   4.733   1.080 -0.6849 -0.4099  0.4739
 7664TIP3    H144407   6.516   4.671   1.141  0.5886 -0.6180 -0.5490
 7664TIP3    H244408   6.419   4.679   1.025 -1.3762 -0.3039  1.0566
 7665TIP3   OH244409   3.948   0.900  11.947 -0.6907  0.6116  0.3785
 7665TIP3    H144410   3.862   0.866  11.974 -1.0136 -0.6014 -1.9064
 7665TIP3    H244411   3.995   0.824  11.913  0.5984  1.5695 -0.0827
 7666TIP3   OH244412   4.000   6.666   5.116  0.2891 -0.5055 -0.0548
 7666TIP3    H144413   4.043   6.603   5.058 -0.1906  0.7736 -1.8978
 7666TIP3    H244414   4.048   6.659   5.199  1.1809 -2.2054 -0.6529
 7667TIP3   OH244415   5.144   0.434   3.515  0.2044  0.4663 -0.7499
 7667TIP3    H144416   5.225   0.482   3.499  0.5516 -0.9309 -3.8132
 7667TIP3    H244417   5.089   0.454   3.439 -1.5421 -0.1767  0.2966
 7668TIP3   OH244418   6.259   3.982  13.870 -0.3684  0.0397  0.2889
 7668TIP3    H144419   6.288   4.071  13.891  1.1369 -0.4261  0.3135
 7668TIP3    H244420   6.281   3.931  13.948 -0.6947 -0.4624  0.0589
 7669TIP3   OH244421   1.252   1.674   4.773  0.1039  0.2045 -0.8727
 7669TIP3    H144422   1.173   1.670   4.719 -0.4815 -0.4518 -0.0079
 7669TIP3    H244423   1.247   1.596   4.828  0.2183  1.2511  0.7121
 7670TIP3   OH244424   1.990   6.170  11.883  0.4833  0.1447  0.3376
 7670TIP3    H144425   1.931   6.124  11.822  0.3846  0.9031 -0.1459
 7670TIP3    H244426   2.012   6.252  11.839  0.0039  0.9481  1.5289
 7671TIP3   OH244427   2.178   0.190   3.678  0.0934 -0.8939  0.1653
 7671TIP3    H144428   2.097   0.144   3.700 -1.2975  0.7698 -1.1733
 7671TIP3    H244429   2.246   0.124   3.686 -1.6570 -2.9033 -0.5737
 7672TIP3   OH244430   1.109   0.957   3.961 -0.4588  0.7495  0.1463
 7672TIP3    H144431   1.033   0.898   3.961 -1.0862  1.5060  1.8794
 7672TIP3    H244432   1.170   0.916   4.022 -0.1592  1.0048  0.0180
 7673TIP3   OH244433   0.739   5.268  13.347  0.7105  0.2695  0.2566
 7673TIP3    H144434   0.737   5.245  13.254  2.1170  0.2128  0.2190
 7673TIP3    H244435   0.658   5.317  13.361 -0.0037 -0.5774 -0.7652
 7674TIP3   OH244436   4.672   3.246   5.684  0.7004  0.5644 -0.1850
 7674TIP3    H144437   4.745   3.271   5.741  0.9678 -0.5636 -0.0095
 7674TIP3    H244438   4.596   3.289   5.722  1.3084  2.0744 -0.5830
 7675TIP3   OH244439   0.947   2.863  15.740  0.5633 -0.1938  0.5346
 7675TIP3    H144440   0.855   2.864  15.768  0.5613  0.2992  0.5172
 7675TIP3    H244441   0.961   2.774  15.708 -0.2055  0.0301 -0.4537
 7676TIP3   OH244442   1.480   4.792  17.044  0.2101  0.1592 -0.0701
 7676TIP3    H144443   1.536   4.822  17.116  0.1062  0.5299 -0.1379
 7676TIP3    H244444   1.489   4.697  17.044  2.1028  0.3003 -1.1111
 7677TIP3   OH244445   1.669   2.827   6.778  0.2011 -0.2141 -0.1485
 7677TIP3    H144446   1.629   2.875   6.851 -0.7272 -1.0873 -0.0670
 7677TIP3    H244447   1.756   2.804   6.811  0.5314  1.0708 -0.0533
 7678TIP3   OH244448   0.872   4.569   1.821 -0.4218  0.6022  0.7053
 7678TIP3    H144449   0.782   4.541   1.836 -1.0075  0.6865 -2.1200
 7678TIP3    H244450   0.894   4.535   1.735  2.6875 -0.3256  1.7378
 7679TIP3   OH244451   2.093   5.524   2.533  0.2609 -0.2591 -0.0784
 7679TIP3    H144452   2.077   5.464   2.606  0.1186 -0.0431  0.0660
 7679TIP3    H244453   2.059   5.608   2.562 -3.1053 -0.8842 -1.7071
 7680TIP3   OH244454   0.081   4.776   2.792 -0.4181  0.1449  0.6410
 7680TIP3    H144455   0.007   4.743   2.843 -1.1650  0.0782 -0.4506
 7680TIP3    H244456   0.127   4.835   2.853 -0.5861 -0.8338  1.7547
 7681TIP3   OH244457   3.619   6.663   1.098 -0.0799 -0.2344  0.1113
 7681TIP3    H144458   3.692   6.658   1.160  0.7630  1.5422 -0.6695
 7681TIP3    H244459   3.541   6.668   1.153  0.6018  0.5081  1.0438
 7682TIP3   OH244460   2.469   3.430   0.933  0.3394 -0.6619  0.3600
 7682TIP3    H144461   2.445   3.358   0.992  1.1859 -0.1777  1.3408
 7682TIP3    H244462   2.407   3.424   0.861  0.5038 -2.4921  0.3149
 7683TIP3   OH244463   0.711   3.027   4.151  0.1408 -0.2194 -0.4594
 7683TIP3    H144464   0.678   3.059   4.235 -1.3573  0.1604 -1.1589
 7683TIP3    H244465   0.746   3.105   4.107 -0.5759 -0.1057 -0.8451
 7684TIP3   OH244466   1.111   4.929   1.774 -0.4468  0.0841  0.0335
 7684TIP3    H144467   1.195   4.974   1.786 -1.1745  1.7455 -0.7098
 7684TIP3    H244468   1.095   4.884   1.857  0.6957  0.5895  0.5433
 7685TIP3   OH244469   0.837   3.023  16.408 -0.5556  0.1496 -0.4391
 7685TIP3    H144470   0.851   3.109  16.448 -0.7260 -0.1068  0.1897
 7685TIP3    H244471   0.756   3.033  16.358 -0.7107  0.2933 -0.1646
 7686TIP3   OH244472   0.863   5.435  12.194  0.4359  0.0451 -0.2678
 7686TIP3    H144473   0.902   5.508  12.146  0.9606 -0.0757 -0.0352
 7686TIP3    H244474   0.907   5.358  12.158  1.2265 -0.0061  0.7767
 7687TIP3   OH244475   2.806   5.161   5.520 -0.2714 -0.4194 -0.2669
 7687TIP3    H144476   2.724   5.208   5.505  0.2121  0.1654 -1.1416
 7687TIP3    H244477   2.819   5.166   5.615 -1.5656 -1.0931 -0.0177
 7688TIP3   OH244478   1.684   5.956  12.305  0.1044  0.1683 -0.1126
 7688TIP3    H144479   1.767   5.919  12.273  0.4461 -0.4902  1.4337
 7688TIP3    H244480   1.675   6.038  12.257  1.9333  0.5123  0.0319
 7689TIP3   OH244481   4.847   5.420  12.734 -0.1756  0.0752  0.0009
 7689TIP3    H144482   4.805   5.443  12.817  0.7329  1.4362  0.1139
 7689TIP3    H244483   4.792   5.460  12.667  1.2921  2.6011  0.1870
 7690TIP3   OH244484   6.727   2.405  14.840  0.2676 -0.7180 -0.2222
 7690TIP3    H144485   6.808   2.396  14.891 -0.6550 -1.4201  1.2010
 7690TIP3    H244486   6.711   2.500  14.837  1.2779 -0.5512 -0.7795
 7691TIP3   OH244487   6.155   1.583   4.698  0.0100 -0.0181 -0.4622
 7691TIP3    H144488   6.224   1.634   4.742  1.2185 -2.0191  0.0805
 7691TIP3    H244489   6.085   1.647   4.683  0.6462  1.3743  1.9055
 7692TIP3   OH244490   4.145   4.128  16.075 -0.5270  0.5454 -0.0190
 7692TIP3    H144491   4.145   4.040  16.036 -1.3153 -0.2556  1.6780
 7692TIP3    H244492   4.079   4.176  16.025 -1.2762 -0.3547  0.0739
 7693TIP3   OH244493   5.225   3.976  12.176  0.0074  0.2528 -0.3065
 7693TIP3    H144494   5.252   3.911  12.241  0.2441  1.1365  0.5016
 7693TIP3    H244495   5.307   4.021  12.153 -0.2471  0.6605 -0.4128
 7694TIP3   OH244496   5.298   4.782  16.103 -0.0284 -0.1247  0.4918
 7694TIP3    H144497   5.354   4.838  16.048 -0.5550  1.2015  1.2625
 7694TIP3    H244498   5.315   4.812  16.192 -2.1990  0.5707  0.7271
 7695TIP3   OH244499   3.443   3.620  14.720 -0.1878  0.2791  0.3382
 7695TIP3    H144500   3.437   3.531  14.754  1.0116 -0.3921 -1.0800
 7695TIP3    H244501   3.501   3.665  14.780 -1.5626  0.4260  1.6166
 7696TIP3   OH244502   0.498   0.355   5.402 -0.0444  0.5546  0.5439
 7696TIP3    H144503   0.592   0.338   5.392  0.3273  0.9145  2.7429
 7696TIP3    H244504   0.459   0.268   5.408  0.0916  0.3990 -0.5942
 7697TIP3   OH244505   2.342   5.916  11.622  0.1977  0.1460 -0.1340
 7697TIP3    H144506   2.419   5.971  11.605 -0.3681  0.5203 -1.6949
 7697TIP3    H244507   2.289   5.925  11.543 -0.7307 -1.3193  0.2902
 7698TIP3   OH244508   1.163   4.291  14.278 -0.1813  0.1049 -0.7567
 7698TIP3    H144509   1.120   4.373  14.302 -2.4812 -1.4831  1.0380
 7698TIP3    H244510   1.254   4.316  14.261 -0.8136  3.0236 -0.4526
 7699TIP3   OH244511   5.388   0.066   1.994  0.1631 -0.6190  0.3628
 7699TIP3    H144512   5.309   0.032   2.036  0.3220 -1.9862 -0.3861
 7699TIP3    H244513   5.449  -0.008   1.995  1.8880  0.7319  1.9465
 7700TIP3   OH244514   5.978   3.741  12.277  0.4656  0.6368 -0.2075
 7700TIP3    H144515   5.920   3.788  12.216  2.5447 -1.0362 -3.8555
 7700TIP3    H244516   6.045   3.805  12.300 -0.8473  1.5650  1.1865
 7701TIP3   OH244517   2.615   0.247  15.694  0.8351  0.3517 -0.3934
 7701TIP3    H144518   2.568   0.300  15.758  0.8123  0.2025 -0.2865
 7701TIP3    H244519   2.577   0.160  15.703  1.4492  0.1206  0.0118
 7702TIP3   OH244520   0.051   1.825  14.174 -0.0558 -0.2144 -0.3076
 7702TIP3    H144521   0.138   1.858  14.195  0.0494  0.2704 -1.4438
 7702TIP3    H244522   0.052   1.813  14.079 -0.5016 -2.3159 -0.0924
 7703TIP3   OH244523   6.659   5.825   2.927 -0.5886 -0.3743  0.7882
 7703TIP3    H144524   6.704   5.878   2.992  0.7436 -0.6830  0.1605
 7703TIP3    H244525   6.712   5.745   2.921 -0.6238 -0.3121 -0.7202
 7704TIP3   OH244526   5.101   2.598   1.209 -0.0909  0.4354  0.2558
 7704TIP3    H144527   5.080   2.549   1.288 -0.9064 -0.6652 -0.6093
 7704TIP3    H244528   5.184   2.560   1.179 -0.2575  0.2102  0.0790
 7705TIP3   OH244529   0.088   2.425  13.025  0.1333 -0.6308  0.6172
 7705TIP3    H144530   0.117   2.498  13.080 -0.8406  1.3792 -1.3882
 7705TIP3    H244531   0.150   2.424  12.952 -2.7143  1.7132 -2.0874
 7706TIP3   OH244532   2.179   5.129  14.901  0.0357  0.6209  0.3957
 7706TIP3    H144533   2.198   5.059  14.964 -0.3048 -0.6022 -0.8177
 7706TIP3    H244534   2.265   5.159  14.872  0.1796  0.3388  0.5255
 7707TIP3   OH244535   0.376   4.337   5.763  0.3108 -0.0222  0.2342
 7707TIP3    H144536   0.432   4.402   5.722  0.7581 -0.4353  0.1730
 7707TIP3    H244537   0.332   4.384   5.833  0.1649  0.4916 -0.1961
 7708TIP3   OH244538   3.474   2.806  10.116  0.4020  0.1940  0.1796
 7708TIP3    H144539   3.473   2.821  10.022  0.1433 -2.3055 -0.2799
 7708TIP3    H244540   3.382   2.810  10.142  0.0293 -2.6412 -0.3954
 7709TIP3   OH244541   1.695   2.029   4.268 -0.6650 -0.6757 -0.1427
 7709TIP3    H144542   1.657   2.116   4.279 -1.0013 -0.8924  0.4508
 7709TIP3    H244543   1.621   1.969   4.272 -0.5542 -0.9465 -1.4587
 7710TIP3   OH244544   1.007   0.938  16.380 -0.1657 -0.4435  0.0968
 7710TIP3    H144545   1.049   0.877  16.320 -0.3037 -0.8764  0.4335
 7710TIP3    H244546   0.988   0.886  16.458 -0.5198 -0.0355  0.2896
 7711TIP3   OH244547   4.256   2.206  11.054  0.6411 -0.1135  0.3218
 7711TIP3    H144548   4.304   2.221  10.973  2.0587  6.4213  1.7401
 7711TIP3    H244549   4.164   2.199  11.027  1.1679  0.9148 -1.9490
 7712TIP3   OH244550   4.608   1.750   2.423  0.2813 -0.1007 -0.0295
 7712TIP3    H144551   4.543   1.816   2.399 -1.1059 -1.3143  0.2305
 7712TIP3    H244552   4.681   1.799   2.460 -0.3677  1.3236 -0.5846
 7713TIP3   OH244553   5.886   4.500  16.959 -0.4425 -0.3987 -0.3091
 7713TIP3    H144554   5.940   4.425  16.935 -0.5683 -0.8925  0.8893
 7713TIP3    H244555   5.911   4.519  17.050 -1.5879 -0.0409 -0.0554
 7714TIP3   OH244556   6.058   0.476  13.594  0.1654  0.4204  0.0647
 7714TIP3    H144557   6.021   0.523  13.519 -1.5129 -0.5751  0.2232
 7714TIP3    H244558   5.982   0.457  13.650  1.3604  1.1379  2.0437
 7715TIP3   OH244559   1.132   1.748  13.526  0.5226  0.0077  0.6332
 7715TIP3    H144560   1.084   1.783  13.601 -0.9552 -0.4473 -0.0545
 7715TIP3    H244561   1.179   1.824  13.490  1.3610  0.1953  2.0670
 7716TIP3   OH244562   0.939   0.548   4.274  0.4104 -0.1221  0.4803
 7716TIP3    H144563   1.014   0.529   4.331  0.2844 -2.4393  0.0053
 7716TIP3    H244564   0.929   0.468   4.221 -1.6058  0.6195 -0.3531
 7717TIP3   OH244565   0.128   4.137   0.153  0.1164 -0.3448 -0.2378
 7717TIP3    H144566   0.112   4.164   0.243  2.1029  1.5432 -0.3488
 7717TIP3    H244567   0.047   4.157   0.107 -0.9291 -1.3460  1.0859
 7718TIP3   OH244568   6.203   4.823   2.588  0.4888 -0.2766 -0.2032
 7718TIP3    H144569   6.227   4.904   2.542  0.1323 -0.2853 -0.4097
 7718TIP3    H244570   6.220   4.753   2.525  1.9636 -0.4908  0.3928
 7719TIP3   OH244571   2.182   1.955  12.357 -0.0751  0.4724  0.4058
 7719TIP3    H144572   2.132   1.876  12.378 -0.3168  0.1285 -1.2660
 7719TIP3    H244573   2.134   2.026  12.400  0.6310 -0.3469  2.6496
 7720TIP3   OH244574   5.528   1.730   6.737 -0.3001 -0.8119 -0.3320
 7720TIP3    H144575   5.480   1.664   6.786 -1.4292  1.1234  1.3380
 7720TIP3    H244576   5.617   1.726   6.772 -0.3953 -1.3615 -0.1507
 7721TIP3   OH244577   1.294   5.571  13.918  0.0564 -0.0175  0.0169
 7721TIP3    H144578   1.229   5.505  13.893 -0.3795  0.2620  0.3945
 7721TIP3    H244579   1.245   5.636  13.968  1.0246 -1.0806  2.5404
 7722TIP3   OH244580   2.944   4.159  15.520  0.2455 -0.2546  0.1171
 7722TIP3    H144581   2.920   4.234  15.574 -1.2157 -1.0853  0.6908
 7722TIP3    H244582   2.871   4.148  15.460  0.6646 -0.9210 -0.2875
 7723TIP3   OH244583   3.765   1.997   2.633 -0.3461 -0.2672 -0.6654
 7723TIP3    H144584   3.828   1.937   2.672 -1.9332 -1.4837  0.1918
 7723TIP3    H244585   3.741   2.057   2.703 -1.7082 -1.1924 -0.2882
 7724TIP3   OH244586   1.096   6.763   3.064 -0.2152  0.1836 -0.2941
 7724TIP3    H144587   1.124   6.768   2.972  0.5256  0.6759 -0.0502
 7724TIP3    H244588   1.178   6.763   3.114 -0.5282 -1.6067  0.3215
 7725TIP3   OH244589   0.731   5.363   5.272 -0.3519  0.0381  0.4579
 7725TIP3    H144590   0.652   5.312   5.289  0.2978 -0.4161  2.3916
 7725TIP3    H244591   0.761   5.390   5.359  0.7923  1.4808 -0.3431
 7726TIP3   OH244592   1.290   5.338   4.847 -0.1407  0.5870 -0.1446
 7726TIP3    H144593   1.208   5.299   4.818  1.4601 -1.1522 -2.7833
 7726TIP3    H244594   1.324   5.277   4.912  1.0941 -1.2678 -2.3565
 7727TIP3   OH244595   0.475   4.939   2.464  0.0272  0.0683 -0.2843
 7727TIP3    H144596   0.466   4.845   2.482  1.1701  0.0766  0.4420
 7727TIP3    H244597   0.522   4.973   2.539  1.0595  0.9311 -1.2881
 7728TIP3   OH244598   4.140   3.612  15.804 -1.1596  0.2442 -0.2168
 7728TIP3    H144599   4.189   3.551  15.749 -2.1210 -0.3715 -0.4221
 7728TIP3    H244600   4.111   3.559  15.879 -2.1151  0.4039 -0.4589
 7729TIP3   OH244601   3.373   0.525   5.689  0.1963 -0.3483 -0.2438
 7729TIP3    H144602   3.312   0.504   5.617  1.7027 -2.9192 -0.9007
 7729TIP3    H244603   3.374   0.621   5.692 -1.8751 -0.1851 -1.9272
 7730TIP3   OH244604   0.695   3.142  11.392  0.3525  0.2636  0.3405
 7730TIP3    H144605   0.773   3.187  11.425  0.9963 -1.1842  0.8854
 7730TIP3    H244606   0.730   3.066  11.346 -0.7337 -0.1162  0.1255
 7731TIP3   OH244607   6.345   0.950   4.234  0.1276  0.2674 -0.5070
 7731TIP3    H144608   6.283   0.928   4.303 -0.2106  3.8581  0.5300
 7731TIP3    H244609   6.290   0.983   4.162  0.6779  2.1755 -0.1119
 7732TIP3   OH244610   1.893   5.219   0.432  0.1814 -0.2791  0.0603
 7732TIP3    H144611   1.949   5.293   0.453 -0.5156  0.1350  0.4998
 7732TIP3    H244612   1.889   5.218   0.337  2.5861 -1.5777 -0.1085
 7733TIP3   OH244613   4.697   0.468   4.799  0.4732  0.5589 -0.2579
 7733TIP3    H144614   4.742   0.458   4.883 -0.9172 -2.0040  0.2943
 7733TIP3    H244615   4.759   0.432   4.735  0.2465 -0.5784  0.1462
 7734TIP3   OH244616   3.975   4.064  15.368  0.3117  0.8200  0.2201
 7734TIP3    H144617   3.955   3.975  15.341  3.3515  0.1242 -0.0184
 7734TIP3    H244618   4.016   4.104  15.291 -2.0365  2.9115 -0.0938
 7735TIP3   OH244619   0.523   3.135   0.080 -0.7692 -0.7505  0.1083
 7735TIP3    H144620   0.525   3.060   0.021  0.5934  1.0589 -2.2944
 7735TIP3    H244621   0.439   3.177   0.062 -1.1129 -1.1343  0.7657
 7736TIP3   OH244622   5.468   6.504  14.371  0.9179  0.0587 -0.0545
 7736TIP3    H144623   5.492   6.588  14.411 -2.0201  0.4760  1.0768
 7736TIP3    H244624   5.448   6.526  14.280  0.2071  0.6056  0.2236
 7737TIP3   OH244625   1.020   0.682  10.531 -0.0701 -0.6665  0.0903
 7737TIP3    H144626   1.084   0.612  10.545 -0.1136 -0.5834  0.7639
 7737TIP3    H244627   0.946   0.658  10.587 -0.1454 -0.1547  0.2171
 7738TIP3   OH244628   3.579   2.978  17.310 -0.6417  0.0929 -0.1255
 7738TIP3    H144629   3.484   2.989  17.308 -0.6633  0.2446  1.0524
 7738TIP3    H244630   3.614   3.067  17.302 -0.5524 -0.0598 -1.7366
 7739TIP3   OH244631   1.784   0.984   3.406 -0.1228  0.1783 -0.0679
 7739TIP3    H144632   1.861   1.040   3.417  0.7571 -0.7988 -1.1222
 7739TIP3    H244633   1.746   1.012   3.323 -0.2634 -0.1128 -0.1029
 7740TIP3   OH244634   6.112   0.848  14.563 -0.0494  0.1004  0.0452
 7740TIP3    H144635   6.103   0.755  14.546 -1.8372  0.1727  0.3869
 7740TIP3    H244636   6.147   0.852  14.652 -0.7986 -0.2623  0.3673
 7741TIP3   OH244637   4.055   0.832   5.639  0.7062  0.2985  0.4296
 7741TIP3    H144638   4.026   0.794   5.722  1.1106  0.9773  0.8942
 7741TIP3    H244639   4.059   0.758   5.578  0.8815 -0.2936  1.1446
 7742TIP3   OH244640   2.620   6.364  14.467  0.1693 -0.1575 -0.1723
 7742TIP3    H144641   2.632   6.313  14.386  2.3465  0.9868 -0.6456
 7742TIP3    H244642   2.690   6.333  14.525  1.3777  2.0141 -0.3742
 7743TIP3   OH244643   1.632   3.522   4.883  0.1024  0.0274 -0.2735
 7743TIP3    H144644   1.550   3.484   4.851  0.3865 -0.7400 -0.1271
 7743TIP3    H244645   1.645   3.480   4.968  1.6900 -1.4656 -1.1867
 7744TIP3   OH244646   0.605   5.000  13.779  0.1319 -0.5158  0.1799
 7744TIP3    H144647   0.634   5.030  13.866  3.4304 -2.5531 -0.0659
 7744TIP3    H244648   0.511   4.987  13.789  0.1207  0.9111  2.9389
 7745TIP3   OH244649   1.224   0.282  14.004  0.4149  0.8276  0.1821
 7745TIP3    H144650   1.202   0.293  14.096 -1.1608 -2.2067  0.3099
 7745TIP3    H244651   1.313   0.318  13.996  0.5447  1.2806  2.8397
 7746TIP3   OH244652   2.113   0.267  14.556 -0.0344 -0.3063  0.2736
 7746TIP3    H144653   2.074   0.257  14.643 -3.1776  0.0486 -0.9617
 7746TIP3    H244654   2.142   0.179  14.533 -0.7216 -0.7538  1.0500
 7747TIP3   OH244655   4.301   2.106  17.106  0.1756  0.4473 -0.2042
 7747TIP3    H144656   4.365   2.140  17.043  0.4036 -1.0771 -0.8290
 7747TIP3    H244657   4.231   2.068  17.053  1.1488 -2.3627  0.3246
 7748TIP3   OH244658   6.182   3.367  14.004  0.1962 -0.1052  0.3444
 7748TIP3    H144659   6.127   3.320  13.941 -1.4691  1.2930  0.6696
 7748TIP3    H244660   6.137   3.355  14.088 -0.6358  2.4840  0.3488
 7749TIP3   OH244661   2.254   4.512   3.822  0.9762 -0.7740  0.2850
 7749TIP3    H144662   2.165   4.476   3.830  0.7414 -0.1047  0.8369
 7749TIP3    H244663   2.269   4.518   3.728 -0.1699  0.5090  0.1458
 7750TIP3   OH244664   5.878   6.170   0.098 -0.1599 -0.5510 -0.0870
 7750TIP3    H144665   5.894   6.086   0.054  0.5372 -0.7139  0.4469
 7750TIP3    H244666   5.900   6.236   0.033 -1.9475 -0.7518 -0.9471
 7751TIP3   OH244667   0.670   0.501  16.520  0.0741  0.5053 -0.5993
 7751TIP3    H144668   0.625   0.442  16.460 -0.0483  0.0803 -0.0973
 7751TIP3    H244669   0.692   0.577  16.467  0.7004 -0.2136 -1.3919
 7752TIP3   OH244670   1.251   6.503  14.533  0.3861 -0.1800  0.0645
 7752TIP3    H144671   1.230   6.496  14.626 -2.3060  3.8679  0.0276
 7752TIP3    H244672   1.183   6.452  14.489 -1.0137  1.3326  0.3498
 7753TIP3   OH244673   5.479   4.943  13.541 -0.5585  0.7664 -0.1030
 7753TIP3    H144674   5.416   4.873  13.522 -0.3813  0.1267  1.5302
 7753TIP3    H244675   5.557   4.919  13.490 -0.1201 -0.8629  1.2472
 7754TIP3   OH244676   5.849   4.320  16.376 -0.7245  0.5862 -0.0082
 7754TIP3    H144677   5.848   4.293  16.285  0.5330  1.6438 -0.3727
 7754TIP3    H244678   5.761   4.302  16.408 -1.0507 -0.2095 -1.2978
 7755TIP3   OH244679   0.912   1.388  11.675  0.3989 -0.4774  0.0804
 7755TIP3    H144680   0.905   1.337  11.594 -1.1018 -1.0354  0.5225
 7755TIP3    H244681   0.862   1.338  11.739 -0.0079  0.8930  0.8690
 7756TIP3   OH244682   1.280   0.238  16.534 -0.2539 -0.1163 -0.2963
 7756TIP3    H144683   1.279   0.166  16.596  0.3402  0.6640  0.6570
 7756TIP3    H244684   1.372   0.266  16.530 -0.5050  0.7344 -0.4567
 7757TIP3   OH244685   1.194   2.982   1.116  0.1458 -0.4477  0.1186
 7757TIP3    H144686   1.230   3.031   1.190  0.8994 -2.9489  1.5325
 7757TIP3    H244687   1.100   2.980   1.132  0.1346  0.2912  0.1761
 7758TIP3   OH244688   1.536   5.993   2.196 -0.1381  0.2117 -0.0844
 7758TIP3    H144689   1.575   6.080   2.204  0.2231 -0.0061  0.5969
 7758TIP3    H244690   1.573   5.958   2.115 -1.0575  1.0651 -0.9017
 7759TIP3   OH244691   6.729   3.411   4.257 -0.6323 -0.7025  0.3923
 7759TIP3    H144692   6.676   3.333   4.240 -2.9612  0.7320  0.6675
 7759TIP3    H244693   6.679   3.461   4.321  0.1343  1.6122 -0.6954
 7760TIP3   OH244694   4.130   1.461   3.575  0.1817 -0.3891 -0.0861
 7760TIP3    H144695   4.163   1.444   3.663 -2.7399  1.9007  1.6510
 7760TIP3    H244696   4.163   1.548   3.553  0.3016 -0.6460 -0.9805
 7761TIP3   OH244697   4.171   0.232  12.381  0.8446  0.8238  0.3335
 7761TIP3    H144698   4.130   0.272  12.304 -1.2281 -1.4750  0.1053
 7761TIP3    H244699   4.123   0.268  12.455  2.1618  2.2552  0.5492
 7762TIP3   OH244700   6.484   3.667   1.595 -0.0333  0.6434  0.0072
 7762TIP3    H144701   6.448   3.585   1.563 -0.8248 -0.3457  3.1062
 7762TIP3    H244702   6.491   3.656   1.690  2.7295  3.0552  0.2668
 7763TIP3   OH244703   2.202   4.783  13.848 -0.2177 -0.2616 -0.5354
 7763TIP3    H144704   2.145   4.859  13.858  2.2280  1.4964  1.0692
 7763TIP3    H244705   2.258   4.804  13.774  1.9951  0.6648  1.2879
 7764TIP3   OH244706   3.359   3.075   5.711 -0.2262  0.0228  0.2104
 7764TIP3    H144707   3.437   3.074   5.767 -1.3493 -2.3339  1.8840
 7764TIP3    H244708   3.394   3.061   5.622  1.3418  0.3877  0.7280
 7765TIP3   OH244709   3.567   0.208  12.631 -0.2822  0.4933 -0.7109
 7765TIP3    H144710   3.566   0.135  12.693  0.9575  1.1664  0.1381
 7765TIP3    H244711   3.496   0.188  12.570 -0.5884 -0.9301  0.0603
 7766TIP3   OH244712   3.980   4.161   4.442  0.5243  0.3573 -0.4091
 7766TIP3    H144713   4.061   4.212   4.445  1.3527 -0.9455  0.1630
 7766TIP3    H244714   3.915   4.217   4.486  0.8902  1.7271 -1.5199
 7767TIP3   OH244715   3.297   3.430  12.325  0.0071  0.5799  0.7498
 7767TIP3    H144716   3.285   3.357  12.264 -0.3827  0.1602  1.3173
 7767TIP3    H244717   3.216   3.432  12.376 -1.3497  3.3355 -1.2370
 7768TIP3   OH244718   1.277   0.800  13.041 -0.5118  0.6725  0.1647
 7768TIP3    H144719   1.231   0.741  13.101 -1.2973  0.2681 -0.8115
 7768TIP3    H244720   1.211   0.865  13.016 -1.5519 -1.5528 -3.5194
 7769TIP3   OH244721   6.036   5.719  16.422 -0.2429  0.1756  0.6292
 7769TIP3    H144722   6.024   5.747  16.331 -0.1631  1.3744  0.9715
 7769TIP3    H244723   5.953   5.741  16.464 -0.2310 -0.2581  0.8823
 7770TIP3   OH244724   5.732   0.862   3.701 -0.2702 -0.2362  0.0530
 7770TIP3    H144725   5.658   0.824   3.747 -0.0646  0.9335  1.4415
 7770TIP3    H244726   5.702   0.948   3.674  0.2741 -0.1228 -0.2085
 7771TIP3   OH244727   6.018   1.454  12.530 -0.3147 -0.6520 -0.5056
 7771TIP3    H144728   5.937   1.504  12.541  0.3956  0.7211 -1.2346
 7771TIP3    H244729   6.067   1.470  12.610  0.0865  0.1849 -0.9074
 7772TIP3   OH244730   5.265   0.624   3.758 -0.1225  0.2312 -0.3982
 7772TIP3    H144731   5.185   0.577   3.781 -0.3431  0.7033 -0.1729
 7772TIP3    H244732   5.284   0.598   3.668 -0.0402 -0.5539 -0.1614
 7773TIP3   OH244733   1.109   3.760   1.710  0.0600 -0.4317  0.1093
 7773TIP3    H144734   1.178   3.720   1.763  0.3878 -0.3712 -0.2727
 7773TIP3    H244735   1.046   3.689   1.696  0.0058 -0.4691  0.5132
 7774TIP3   OH244736   0.138   1.305  14.271 -0.4026  0.0247  0.7183
 7774TIP3    H144737   0.076   1.238  14.299 -1.6401  1.4598  1.5753
 7774TIP3    H244738   0.141   1.296  14.176 -1.0348 -0.8246  0.7627
 7775TIP3   OH244739   6.066   3.672   0.078 -0.2788 -0.6615  0.2720
 7775TIP3    H144740   6.047   3.761   0.107  0.5093 -0.3430 -0.1448
 7775TIP3    H244741   6.124   3.637   0.145  0.9770 -0.1677 -0.5059
 7776TIP3   OH244742   0.931   3.787  15.016  0.4182  0.6806 -0.4692
 7776TIP3    H144743   0.990   3.848  14.972 -1.5717  0.8180 -3.1242
 7776TIP3    H244744   0.949   3.800  15.109  2.7908  2.4519 -1.0805
 7777TIP3   OH244745   3.937   5.837  15.900 -0.1610 -0.3721 -0.2123
 7777TIP3    H144746   3.879   5.908  15.875 -1.8015 -1.2492  0.9092
 7777TIP3    H244747   4.005   5.878  15.954 -0.4095  0.4977 -0.5568
 7778TIP3   OH244748   0.627   4.629   1.149  0.1079  0.4710  0.4882
 7778TIP3    H144749   0.712   4.584   1.149  0.2253  0.5095  3.1058
 7778TIP3    H244750   0.576   4.583   1.217 -1.1133  1.9268  0.6079
 7779TIP3   OH244751   4.216   2.290  11.502  0.5313  0.6052  0.4170
 7779TIP3    H144752   4.249   2.378  11.520  2.6430 -0.3611  1.6435
 7779TIP3    H244753   4.192   2.255  11.588 -0.5449  0.0453 -0.0845
 7780TIP3   OH244754   2.896   4.748  12.422  0.0501  0.0137  0.9018
 7780TIP3    H144755   2.939   4.687  12.482  1.1458  0.4807  0.6329
 7780TIP3    H244756   2.965   4.810  12.398 -0.5536  0.2667 -0.2678
 7781TIP3   OH244757   6.460   4.702  14.318  0.2788 -0.1307  0.6204
 7781TIP3    H144758   6.465   4.797  14.315  1.6026 -0.1993 -0.5333
 7781TIP3    H244759   6.368   4.682  14.298  0.1874  0.8835 -0.0529
 7782TIP3   OH244760   5.521   6.006   5.555  0.1951 -0.0083  0.4353
 7782TIP3    H144761   5.450   6.000   5.490 -0.5136  0.0263  1.1920
 7782TIP3    H244762   5.519   5.921   5.599 -0.1687  0.4258  1.2669
 7783TIP3   OH244763   4.308   2.477  17.018  0.3686 -0.2248  0.3836
 7783TIP3    H144764   4.365   2.517  17.084 -0.1757  1.4345 -0.1023
 7783TIP3    H244765   4.251   2.419  17.068  1.4641 -0.7386  1.0752
 7784TIP3   OH244766   2.784   4.356  13.207  0.2787  0.2968  0.1635
 7784TIP3    H144767   2.690   4.357  13.225  0.3010  0.8013  0.2655
 7784TIP3    H244768   2.816   4.276  13.249  0.0119  0.4826  0.7151
 7785TIP3   OH244769   1.981   1.457  14.198  0.1998  0.3857  0.6950
 7785TIP3    H144770   1.923   1.458  14.274  0.7239 -0.4058  1.1202
 7785TIP3    H244771   1.998   1.364  14.182  1.4541  0.6100  0.6637
 7786TIP3   OH244772   4.464   0.194  16.253 -0.3272  0.2165 -0.0182
 7786TIP3    H144773   4.514   0.147  16.320 -0.5115 -1.3573 -0.9508
 7786TIP3    H244774   4.385   0.223  16.299 -0.4742 -0.8745  0.4500
 7787TIP3   OH244775   1.804   3.775  14.449  0.1980  0.2487 -0.0319
 7787TIP3    H144776   1.850   3.847  14.491  0.0657  0.2684  0.0821
 7787TIP3    H244777   1.855   3.697  14.472  0.8341  0.4025 -0.8793
 7788TIP3   OH244778   4.712   1.256   0.329 -0.4187  0.3008 -0.6620
 7788TIP3    H144779   4.719   1.311   0.252 -1.2205  0.4405 -0.6452
 7788TIP3    H244780   4.641   1.195   0.309 -2.0345  1.6123  0.6945
 7789TIP3   OH244781   4.643   0.491  13.950  0.2491 -0.0247 -0.2272
 7789TIP3    H144782   4.652   0.421  14.015 -0.2780  0.9340  0.9200
 7789TIP3    H244783   4.725   0.489  13.902  1.8397  0.8976  2.2158
 7790TIP3   OH244784   4.666   0.872  11.869 -0.6680  0.4158  0.7396
 7790TIP3    H144785   4.587   0.873  11.814 -0.3406 -0.1318  0.2405
 7790TIP3    H244786   4.736   0.898  11.810 -0.4732  0.9197  1.1882
 7791TIP3   OH244787   0.134   1.181  13.988  0.0544 -0.3410  0.3612
 7791TIP3    H144788   0.141   1.088  14.009 -0.2100 -0.4904 -0.2024
 7791TIP3    H244789   0.105   1.183  13.897  1.9321  0.2923 -0.2706
 7792TIP3   OH244790   3.106   0.335   2.169 -0.6558 -0.2426  0.2756
 7792TIP3    H144791   3.134   0.355   2.259  2.7565 -3.5305  0.2344
 7792TIP3    H244792   3.049   0.259   2.178 -1.7541  0.4920 -0.2957
 7793TIP3   OH244793   6.008   5.205  16.280  0.3049 -0.8102 -0.1838
 7793TIP3    H144794   6.058   5.245  16.209  1.0238  0.0250  0.7638
 7793TIP3    H244795   5.997   5.276  16.344 -1.9168 -1.0211 -0.2536
 7794TIP3   OH244796   2.250   0.423  11.677  0.1547  0.1228 -0.0649
 7794TIP3    H144797   2.333   0.427  11.630 -0.6887 -1.6250 -1.8621
 7794TIP3    H244798   2.202   0.501  11.649  0.8420  0.7152  0.3640
 7795TIP3   OH244799   4.281   6.572  11.547 -0.2698 -0.1348  0.0263
 7795TIP3    H144800   4.230   6.497  11.516 -0.3601 -0.1743  0.2660
 7795TIP3    H244801   4.300   6.551  11.639 -3.7869  1.9831  1.4106
 7796TIP3   OH244802   5.188   0.267   3.962 -0.1680 -0.7346  0.2588
 7796TIP3    H144803   5.115   0.206   3.971 -0.6127  0.0467  2.7778
 7796TIP3    H244804   5.246   0.245   4.035  1.1832 -0.1022 -0.5914
 7797TIP3   OH244805   0.180   5.596  14.771 -0.0660 -0.1673 -0.2496
 7797TIP3    H144806   0.215   5.677  14.733  0.7489 -0.8335 -0.9725
 7797TIP3    H244807   0.258   5.547  14.798 -0.5769 -0.3884  0.8872
 7798TIP3   OH244808   5.577   1.993   6.273 -0.1820 -0.2971 -0.1294
 7798TIP3    H144809   5.586   2.080   6.311  0.4456 -0.5002  0.1907
 7798TIP3    H244810   5.566   2.009   6.179 -0.1909  0.1307 -0.0548
 7799TIP3   OH244811   5.512   3.345   5.824  0.9415 -0.2705 -0.5726
 7799TIP3    H144812   5.553   3.273   5.873  0.1190  0.1495  0.8026
 7799TIP3    H244813   5.581   3.410   5.815  0.9305 -0.0531  0.7123
 7800TIP3   OH244814   2.956   4.583  12.670  0.2801 -0.2202  0.0984
 7800TIP3    H144815   2.974   4.498  12.710 -0.4618 -1.3831 -1.8828
 7800TIP3    H244816   2.873   4.611  12.709  1.0307  0.1062  1.5011
 7801TIP3   OH244817   2.579   5.658   4.612 -0.0862 -0.3354 -0.0698
 7801TIP3    H144818   2.510   5.593   4.620  0.8439 -1.4159 -0.5807
 7801TIP3    H244819   2.635   5.643   4.688  0.5187 -0.6246 -0.5608
 7802TIP3   OH244820   1.028   3.957  10.846  0.2269 -0.4049 -0.2914
 7802TIP3    H144821   1.057   4.048  10.841 -1.6267  0.2104 -0.6781
 7802TIP3    H244822   0.986   3.950  10.932 -0.2714 -0.6684 -0.5472
 7803TIP3   OH244823   5.388   2.914  14.240  0.1857 -0.2939  0.3022
 7803TIP3    H144824   5.344   2.937  14.322  1.5041  0.8497  0.7319
 7803TIP3    H244825   5.474   2.957  14.246  0.3934 -0.3604 -1.5881
 7804TIP3   OH244826   2.905   5.641  15.502  0.1835  0.2059 -0.3500
 7804TIP3    H144827   2.847   5.621  15.576  0.9420 -0.0925  0.1801
 7804TIP3    H244828   2.992   5.618  15.534  0.3944 -1.0362 -1.7519
 7805TIP3   OH244829   0.807   3.077  14.595 -0.3011 -0.3365 -0.2262
 7805TIP3    H144830   0.753   3.152  14.572 -0.7902  0.3440  2.6733
 7805TIP3    H244831   0.892   3.094  14.555 -1.7795 -0.8805 -3.9538
 7806TIP3   OH244832   0.307   5.002   4.467 -0.6336 -0.2730  0.1297
 7806TIP3    H144833   0.263   4.997   4.552 -0.1938 -0.6185  0.3438
 7806TIP3    H244834   0.295   4.916   4.428  0.5079 -0.6355  0.5349
 7807TIP3   OH244835   4.899   6.631   3.834 -0.1658 -0.7941 -0.3872
 7807TIP3    H144836   4.806   6.607   3.828  0.0753 -1.5458 -1.3714
 7807TIP3    H244837   4.923   6.654   3.745  0.3017  0.5864  0.0779
 7808TIP3   OH244838   6.520   6.478   1.193 -0.2924  0.1026 -0.0765
 7808TIP3    H144839   6.451   6.534   1.229 -0.7345 -0.7241  0.3973
 7808TIP3    H244840   6.487   6.389   1.204  0.6535 -0.2899 -0.2805
 7809TIP3   OH244841   1.195   0.027   2.763 -0.1721  0.3680 -0.2651
 7809TIP3    H144842   1.235   0.037   2.676 -1.0923  1.2178 -0.6050
 7809TIP3    H244843   1.230   0.100   2.814  1.1367 -0.6784  0.4172
 7810TIP3   OH244844   1.378   0.145  17.129  0.5634  0.0716 -0.0258
 7810TIP3    H144845   1.417   0.232  17.123  0.7344 -0.0029  0.0025
 7810TIP3    H244846   1.452   0.085  17.121  0.5278 -0.0605  0.5494
 7811TIP3   OH244847   1.044   2.620   3.878  0.2212 -0.1295 -0.3943
 7811TIP3    H144848   1.049   2.528   3.902  0.4105 -0.3191 -1.1176
 7811TIP3    H244849   1.031   2.619   3.783 -0.0598  0.5866 -0.3725
 7812TIP3   OH244850   0.567   3.572   1.499 -0.1132  0.0240  0.5124
 7812TIP3    H144851   0.622   3.515   1.553  2.2256  0.4965 -1.2234
 7812TIP3    H244852   0.587   3.660   1.530 -1.0987  0.1207  0.8945
 7813TIP3   OH244853   1.488   0.867   0.835 -0.2538 -0.6643 -0.3142
 7813TIP3    H144854   1.492   0.773   0.819 -1.1227 -0.9257  0.8753
 7813TIP3    H244855   1.561   0.885   0.894  1.7890 -0.0241 -2.8662
 7814TIP3   OH244856   6.536   2.586   5.347  0.3973 -0.2177  0.2348
 7814TIP3    H144857   6.507   2.617   5.261 -0.4074 -1.4912  0.0141
 7814TIP3    H244858   6.607   2.524   5.328  0.5297 -0.1559  0.5216
 7815TIP3   OH244859   2.748   6.501   6.033 -0.2461  0.0942 -0.1962
 7815TIP3    H144860   2.694   6.494   5.955  0.0550  0.4520 -0.4390
 7815TIP3    H244861   2.721   6.583   6.074 -0.1167  0.1097 -0.1425
 7816TIP3   OH244862   5.861   6.752   3.089 -0.0970 -0.4878 -0.2834
 7816TIP3    H144863   5.867   6.795   3.004 -0.1560 -0.2369 -0.1627
 7816TIP3    H244864   5.799   6.680   3.076 -0.1862 -0.3844 -0.4270
 7817TIP3   OH244865   6.627   0.994   2.334 -0.2645 -0.0358  0.2097
 7817TIP3    H144866   6.552   0.996   2.394 -1.8340  0.2445 -1.6925
 7817TIP3    H244867   6.686   1.061   2.369 -1.7641  1.1063  0.6763
 7818TIP3   OH244868   0.890   6.450  11.532  0.5484 -0.2802  0.1901
 7818TIP3    H144869   0.920   6.524  11.478  0.7927 -2.2765 -2.5783
 7818TIP3    H244870   0.843   6.393  11.472 -0.4049 -2.0096  2.4251
 7819TIP3   OH244871   0.635   1.670  12.676  0.9240  1.2016  0.3191
 7819TIP3    H144872   0.673   1.634  12.596  1.5378  0.7053  0.8338
 7819TIP3    H244873   0.541   1.675  12.657  1.1898  2.2272 -0.8788
 7820TIP3   OH244874   1.703   3.352   0.094  0.0988  0.0290  0.1617
 7820TIP3    H144875   1.621   3.305   0.076  0.3521 -0.3911  0.1035
 7820TIP3    H244876   1.674   3.436   0.129 -0.3872  0.6295 -1.6047
 7821TIP3   OH244877   0.818   6.567   5.258  0.0706 -0.1753 -0.1577
 7821TIP3    H144878   0.788   6.496   5.201 -2.0631  2.4129 -2.5446
 7821TIP3    H244879   0.907   6.585   5.229  0.0277 -0.7760 -0.6847
 7822TIP3   OH244880   2.533   3.152  14.112  0.2869  0.4101  0.6501
 7822TIP3    H144881   2.486   3.195  14.041  0.9440  0.0978  0.0195
 7822TIP3    H244882   2.478   3.168  14.189 -2.3731 -2.2777 -0.4847
 7823TIP3   OH244883   3.425   1.246   3.630  0.3653 -0.1091  0.1054
 7823TIP3    H144884   3.363   1.302   3.584  1.1561  0.6846 -0.0219
 7823TIP3    H244885   3.372   1.175   3.665 -0.5205  0.2459 -0.4894
 7824TIP3   OH244886   4.143   5.805  13.468 -0.3279 -0.0251  0.0974
 7824TIP3    H144887   4.093   5.800  13.386 -1.6126 -0.5915  0.8888
 7824TIP3    H244888   4.199   5.728  13.466 -0.3299 -0.0211 -0.2637
 7825TIP3   OH244889   2.135   1.571  11.691  0.4653 -0.0179 -0.2004
 7825TIP3    H144890   2.067   1.536  11.749 -0.5969 -0.0428 -1.4159
 7825TIP3    H244891   2.087   1.611  11.619  1.7380 -1.1993 -1.7783
 7826TIP3   OH244892   3.782   5.252  12.281  0.1106 -0.4257 -0.2769
 7826TIP3    H144893   3.727   5.268  12.205  0.8086  1.0067 -0.5146
 7826TIP3    H244894   3.774   5.158  12.297 -3.0792 -0.1836  0.2511
 7827TIP3   OH244895   5.671   2.447   1.556 -0.1189  0.8297 -0.4534
 7827TIP3    H144896   5.631   2.497   1.627 -0.8636  0.3170 -0.4984
 7827TIP3    H244897   5.748   2.406   1.596  0.0632  1.3841 -0.2217
 7828TIP3   OH244898   6.181   1.693  12.243  0.7728  0.4234 -0.1900
 7828TIP3    H144899   6.164   1.629  12.173  1.7812 -0.0677  0.0092
 7828TIP3    H244900   6.137   1.772  12.212 -0.8347 -0.4508 -0.2597
 7829TIP3   OH244901   1.519   5.209   1.217 -0.1835  0.5905 -0.1670
 7829TIP3    H144902   1.480   5.122   1.228 -0.9270  0.7069 -1.6109
 7829TIP3    H244903   1.610   5.198   1.243 -0.1265 -0.7691 -0.8411
 7830TIP3   OH244904   3.012   3.411   5.793 -0.2445 -0.0758  0.1202
 7830TIP3    H144905   3.031   3.488   5.846  0.0627 -0.4050  0.4975
 7830TIP3    H244906   2.924   3.384   5.820 -0.5192  0.3749 -0.3046
 7831TIP3   OH244907   3.370   2.941  16.641 -0.1652  0.2768  0.1564
 7831TIP3    H144908   3.357   3.005  16.711 -0.6766  2.4894 -1.8365
 7831TIP3    H244909   3.455   2.963  16.603  0.3231 -1.1941  0.3105
 7832TIP3   OH244910   4.323   5.708   0.043  0.6586 -0.3424  0.0915
 7832TIP3    H144911   4.416   5.701   0.064  0.4340 -0.2673  1.1633
 7832TIP3    H244912   4.280   5.645   0.101  0.2430 -2.2350 -2.0962
 7833TIP3   OH244913   4.970   6.267   1.710  0.3435  0.1925  0.3529
 7833TIP3    H144914   4.894   6.316   1.679 -0.2078 -1.4703 -1.0625
 7833TIP3    H244915   4.950   6.176   1.690  1.7499 -0.5347  2.0181
 7834TIP3   OH244916   4.765   0.034   1.387  0.2358  0.4203  0.4310
 7834TIP3    H144917   4.734   0.107   1.334  0.3076 -0.3278 -0.6707
 7834TIP3    H244918   4.821   0.074   1.453 -0.9641  1.5214  0.8308
 7835TIP3   OH244919   5.224   0.892   2.270  0.1724 -0.2194 -0.1734
 7835TIP3    H144920   5.194   0.943   2.346 -1.5088 -0.1346 -0.8528
 7835TIP3    H244921   5.271   0.818   2.308  1.7489  1.2525  0.8607
 7836TIP3   OH244922   4.301   0.195  13.064 -0.2450 -0.0742 -0.0703
 7836TIP3    H144923   4.285   0.102  13.053 -1.4267  0.0908  0.0933
 7836TIP3    H244924   4.268   0.215  13.151 -1.3782  0.7608 -0.6618
 7837TIP3   OH244925   1.348   1.317   5.726  0.1607 -0.2362  0.0073
 7837TIP3    H144926   1.441   1.331   5.744 -0.0108 -1.1777  1.8103
 7837TIP3    H244927   1.304   1.393   5.762  0.0068 -1.1513  1.8532
 7838TIP3   OH244928   2.759   5.415   3.866  0.2390  0.3282  0.3555
 7838TIP3    H144929   2.698   5.410   3.940  1.7406  1.1254  1.6992
 7838TIP3    H244930   2.757   5.507   3.840 -1.6225 -0.2265 -1.8666
 7839TIP3   OH244931   0.870   0.199   5.724 -0.5205 -0.2995 -0.8778
 7839TIP3    H144932   0.884   0.114   5.766 -0.4543 -0.0647 -0.4104
 7839TIP3    H244933   0.828   0.252   5.792 -1.1217 -0.1426 -1.3595
 7840TIP3   OH244934   1.850   0.130  12.192  0.3775 -0.0806  0.5494
 7840TIP3    H144935   1.917   0.147  12.126  1.2672 -1.3484  1.0811
 7840TIP3    H244936   1.897   0.085  12.262 -0.6137  0.9351  1.9099
 7841TIP3   OH244937   0.893   1.963  12.314  0.0727 -0.1264  0.5265
 7841TIP3    H144938   0.939   2.017  12.250  0.6726 -0.7603  0.4086
 7841TIP3    H244939   0.864   1.886  12.264 -1.0624  0.2217  0.6102
 7842TIP3   OH244940   5.794   3.231   4.230 -0.1560  0.2419  0.5956
 7842TIP3    H144941   5.737   3.215   4.305 -1.5148  1.0561 -0.2190
 7842TIP3    H244942   5.772   3.163   4.167  0.4344  0.0210  0.6179
 7843TIP3   OH244943   2.468   1.448  12.663  0.0622 -0.5458  0.5496
 7843TIP3    H144944   2.399   1.514  12.668 -1.3604 -1.6021 -2.5190
 7843TIP3    H244945   2.453   1.390  12.737 -1.5050  0.0403  0.7130
 7844TIP3   OH244946   1.538   2.763  15.980 -0.2369  0.2006 -0.2980
 7844TIP3    H144947   1.531   2.680  15.931  1.0792  1.0001 -1.9209
 7844TIP3    H244948   1.524   2.831  15.914  0.4346  1.3102  0.6692
 7845TIP3   OH244949   0.946   2.494  15.183  0.1373 -0.1326  0.4500
 7845TIP3    H144950   1.018   2.550  15.153 -0.7150  0.4923 -0.4786
 7845TIP3    H244951   0.943   2.422  15.120 -1.5276  1.0789 -0.9525
 7846TIP3   OH244952   3.990   3.079   1.075  0.4315 -0.1672  0.7906
 7846TIP3    H144953   4.073   3.091   1.028  0.2901 -2.6275 -0.2257
 7846TIP3    H244954   3.923   3.111   1.015  0.5538  1.8326  1.6169
 7847TIP3   OH244955   3.325   1.975  16.782 -0.5293  0.1714 -0.2541
 7847TIP3    H144956   3.324   2.051  16.724 -1.9778  0.4169  0.0555
 7847TIP3    H244957   3.369   1.906  16.732 -0.9336  0.6508 -1.2915
 7848TIP3   OH244958   5.319   2.626  15.181 -0.2692  0.2204 -0.1651
 7848TIP3    H144959   5.347   2.589  15.265  0.2634  2.9789  0.9927
 7848TIP3    H244960   5.392   2.681  15.154 -0.5955 -0.3259 -2.2909
 7849TIP3   OH244961   5.055   2.667   5.210 -0.3218  0.6479  0.0100
 7849TIP3    H144962   5.039   2.704   5.297  0.5439 -0.1513  0.5319
 7849TIP3    H244963   5.031   2.575   5.220 -0.1798  0.5468 -0.6009
 7850TIP3   OH244964   5.195   5.574  15.762  0.0088  0.9745 -0.2035
 7850TIP3    H144965   5.123   5.615  15.810  0.1751  2.5122 -1.2097
 7850TIP3    H244966   5.245   5.529  15.830 -1.1975  0.9198  0.6881
 7851TIP3   OH244967   3.418   3.637   5.907 -0.4729  0.1595 -0.5138
 7851TIP3    H144968   3.450   3.610   5.821  0.2738  0.4987 -0.3488
 7851TIP3    H244969   3.323   3.642   5.897 -0.4345 -0.3525 -1.1589
 7852TIP3   OH244970   0.275   5.607   1.581 -0.4258  0.1126  0.3291
 7852TIP3    H144971   0.307   5.593   1.492  1.0470 -0.7637  0.9668
 7852TIP3    H244972   0.238   5.695   1.580  0.3974  0.4631 -0.9034
 7853TIP3   OH244973   3.167   2.349   1.120 -0.0640 -0.3105  0.2073
 7853TIP3    H144974   3.232   2.280   1.132 -2.3652 -2.5713  0.3818
 7853TIP3    H244975   3.097   2.328   1.182 -1.4142  1.4946 -0.6108
 7854TIP3   OH244976   3.139   4.419   6.791 -0.0014 -0.3251  0.3172
 7854TIP3    H144977   3.234   4.415   6.782  0.1059 -0.5561  1.3632
 7854TIP3    H244978   3.105   4.373   6.715  0.7117  0.1592 -0.3048
 7855TIP3   OH244979   4.684   2.587  15.321 -0.1392  0.0800 -0.2575
 7855TIP3    H144980   4.673   2.682  15.327  0.8821  0.2414 -0.8044
 7855TIP3    H244981   4.672   2.568  15.228 -0.1645 -0.3019 -0.1743
 7856TIP3   OH244982   1.501   5.397  16.543 -0.0901 -0.2840 -0.6068
 7856TIP3    H144983   1.580   5.374  16.494  0.0283 -1.1771 -0.0245
 7856TIP3    H244984   1.476   5.483  16.509  0.6744 -0.3412 -1.3630
 7857TIP3   OH244985   4.391   5.798  12.935 -0.5786 -0.3608  0.1509
 7857TIP3    H144986   4.395   5.706  12.961 -1.1883 -0.2940  0.4961
 7857TIP3    H244987   4.307   5.829  12.968 -0.3586  0.3353  0.0791
 7858TIP3   OH244988   4.560   3.318   3.325  0.2400 -0.5757 -0.1399
 7858TIP3    H144989   4.603   3.401   3.345 -1.7432  0.9882 -1.8513
 7858TIP3    H244990   4.515   3.295   3.407 -0.4459  0.8998 -0.0638
 7859TIP3   OH244991   1.737   1.756  10.980 -0.0018  0.0639 -0.2054
 7859TIP3    H144992   1.750   1.847  11.007  0.1003  0.0599 -0.2420
 7859TIP3    H244993   1.777   1.752  10.893  1.2527 -0.3722  0.3638
 7860TIP3   OH244994   6.245   4.044   2.463  0.1311 -0.0241  0.0952
 7860TIP3    H144995   6.187   4.078   2.395  1.4083  0.1904 -0.9347
 7860TIP3    H244996   6.196   3.973   2.504 -0.4465 -0.5338 -1.4379
 7861TIP3   OH244997   6.201   0.459  12.883  0.7549  0.6061 -0.0683
 7861TIP3    H144998   6.132   0.420  12.937 -0.9006  2.4871 -0.6614
 7861TIP3    H244999   6.239   0.527  12.939  1.4724  0.2396 -0.0946
 7862TIP3   OH245000   3.627   0.497   4.676  0.3158  0.4653 -0.1910
 7862TIP3    H145001   3.531   0.507   4.676  0.0388 -1.6906 -0.4528
 7862TIP3    H245002   3.655   0.544   4.597 -0.6194  0.3974 -0.5849
 7863TIP3   OH245003   3.523   0.787   3.716  0.2036 -0.0179  0.1569
 7863TIP3    H145004   3.552   0.878   3.718 -0.0036  0.0547 -0.0291
 7863TIP3    H245005   3.551   0.754   3.631  1.4328 -0.5246  0.7386
 7864TIP3   OH245006   1.868   6.042   1.827  0.1961  0.1488 -0.2426
 7864TIP3    H145007   1.942   6.029   1.886  0.0214  1.3175  0.2550
 7864TIP3    H245008   1.907   6.041   1.739  0.7662  0.4948  0.0033
 7865TIP3   OH245009   0.496   3.993  16.039 -0.1054 -0.0818 -0.0468
 7865TIP3    H145010   0.582   3.959  16.015 -0.6978 -0.8345 -1.1627
 7865TIP3    H245011   0.512   4.045  16.118  1.1169 -1.4758  0.6643
 7866TIP3   OH245012   0.662   3.482  16.576  0.3747  0.1566  0.2423
 7866TIP3    H145013   0.616   3.481  16.659 -0.2357  1.6756 -0.0533
 7866TIP3    H245014   0.747   3.522  16.596  0.1812  0.6347  0.1253
 7867TIP3   OH245015   5.492   0.664  12.412 -0.1046  0.2076 -0.1648
 7867TIP3    H145016   5.558   0.654  12.343 -1.3579  0.6800 -1.4940
 7867TIP3    H245017   5.463   0.574  12.430  3.3081 -0.4879  3.0437
 7868TIP3   OH245018   5.770   5.204   3.669 -0.6610  0.3667  0.0374
 7868TIP3    H145019   5.741   5.119   3.637  0.3924 -0.1682  0.4823
 7868TIP3    H245020   5.831   5.236   3.603  0.7100 -0.2706  0.9547
 7869TIP3   OH245021   5.574   2.965  12.359 -0.2504  0.5426 -0.0854
 7869TIP3    H145022   5.624   2.980  12.278 -0.4932 -0.8682 -0.5300
 7869TIP3    H245023   5.568   2.870  12.365 -3.8903  0.6076 -0.6741
 7870TIP3   OH245024   4.529   0.274   1.547 -0.1235 -0.1593  0.3595
 7870TIP3    H145025   4.566   0.200   1.595 -2.0606 -1.6083 -0.2698
 7870TIP3    H245026   4.591   0.346   1.563  0.8242 -1.3602  2.5573
 7871TIP3   OH245027   5.899   2.439  12.187  0.7211 -0.1254  0.1146
 7871TIP3    H145028   5.845   2.424  12.264  0.4482  0.7868  0.1120
 7871TIP3    H245029   5.946   2.357  12.174  1.8796  0.1583  2.1115
 7872TIP3   OH245030   1.789   3.495  13.123  0.8366 -0.6743 -0.1855
 7872TIP3    H145031   1.761   3.511  13.213  1.0702 -1.8313  0.1044
 7872TIP3    H245032   1.885   3.496  13.128  0.8494 -0.5975 -0.4528
 7873TIP3   OH245033   0.030   4.816   5.967 -0.0075 -0.7680 -0.1668
 7873TIP3    H145034   0.009   4.726   5.945 -0.2063 -0.1942 -2.5598
 7873TIP3    H245035  -0.021   4.869   5.906 -1.1109  1.0631  2.1754
 7874TIP3   OH245036   0.761   6.010  12.878  0.0347 -0.2135  0.8749
 7874TIP3    H145037   0.715   6.084  12.920  0.9906  0.5750  0.5614
 7874TIP3    H245038   0.691   5.954  12.845 -0.7149  0.9950  0.3613
 7875TIP3   OH245039   2.285   4.667  15.648  0.6568  0.2700  0.7456
 7875TIP3    H145040   2.199   4.644  15.682  0.9593 -1.0115  0.7026
 7875TIP3    H245041   2.274   4.753  15.609 -0.7297 -0.0999  0.2749
 7876TIP3   OH245042   3.338   2.281   5.626  0.4680  0.0109  0.1131
 7876TIP3    H145043   3.323   2.238   5.711  2.0774  1.4414  1.1780
 7876TIP3    H245044   3.354   2.372   5.648  0.1104  0.5887 -1.8453
 7877TIP3   OH245045   0.299   0.681   2.379 -0.4311  0.5307  0.2214
 7877TIP3    H145046   0.367   0.730   2.333 -1.2979  0.7177 -0.9131
 7877TIP3    H245047   0.227   0.743   2.389 -0.5634  0.2454  1.1241
 7878TIP3   OH245048   5.737   4.951   3.603 -0.3846  0.0028 -0.1080
 7878TIP3    H145049   5.816   4.955   3.658 -1.2172  1.1413  1.0534
 7878TIP3    H245050   5.688   4.876   3.637  0.2522 -0.8377 -0.9679
 7879TIP3   OH245051   3.968   4.634  15.100 -0.0288  0.1163 -0.2310
 7879TIP3    H145052   3.988   4.559  15.044 -0.9236 -1.3105  1.2352
 7879TIP3    H245053   4.037   4.634  15.166  0.5911  1.3027 -0.8575
 7880TIP3   OH245054   2.855   0.616  17.229 -0.0220  0.5215  0.1006
 7880TIP3    H145055   2.805   0.660  17.297  0.2000  1.2943 -0.2154
 7880TIP3    H245056   2.944   0.651  17.239  0.5392 -1.0563  0.8482
 7881TIP3   OH245057   0.100   3.811  16.567 -0.3205 -0.6484 -1.0427
 7881TIP3    H145058   0.165   3.861  16.519 -0.1772 -0.5064 -0.7066
 7881TIP3    H245059   0.017   3.830  16.523 -0.0680 -1.2261 -1.7806
 7882TIP3   OH245060   3.113   3.780   5.542 -0.1668 -0.3888  0.5684
 7882TIP3    H145061   3.196   3.739   5.520  0.1491  1.0364 -1.1139
 7882TIP3    H245062   3.086   3.825   5.462 -3.5844 -2.3859  0.3641
 7883TIP3   OH245063   2.441   2.487  16.483 -0.4021 -0.2132 -0.0195
 7883TIP3    H145064   2.521   2.532  16.508 -0.7982 -0.0312  1.0084
 7883TIP3    H245065   2.372   2.552  16.495 -0.7888 -0.6001 -0.1262
 7884TIP3   OH245066   5.178   6.096   6.088 -0.0322 -0.6867 -0.2057
 7884TIP3    H145067   5.221   6.178   6.064 -0.1338 -0.2521  0.9946
 7884TIP3    H245068   5.177   6.098   6.184  1.0138 -2.6365 -0.0972
 7885TIP3   OH245069   3.519   2.742   2.293 -0.2362 -0.5546 -0.3077
 7885TIP3    H145070   3.557   2.679   2.231 -0.8080 -0.9351 -0.2836
 7885TIP3    H245071   3.578   2.817   2.290 -1.1136  0.1304 -2.5693
 7886TIP3   OH245072   0.252   4.330   0.750  0.6219  0.3173  0.3421
 7886TIP3    H145073   0.251   4.332   0.845  1.3462  0.8631  0.3436
 7886TIP3    H245074   0.175   4.380   0.724 -0.4709 -1.1510  0.6364
 7887TIP3   OH245075   5.106   3.235   1.251  0.1146  0.4860  0.3382
 7887TIP3    H145076   5.092   3.244   1.345  2.2171 -0.3544  0.7758
 7887TIP3    H245077   5.032   3.281   1.212 -0.4704  1.4150  2.3939
 7888TIP3   OH245078   3.810   4.334   4.606 -0.1802  0.6596  0.5060
 7888TIP3    H145079   3.734   4.363   4.656  0.6230  1.9626  1.0010
 7888TIP3    H245080   3.839   4.411   4.558  1.5956  0.5596  1.3307
 7889TIP3   OH245081   3.635   1.268   6.429 -0.3605  0.2024 -0.0490
 7889TIP3    H145082   3.582   1.342   6.397 -0.9132 -0.0344  0.3192
 7889TIP3    H245083   3.718   1.308   6.454  0.1255  0.3946 -1.8425
 7890TIP3   OH245084   3.556   2.536  12.841 -0.1743  0.2890 -0.7490
 7890TIP3    H145085   3.563   2.536  12.745 -0.6289  0.0390 -0.7855
 7890TIP3    H245086   3.496   2.464  12.861 -0.2678  0.4886 -0.2896
 7891TIP3   OH245087   3.016   3.788  15.276  0.1163 -0.4888  0.0682
 7891TIP3    H145088   2.929   3.808  15.312 -0.1662 -0.1522 -0.7691
 7891TIP3    H245089   3.073   3.856  15.312 -0.4115  0.6021 -1.0639
 7892TIP3   OH245090   1.851   2.237   2.088  0.3541  0.2831  0.3879
 7892TIP3    H145091   1.839   2.332   2.089 -0.4930  0.2291 -0.8548
 7892TIP3    H245092   1.762   2.203   2.077  0.8185 -0.5415 -1.1584
 7893TIP3   OH245093   4.707   2.341   0.829 -0.2680 -0.2964 -0.0906
 7893TIP3    H145094   4.775   2.380   0.884  0.3963  0.4639 -1.4047
 7893TIP3    H245095   4.752   2.316   0.749 -1.1723 -1.5950 -0.2215
 7894TIP3   OH245096   5.076   2.469  14.922 -0.2607 -0.0927 -0.1717
 7894TIP3    H145097   5.078   2.551  14.872  1.1352  0.2086  0.3325
 7894TIP3    H245098   5.076   2.401  14.855  0.9445  0.3132 -0.6242
 7895TIP3   OH245099   4.409   6.434   1.396 -0.3535  0.0452 -0.0585
 7895TIP3    H145100   4.321   6.429   1.359 -0.0225  1.2184 -1.0969
 7895TIP3    H245101   4.420   6.352   1.443 -1.6982 -0.4766 -0.5911
 7896TIP3   OH245102   5.975   3.956   4.118 -0.1141 -0.3590 -0.8416
 7896TIP3    H145103   5.967   4.030   4.178  0.1167 -0.4609 -0.6847
 7896TIP3    H245104   5.923   3.982   4.041 -0.2002 -0.1220 -0.7037
 7897TIP3   OH245105   4.997   5.487  16.235 -0.2397  0.0545  0.1437
 7897TIP3    H145106   4.954   5.417  16.283 -0.6561  0.7482  0.7905
 7897TIP3    H245107   4.941   5.563  16.246  0.2205  0.5099 -0.5268
 7898TIP3   OH245108   4.168   3.579  13.547  0.2776 -0.2238  0.3527
 7898TIP3    H145109   4.130   3.560  13.461 -2.2371  0.7674  1.1631
 7898TIP3    H245110   4.259   3.550  13.540 -0.3489 -1.8579 -2.0301
 7899TIP3   OH245111   5.032   2.894  12.214 -0.3686  0.4216 -0.3299
 7899TIP3    H145112   4.997   2.807  12.229  0.1899  0.2386 -0.0798
 7899TIP3    H245113   4.957   2.945  12.184 -1.6173  0.8387  3.1303
 7900TIP3   OH245114   2.585   6.701  12.603  0.3476  0.2660 -0.1478
 7900TIP3    H145115   2.674   6.721  12.574  0.8356 -0.7709  0.5757
 7900TIP3    H245116   2.538   6.785  12.597  1.8075  1.2049  1.0448
 7901TIP3   OH245117   2.722   2.478  15.663 -0.2753 -0.2093  0.3826
 7901TIP3    H145118   2.714   2.417  15.590  1.2438 -1.9815  1.5907
 7901TIP3    H245119   2.713   2.423  15.741 -1.3072  1.5321  1.5547
 7902TIP3   OH245120   2.333   5.115   1.772  0.1589 -0.2696  0.4969
 7902TIP3    H145121   2.416   5.116   1.819 -0.9429 -0.5485  2.6006
 7902TIP3    H245122   2.334   5.033   1.722  1.3067 -0.0575  0.1586
 7903TIP3   OH245123   3.958   1.648   0.873 -0.1835  0.4233 -0.0879
 7903TIP3    H145124   3.964   1.703   0.795 -0.3651  0.4915 -0.0543
 7903TIP3    H245125   3.864   1.630   0.883 -0.2442  1.0291  0.5353
 7904TIP3   OH245126   3.009   0.033  13.812  0.2086 -0.5476  0.2234
 7904TIP3    H145127   2.993   0.072  13.726  0.2473 -0.2023  0.3690
 7904TIP3    H245128   3.020  -0.060  13.794  1.8930 -0.2725 -0.3666
 7905TIP3   OH245129   5.498   1.352  13.732  0.3288 -0.6757  0.4122
 7905TIP3    H145130   5.549   1.310  13.800  1.3927  0.3613  0.2975
 7905TIP3    H245131   5.513   1.299  13.654  0.8375 -0.6659  0.5002
 7906TIP3   OH245132   5.446   1.312   1.942  0.0601  0.0801 -0.2467
 7906TIP3    H145133   5.413   1.377   2.004 -0.3992 -1.0419  0.7353
 7906TIP3    H245134   5.369   1.258   1.922  0.4057 -0.0919 -1.1321
 7907TIP3   OH245135   2.240   3.815   0.727 -0.0781 -0.3309 -0.3187
 7907TIP3    H145136   2.276   3.872   0.795  0.7353 -0.8954 -0.2578
 7907TIP3    H245137   2.243   3.866   0.647  0.5961 -0.2667 -0.2543
 7908TIP3   OH245138   3.685   3.933  12.587 -0.0871  0.4565  0.5860
 7908TIP3    H145139   3.609   3.901  12.635  0.6792 -2.2729  0.1594
 7908TIP3    H245140   3.761   3.895  12.632  0.8693  0.9683 -0.5087
 7909TIP3   OH245141   4.099   5.212   5.544 -0.0400  0.4115  0.1104
 7909TIP3    H145142   4.089   5.126   5.586 -1.8451  0.0275 -0.9482
 7909TIP3    H245143   4.092   5.193   5.450  1.3722  1.5324 -0.2559
 7910TIP3   OH245144   4.689   3.944   4.374 -0.0513  0.8644 -0.3120
 7910TIP3    H145145   4.603   3.966   4.338 -0.5556 -0.1534  0.2437
 7910TIP3    H245146   4.673   3.931   4.467  0.3593 -1.0453 -0.4810
 7911TIP3   OH245147   6.310   2.013  14.331 -0.2283 -0.4007  0.5048
 7911TIP3    H145148   6.264   2.089  14.295 -0.2894  0.3075  1.9707
 7911TIP3    H245149   6.244   1.968  14.384 -1.0378 -3.2192 -2.5795
 7912TIP3   OH245150   6.640   5.740  14.585  0.1404  0.4371 -0.3942
 7912TIP3    H145151   6.590   5.821  14.580  2.2611  1.8197 -0.8838
 7912TIP3    H245152   6.665   5.733  14.677  0.9323  1.0148 -0.5521
 7913TIP3   OH245153   1.080   6.359  11.686 -0.3787 -0.4185 -0.1546
 7913TIP3    H145154   1.088   6.425  11.754  0.5449  1.0440 -1.6011
 7913TIP3    H245155   1.002   6.386  11.637 -0.3512 -0.7585 -0.3852
 7914TIP3   OH245156   4.388   3.188   0.587 -0.3065 -0.5817  0.4124
 7914TIP3    H145157   4.321   3.123   0.605 -0.3531 -0.5037  0.5204
 7914TIP3    H245158   4.397   3.188   0.491  0.0820 -1.1356  0.4450
 7915TIP3   OH245159   2.346   2.307  16.879 -0.5534 -0.0705  0.9877
 7915TIP3    H145160   2.283   2.378  16.890  1.9773  2.4348  0.3974
 7915TIP3    H245161   2.367   2.307  16.786 -0.5922 -1.7506  0.9434
 7916TIP3   OH245162   3.725   1.902  13.797 -0.1464 -0.1949 -0.2323
 7916TIP3    H145163   3.677   1.827  13.834  1.4357 -2.1890 -1.9296
 7916TIP3    H245164   3.657   1.961  13.765 -1.4745 -1.2293  0.5739
 7917TIP3   OH245165   3.098   3.239  13.977 -0.0550 -0.0695  0.2477
 7917TIP3    H145166   3.127   3.201  14.060  0.0710  0.0338  0.2499
 7917TIP3    H245167   3.147   3.321  13.969  2.8201 -1.8166 -1.7514
 7918TIP3   OH245168   6.593   5.000  12.662 -0.1672 -0.1021 -0.3611
 7918TIP3    H145169   6.552   5.084  12.682 -0.4152 -0.8047  2.5006
 7918TIP3    H245170   6.684   5.022  12.642 -0.6455  0.9845 -1.4153
 7919TIP3   OH245171   5.237   1.329   5.213 -0.3551 -0.1646  0.0511
 7919TIP3    H145172   5.291   1.377   5.150 -1.6276 -0.9205 -1.7179
 7919TIP3    H245173   5.294   1.259   5.245  0.5131  0.6014  0.2281
 7920TIP3   OH245174   3.347   2.676  13.211 -0.0603 -0.1556  0.4344
 7920TIP3    H145175   3.319   2.617  13.281 -0.4442 -0.3786  0.0917
 7920TIP3    H245176   3.302   2.644  13.133  0.0811  0.3189  0.1578
 7921TIP3   OH245177   5.845   1.586  10.550 -0.4736 -0.0899 -0.0664
 7921TIP3    H145178   5.814   1.677  10.547 -0.4418 -0.0822 -0.1742
 7921TIP3    H245179   5.789   1.540  10.488 -0.9596 -0.2902  0.5137
 7922TIP3   OH245180   1.520   3.798  13.173  0.0206  0.0617  0.3169
 7922TIP3    H145181   1.585   3.814  13.242 -0.8793 -0.3946  1.2987
 7922TIP3    H245182   1.568   3.809  13.091  2.0966 -3.1577  0.9604
 7923TIP3   OH245183   4.439   1.058   4.384 -0.0980  0.8202  0.0977
 7923TIP3    H145184   4.472   1.141   4.350  0.9292  0.0559 -0.8896
 7923TIP3    H245185   4.376   1.082   4.451  0.8994  2.3869  0.5176
 7924TIP3   OH245186   4.378   0.751  15.086 -0.0191 -0.3226  0.3244
 7924TIP3    H145187   4.423   0.738  15.002  1.9469  0.3396  1.2035
 7924TIP3    H245188   4.448   0.749  15.151 -1.2414  0.9954  1.7832
 7925TIP3   OH245189   5.757   6.184   1.100  0.2557 -0.0790 -0.1872
 7925TIP3    H145190   5.801   6.264   1.127 -1.5971  1.0464 -0.3095
 7925TIP3    H245191   5.737   6.138   1.181  1.0884 -0.3033 -0.1031
 7926TIP3   OH245192   0.983   3.262  12.047 -0.7230 -0.5113 -0.1648
 7926TIP3    H145193   0.981   3.331  12.114  0.4991 -0.7608  0.1505
 7926TIP3    H245194   1.016   3.185  12.093 -1.6784 -1.2138 -0.6197
 7927TIP3   OH245195   4.803   2.742   2.837 -0.0896  0.8730 -0.4365
 7927TIP3    H145196   4.776   2.664   2.886  2.0027  0.2328 -0.2042
 7927TIP3    H245197   4.775   2.725   2.748  1.8771 -1.0504 -0.7747
 7928TIP3   OH245198   6.623   3.207   6.054 -0.7309  0.3000  0.0422
 7928TIP3    H145199   6.608   3.135   5.992 -0.4085 -0.0566  0.3752
 7928TIP3    H245200   6.696   3.255   6.016  0.3537 -0.6852  0.7927
 7929TIP3   OH245201   5.264   3.892   1.500 -0.4245 -0.2183 -0.6869
 7929TIP3    H145202   5.253   3.797   1.509  1.4101 -0.5397 -1.3315
 7929TIP3    H245203   5.218   3.914   1.419  0.4598 -0.8440 -1.3723
 7930TIP3   OH245204   3.622   3.605   6.356 -0.6277 -0.1499  0.2761
 7930TIP3    H145205   3.549   3.544   6.358 -0.8342 -0.1114 -2.5819
 7930TIP3    H245206   3.698   3.551   6.332  0.4450 -0.2205  3.3207
 7931TIP3   OH245207   1.942   6.175  16.741  0.3829 -0.1515 -0.0882
 7931TIP3    H145208   1.855   6.177  16.703  0.7022  1.0486 -0.8098
 7931TIP3    H245209   1.999   6.211  16.673  1.2783  0.0873  0.7619
 7932TIP3   OH245210   4.486   4.566   3.864 -0.2497  0.4914  0.0977
 7932TIP3    H145211   4.522   4.638   3.915  1.2260 -0.3030  0.2276
 7932TIP3    H245212   4.440   4.512   3.929 -0.6252  0.8407  0.1331
 7933TIP3   OH245213   2.072   1.347   4.299  0.2993 -0.1124  0.3823
 7933TIP3    H145214   1.998   1.387   4.344 -0.5803 -0.5434 -0.6085
 7933TIP3    H245215   2.144   1.408   4.311 -0.5583  0.9515  0.3170
 7934TIP3   OH245216   0.842   6.756   0.955  0.4952 -0.0281  0.2888
 7934TIP3    H145217   0.890   6.829   0.915  0.2526  0.6063  1.1345
 7934TIP3    H245218   0.907   6.686   0.963  0.7891  0.1725 -0.3156
 7935TIP3   OH245219   1.925   1.761  14.231 -0.2985 -0.2787  0.6376
 7935TIP3    H145220   2.002   1.731  14.183  1.1303  1.9581  1.3657
 7935TIP3    H245221   1.859   1.776  14.164 -0.2180 -2.4461  0.0189
 7936TIP3   OH245222   5.249   5.714  13.474 -0.3517  0.1259 -0.1557
 7936TIP3    H145223   5.304   5.636  13.472 -0.0244  0.3549 -0.2368
 7936TIP3    H245224   5.252   5.748  13.385 -2.9791 -1.4603 -0.9349
 7937TIP3   OH245225   1.139   3.247  17.003  0.6920  0.1030 -0.4851
 7937TIP3    H145226   1.062   3.303  16.993  0.1097 -0.6566 -0.2740
 7937TIP3    H245227   1.129   3.207  17.089 -0.1998 -2.2349 -1.5756
 7938TIP3   OH245228   3.722   5.753   1.911  0.4130  0.2564  0.1824
 7938TIP3    H145229   3.813   5.723   1.917  0.4205  0.5638  3.3580
 7938TIP3    H245230   3.674   5.697   1.972 -1.2901  0.9282 -0.4854
 7939TIP3   OH245231   4.233   2.375   2.423  0.0395 -0.8807  0.0159
 7939TIP3    H145232   4.280   2.427   2.489 -1.7480 -0.8912  1.3832
 7939TIP3    H245233   4.190   2.441   2.368 -0.6110 -0.8762  0.5185
 7940TIP3   OH245234   2.704   0.438  13.514 -0.0161  0.3597  0.2472
 7940TIP3    H145235   2.739   0.511  13.463 -2.2631  0.7470 -0.8634
 7940TIP3    H245236   2.691   0.368  13.450  2.7276 -1.3425  1.4063
 7941TIP3   OH245237   4.382   5.601   2.342  0.1480  0.1783  0.2243
 7941TIP3    H145238   4.473   5.623   2.363  0.7019 -0.2650 -1.5621
 7941TIP3    H245239   4.337   5.685   2.336  0.5343  0.4207  0.6585
 7942TIP3   OH245240   0.543   1.185  17.203 -0.2410  0.2668  0.1011
 7942TIP3    H145241   0.541   1.274  17.168  0.7835 -0.0692 -0.8874
 7942TIP3    H245242   0.537   1.129  17.126  0.2149 -0.5111  0.6200
 7943TIP3   OH245243   0.379   3.689   0.797 -0.1345  0.0086 -0.8711
 7943TIP3    H145244   0.422   3.734   0.724  1.9189 -0.1704  0.1878
 7943TIP3    H245245   0.377   3.753   0.868 -2.1443  0.1875 -1.0223
 7944TIP3   OH245246   4.471   1.818   0.697  0.4031 -0.0603  0.0837
 7944TIP3    H145247   4.473   1.777   0.784 -2.6309  0.4723  0.5107
 7944TIP3    H245248   4.403   1.770   0.649  1.8952 -0.2203 -1.9962
 7945TIP3   OH245249   6.097   6.746   4.205  0.0347  0.0322  0.3578
 7945TIP3    H145250   6.022   6.766   4.261  0.0275 -1.2499  0.8329
 7945TIP3    H245251   6.061   6.746   4.116 -0.5771 -0.7029  0.5886
 7946TIP3   OH245252   3.268   3.160  16.934 -0.0354  0.4240  1.0233
 7946TIP3    H145253   3.188   3.137  16.981 -0.1203 -0.3088  0.5349
 7946TIP3    H245254   3.330   3.090  16.954  0.0240  0.2556  0.2864
 7947TIP3   OH245255   3.454   2.954  13.946  0.1082  0.2509  1.0732
 7947TIP3    H145256   3.359   2.947  13.962  0.2772  0.4049  2.2408
 7947TIP3    H245257   3.462   3.020  13.877 -0.8368 -2.4954 -1.9113
 7948TIP3   OH245258   2.633   1.351   3.722  0.0992 -0.6328 -0.1655
 7948TIP3    H145259   2.594   1.287   3.663  0.3133 -1.4726  0.5778
 7948TIP3    H245260   2.678   1.413   3.664 -0.7197 -0.7290 -0.9304
 7949TIP3   OH245261   1.560   4.154   4.046 -0.2673 -0.0083 -0.2302
 7949TIP3    H145262   1.624   4.082   4.046  0.6666  0.7901  0.5327
 7949TIP3    H245263   1.595   4.217   3.983 -2.5888 -1.4305 -3.1868
 7950TIP3   OH245264   3.907   0.354   5.826  0.0059 -0.8799  0.1022
 7950TIP3    H145265   3.984   0.354   5.883 -1.2068 -3.3700  1.9371
 7950TIP3    H245266   3.876   0.444   5.827  0.3821 -0.6935  2.9835
 7951TIP3   OH245267   3.909   6.058  13.527 -0.1554 -0.7294  0.2082
 7951TIP3    H145268   3.963   5.981  13.511 -2.1333 -2.4193  1.1608
 7951TIP3    H245269   3.847   6.030  13.595 -2.3999  0.9682 -1.0061
 7952TIP3   OH245270   3.509   4.755   4.150  0.3964  0.4107 -0.1530
 7952TIP3    H145271   3.494   4.664   4.123 -0.1968  0.0461  1.3089
 7952TIP3    H245272   3.433   4.803   4.118  0.0562  0.1236  0.2093
 7953TIP3   OH245273   0.801   5.446   4.774 -0.1033  0.1051  0.0143
 7953TIP3    H145274   0.764   5.378   4.719  0.0031  0.8174 -0.9624
 7953TIP3    H245275   0.893   5.422   4.784  0.5560  1.3491 -2.3823
 7954TIP3   OH245276   6.213   5.109   6.148 -0.2747 -0.3120  0.7477
 7954TIP3    H145277   6.218   5.014   6.156  1.0585 -0.2090  1.2395
 7954TIP3    H245278   6.125   5.125   6.112 -0.5769 -1.7052  0.8181
 7955TIP3   OH245279   1.099   2.435   2.173 -0.3693  0.1501  0.2355
 7955TIP3    H145280   1.092   2.351   2.127  1.1866 -0.4464  1.0105
 7955TIP3    H245281   1.108   2.500   2.103  3.7092 -0.8999 -0.4711
 7956TIP3   OH245282   4.702   5.050   2.666  0.5449 -0.1446 -0.5402
 7956TIP3    H145283   4.796   5.043   2.681  0.3315 -1.2820  0.4189
 7956TIP3    H245284   4.690   5.017   2.577  0.9608 -0.8940 -0.3324
 7957TIP3   OH245285   4.485   1.918  14.468  0.8372 -0.0702  0.2211
 7957TIP3    H145286   4.489   2.014  14.468 -0.5165  0.0078 -0.0865
 7957TIP3    H245287   4.448   1.895  14.383 -1.6406 -0.6853  1.3764
 7958TIP3   OH245288   6.063   2.921   5.875 -0.0919 -0.7228 -0.0452
 7958TIP3    H145289   6.114   2.984   5.824  0.5391 -1.6937 -0.6734
 7958TIP3    H245290   6.038   2.854   5.811  0.7158 -1.9804  0.8906
 7959TIP3   OH245291   4.562   6.763   5.941  0.4535  0.0563 -0.5440
 7959TIP3    H145292   4.585   6.761   6.034 -0.9509  0.6123 -0.1681
 7959TIP3    H245293   4.539   6.854   5.924  0.5185 -0.0785 -1.4042
 7960TIP3   OH245294   4.361   2.309   4.316  0.3743 -0.5744  0.2443
 7960TIP3    H145295   4.388   2.242   4.252  0.0842 -1.3724  0.9361
 7960TIP3    H245296   4.274   2.336   4.287  0.3133 -0.8095  0.2066
 7961TIP3   OH245297   2.398   4.651   2.549  0.4286 -0.3026 -0.3473
 7961TIP3    H145298   2.458   4.624   2.480  0.1877  0.9771 -1.0769
 7961TIP3    H245299   2.312   4.652   2.508  0.1613 -0.3222  0.1975
 7962TIP3   OH245300   3.669   4.337   2.412 -0.2563 -0.0844 -0.0896
 7962TIP3    H145301   3.755   4.361   2.445 -0.3420  0.3477 -0.1836
 7962TIP3    H245302   3.687   4.275   2.341 -0.0578 -0.7461  0.5203
 7963TIP3   OH245303   0.061   3.526  15.042  0.1630  0.0658 -0.2128
 7963TIP3    H145304   0.043   3.477  15.123 -0.9813  0.6843 -0.0738
 7963TIP3    H245305   0.110   3.603  15.071  0.1806  0.0428 -0.1812
 7964TIP3   OH245306   5.303   6.561  11.867  0.9426 -0.1966  0.1521
 7964TIP3    H145307   5.303   6.468  11.890 -1.3430  0.0744  1.5697
 7964TIP3    H245308   5.392   6.591  11.886  1.3854 -1.8468  0.8123
 7965TIP3   OH245309   4.479   4.518   6.476 -0.3909 -0.2396  0.5738
 7965TIP3    H145310   4.390   4.530   6.444 -0.6401 -0.4594  1.1721
 7965TIP3    H245311   4.505   4.604   6.508 -0.4811 -0.2356  0.6353
 7966TIP3   OH245312   3.718   3.651  14.902 -0.6947 -0.7178  0.1594
 7966TIP3    H145313   3.699   3.581  14.964 -2.5516 -0.5180 -0.1125
 7966TIP3    H245314   3.702   3.731  14.951 -0.7057 -0.5292 -0.1486
 7967TIP3   OH245315   6.474   0.115  15.076  0.1051 -0.3594 -0.8112
 7967TIP3    H145316   6.497   0.102  15.168 -2.5924 -1.2930 -0.1581
 7967TIP3    H245317   6.532   0.185  15.046 -0.2467  1.4035  2.1954
 7968TIP3   OH245318   2.577   4.313   0.758  0.5533 -0.1089  0.4290
 7968TIP3    H145319   2.605   4.301   0.667 -0.2568 -0.2607  0.1932
 7968TIP3    H245320   2.597   4.230   0.800 -1.1855 -0.9089 -0.1896
 7969TIP3   OH245321   1.541   5.789   3.135  0.0053 -0.2763 -0.2217
 7969TIP3    H145322   1.467   5.732   3.155  0.6476 -0.7873  0.7500
 7969TIP3    H245323   1.593   5.792   3.215  1.0513  0.0686 -0.8820
 7970TIP3   OH245324   4.676   0.999   4.939  0.2214  0.4839 -0.4993
 7970TIP3    H145325   4.618   1.000   4.862  0.0834  0.2457 -0.3994
 7970TIP3    H245326   4.746   0.938   4.916  0.8350  1.3204 -0.9066
 7971TIP3   OH245327   3.020   5.355  14.924  0.3086  0.2724 -0.1731
 7971TIP3    H145328   3.083   5.356  14.853  0.9080  1.8238  0.3309
 7971TIP3    H245329   3.021   5.445  14.958 -0.9606 -0.0865  0.9076
 7972TIP3   OH245330   5.808   6.676   1.761 -0.5039  0.3384 -0.0012
 7972TIP3    H145331   5.864   6.712   1.829 -1.3639  0.6186  0.5698
 7972TIP3    H245332   5.869   6.641   1.696  0.3300  0.8959  0.4639
 7973TIP3   OH245333   3.192   0.114  15.174  0.1930 -0.3130 -0.2275
 7973TIP3    H145334   3.197   0.059  15.095 -1.6788 -1.6780  0.5348
 7973TIP3    H245335   3.099   0.112  15.198  0.4712  1.4094  1.1082
 7974TIP3   OH245336   2.520   0.493  14.820  0.3256  0.1310 -0.1209
 7974TIP3    H145337   2.431   0.486  14.787  0.5883  0.2157 -0.8636
 7974TIP3    H245338   2.557   0.568  14.773  1.4275 -1.1241 -1.3359
 7975TIP3   OH245339   2.005   1.231   5.179 -0.3795  0.3579 -0.2674
 7975TIP3    H145340   1.934   1.186   5.225 -0.0433 -1.1337 -1.1394
 7975TIP3    H245341   2.062   1.161   5.148  1.5960  1.5385  0.5550
 7976TIP3   OH245342   1.567   0.021  17.372 -0.1731 -0.0316 -0.4925
 7976TIP3    H145343   1.596  -0.055  17.422 -0.7531  0.3622  0.4682
 7976TIP3    H245344   1.475   0.003  17.351 -0.0871  0.0468 -0.9421
 7977TIP3   OH245345   6.641   4.206   3.349 -0.1603 -0.0874 -0.2508
 7977TIP3    H145346   6.612   4.215   3.259 -0.3105 -0.2416 -0.2193
 7977TIP3    H245347   6.733   4.181   3.342 -0.6341 -1.9801 -0.4221
 7978TIP3   OH245348   1.085   6.434   2.000 -0.0896 -0.7792 -0.4863
 7978TIP3    H145349   1.085   6.413   2.094  1.1729 -0.8739 -0.4825
 7978TIP3    H245350   1.170   6.475   1.985 -0.4797 -0.3156 -1.5000
 7979TIP3   OH245351   5.681   6.505  16.320 -0.0064  0.2692  1.0790
 7979TIP3    H145352   5.601   6.455  16.304 -0.9707  2.1384 -0.4082
 7979TIP3    H245353   5.748   6.460  16.269 -0.3367 -0.7119  1.4918
 7980TIP3   OH245354   2.440   2.107   2.847 -0.3062 -0.8302  0.1429
 7980TIP3    H145355   2.442   2.194   2.807  1.0847  0.7327  3.2982
 7980TIP3    H245356   2.510   2.059   2.803 -0.5456 -0.1193 -1.0720
 7981TIP3   OH245357   0.708   5.443  15.622 -0.1627 -0.1150 -0.6087
 7981TIP3    H145358   0.696   5.349  15.633  0.6667 -0.0094  1.9161
 7981TIP3    H245359   0.724   5.455  15.528 -1.5664 -2.2987 -1.1799
 7982TIP3   OH245360   3.929   4.195  15.945 -0.2126  0.5375 -0.1546
 7982TIP3    H145361   3.904   4.274  15.993 -0.0055  0.6417 -0.2156
 7982TIP3    H245362   3.867   4.128  15.974  1.1142  0.0460  1.8169
 7983TIP3   OH245363   0.587   1.386   3.243 -0.2045 -0.1058 -0.1166
 7983TIP3    H145364   0.501   1.377   3.202 -0.1762 -0.2320 -0.1460
 7983TIP3    H245365   0.627   1.300   3.235  0.0263  0.0223 -0.3247
 7984TIP3   OH245366   6.741   2.582   6.037  0.0156 -0.6774 -0.7030
 7984TIP3    H145367   6.752   2.659   6.093  2.4596 -1.5770  0.1761
 7984TIP3    H245368   6.689   2.614   5.963  1.2277  1.9248 -0.5498
 7985TIP3   OH245369   3.321   0.109  15.844 -0.5007 -0.8606  1.0104
 7985TIP3    H145370   3.321   0.029  15.791 -0.2941 -0.6674  0.7199
 7985TIP3    H245371   3.246   0.159  15.811 -1.0233 -1.2148  1.6227
 7986TIP3   OH245372   1.219   1.948  10.943 -0.4275 -0.0502 -0.1779
 7986TIP3    H145373   1.124   1.947  10.947 -0.6932 -1.3537 -3.4518
 7986TIP3    H245374   1.242   2.036  10.915 -0.8086 -0.0934 -0.6433
 7987TIP3   OH245375   4.451   6.216   1.865  0.0214  0.8721  0.6366
 7987TIP3    H145376   4.407   6.301   1.862 -0.4006  0.6499  0.4698
 7987TIP3    H245377   4.388   6.155   1.826  0.3964  0.5159  0.5826
 7988TIP3   OH245378   3.585   6.680   5.738 -0.1216 -0.1293  0.2015
 7988TIP3    H145379   3.568   6.594   5.699 -0.5197 -0.4702  1.1085
 7988TIP3    H245380   3.619   6.733   5.666 -1.3752 -0.5773 -0.7446
 7989TIP3   OH245381   5.355   0.000  11.229 -0.6482  0.0022 -0.0282
 7989TIP3    H145382   5.277  -0.039  11.188  0.0625 -0.7437 -0.7104
 7989TIP3    H245383   5.417   0.011  11.157  0.1777 -0.1603  0.6402
 7990TIP3   OH245384   3.560   0.391   6.167 -0.1025 -0.0604  0.4100
 7990TIP3    H145385   3.543   0.339   6.246  0.9766  0.8766  1.3049
 7990TIP3    H245386   3.645   0.431   6.183  0.2396 -0.0266 -1.3543
 7991TIP3   OH245387   1.062   3.680  11.405  0.0449  0.5233  0.4626
 7991TIP3    H145388   1.145   3.726  11.398  0.1551  0.1007 -1.8606
 7991TIP3    H245389   1.040   3.656  11.315 -0.3075 -3.4293  1.4245
 7992TIP3   OH245390   1.983   6.193   5.517 -1.3245 -0.0024 -0.1588
 7992TIP3    H145391   1.984   6.130   5.445 -2.1676  0.1757 -0.3328
 7992TIP3    H245392   1.928   6.265   5.486 -2.3992 -0.2949  0.9643
 7993TIP3   OH245393   4.736   3.907  17.233  0.1602  0.0896  0.0079
 7993TIP3    H145394   4.827   3.930  17.214  1.0437 -0.5933  2.8104
 7993TIP3    H245395   4.685   3.951  17.165  2.4305  2.2172 -0.4793
 7994TIP3   OH245396   1.796   3.654   1.972 -0.0492 -0.0475  0.3642
 7994TIP3    H145397   1.858   3.706   2.023  0.9390 -0.9001  0.0850
 7994TIP3    H245398   1.836   3.649   1.885 -0.2008 -1.1064  0.3444
 7995TIP3   OH245399   0.763   1.237  12.357 -0.2631  0.7807  0.3992
 7995TIP3    H145400   0.827   1.192  12.413 -1.5669  0.5086  1.7234
 7995TIP3    H245401   0.681   1.232  12.405 -1.4250  0.6806 -1.4900
 7996TIP3   OH245402   4.998   1.201   0.922 -0.0952  0.3199  0.6063
 7996TIP3    H145403   4.937   1.141   0.879  0.6595 -0.4746  0.6043
 7996TIP3    H245404   4.953   1.228   1.002 -0.1605 -0.8574  0.9864
 7997TIP3   OH245405   6.434   1.681   5.296 -0.0717  0.2542  0.0558
 7997TIP3    H145406   6.458   1.772   5.280 -0.7039  0.5009  0.4920
 7997TIP3    H245407   6.393   1.681   5.382  0.7082 -0.5874  0.4536
 7998TIP3   OH245408   6.585   5.067   0.867 -0.4229 -0.0650  0.2104
 7998TIP3    H145409   6.649   5.009   0.908 -0.5965  0.3088  1.0272
 7998TIP3    H245410   6.638   5.142   0.837  0.1585 -1.5446 -2.7820
 7999TIP3   OH245411   2.826   0.308   2.885  0.5243 -0.0691  0.0877
 7999TIP3    H145412   2.765   0.375   2.916 -0.9453 -1.6366  0.7377
 7999TIP3    H245413   2.912   0.348   2.893 -0.4217  2.7118 -2.1084
 8000TIP3   OH245414   3.446   5.546   2.053  0.3580  0.9864  0.2455
 8000TIP3    H145415   3.534   5.521   2.079  0.3249  1.5702  0.9525
 8000TIP3    H245416   3.390   5.477   2.089  0.6268 -0.1946 -1.4669
 8001TIP3   OH245417   1.174   1.640   2.744  0.7427  0.6946  0.1901
 8001TIP3    H145418   1.080   1.637   2.762  0.5597  1.7468 -0.4833
 8001TIP3    H245419   1.187   1.574   2.676  0.5201  0.4168  0.4156
 8002TIP3   OH245420   1.063   6.041  12.873  0.1230  0.3428  0.1272
 8002TIP3    H145421   1.002   6.025  12.945 -0.2623  2.1077  0.2419
 8002TIP3    H245422   1.024   5.995  12.798 -1.7570  1.9525  0.0323
 8003TIP3   OH245423   1.851   2.082  14.638 -0.2217 -0.2814 -0.3840
 8003TIP3    H145424   1.785   2.019  14.609 -0.8133 -0.1979  0.7233
 8003TIP3    H245425   1.873   2.132  14.560  0.3246 -1.8941 -1.3199
 8004TIP3   OH245426   0.234   4.053  15.991  0.1706 -0.6483 -0.1845
 8004TIP3    H145427   0.213   4.121  16.055 -0.2507 -1.5135  0.6298
 8004TIP3    H245428   0.324   4.029  16.011  0.3127 -0.3555 -0.4595
 8005TIP3   OH245429   3.882   5.225   1.738 -0.0998  0.0058 -0.3806
 8005TIP3    H145430   3.932   5.148   1.763  0.1675  0.8831  2.1504
 8005TIP3    H245431   3.859   5.267   1.821 -0.1995  2.6689 -1.6292
 8006TIP3   OH245432   5.895   1.044  13.690  0.0722 -0.3527  0.2470
 8006TIP3    H145433   5.850   1.019  13.770 -0.1480  1.0013  0.5796
 8006TIP3    H245434   5.831   1.030  13.620 -0.1510 -0.4098  0.4641
 8007TIP3   OH245435   4.521   4.524  15.526  0.8502 -0.7007 -0.4248
 8007TIP3    H145436   4.473   4.600  15.558  4.5981  1.5014  0.5513
 8007TIP3    H245437   4.495   4.515  15.434  0.5270  1.9715 -0.6588
 8008TIP3   OH245438   0.874   2.419   3.356  0.4666  0.6530 -0.1725
 8008TIP3    H145439   0.872   2.395   3.263  0.5695  1.8255 -0.4864
 8008TIP3    H245440   0.916   2.505   3.358 -0.9394  1.3695  0.7916
 8009TIP3   OH245441   5.821   4.994  12.893  0.4325 -0.0750  0.0445
 8009TIP3    H145442   5.785   4.944  12.819 -0.4270 -1.6408  1.4526
 8009TIP3    H245443   5.801   5.085  12.871 -1.4615 -0.6397 -0.8158
 8010TIP3   OH245444   0.565   1.643   4.044  0.3218 -0.7382 -0.1088
 8010TIP3    H145445   0.545   1.597   4.125 -0.4464  0.1413  0.2126
 8010TIP3    H245446   0.536   1.582   3.975  1.1093 -1.5457  0.2571
 8011TIP3   OH245447   2.336   3.311   3.707 -0.3267  0.6825  0.0759
 8011TIP3    H145448   2.243   3.289   3.713 -0.4087  0.9879 -0.0692
 8011TIP3    H245449   2.349   3.378   3.773  0.2586 -0.8586  1.6072
 8012TIP3   OH245450   4.407   1.064  16.402  0.0140  0.0015 -0.2338
 8012TIP3    H145451   4.451   1.128  16.459 -1.7854  0.1002  1.1587
 8012TIP3    H245452   4.326   1.042  16.449  0.0778 -2.5578 -1.1575
 8013TIP3   OH245453   2.100   0.624  12.600  0.2157 -0.0790 -0.3698
 8013TIP3    H145454   2.061   0.628  12.688 -0.3074  1.9787 -0.6377
 8013TIP3    H245455   2.070   0.704  12.557  2.0892 -0.0438 -1.7387
 8014TIP3   OH245456   0.410   2.302   6.344  0.6318 -0.0103 -0.1148
 8014TIP3    H145457   0.339   2.292   6.280 -0.1904  0.4493  0.7146
 8014TIP3    H245458   0.468   2.228   6.326  0.1436 -0.1894 -1.0472
 8015TIP3   OH245459   3.921   2.949  11.748  0.2873 -0.1826 -0.0932
 8015TIP3    H145460   3.852   2.987  11.803  0.5192 -0.7831  0.6326
 8015TIP3    H245461   3.875   2.916  11.671 -0.3475 -1.1802  0.6918
 8016TIP3   OH245462   1.243   5.936   3.587  0.6252  0.4494  0.0103
 8016TIP3    H145463   1.272   5.868   3.526  0.4557  1.2802 -1.0296
 8016TIP3    H245464   1.158   5.965   3.552  0.3197  0.6582  0.8889
 8017TIP3   OH245465   3.322   6.213   2.082 -0.7518  0.0566  0.2388
 8017TIP3    H145466   3.263   6.269   2.133  0.1391  0.9862  0.2705
 8017TIP3    H245467   3.282   6.210   1.995 -1.1240  0.2355  0.3983
 8018TIP3   OH245468   1.853   6.309   6.010  0.1144  0.3560 -0.4704
 8018TIP3    H145469   1.772   6.279   6.052  0.2791  1.0827  0.4005
 8018TIP3    H245470   1.920   6.248   6.041 -0.0413 -0.0691 -0.9587
 8019TIP3   OH245471   1.562   6.330  12.782  0.5630 -0.2389 -0.2188
 8019TIP3    H145472   1.502   6.325  12.707 -0.3288  2.4023  0.2022
 8019TIP3    H245473   1.540   6.254  12.835 -1.7469  0.0642 -0.6128
 8020TIP3   OH245474   2.113   0.869   3.376 -0.3927 -0.0916  0.2683
 8020TIP3    H145475   2.154   0.857   3.462  1.5726 -0.9188 -0.7205
 8020TIP3    H245476   2.080   0.959   3.377  0.4158  0.2144  1.5610
 8021TIP3   OH245477   6.099   0.053  13.248 -0.0532  0.1251 -0.7329
 8021TIP3    H145478   6.021   0.076  13.297 -1.3900 -1.1164 -2.1717
 8021TIP3    H245479   6.171   0.065  13.310 -1.3714  1.1963  0.6592
 8022TIP3   OH245480   3.774   0.629   2.802 -0.3639 -0.2098 -0.2292
 8022TIP3    H145481   3.701   0.592   2.753 -0.7779 -1.1051  0.9988
 8022TIP3    H245482   3.734   0.692   2.862 -0.1667 -0.8410  0.5823
 8023TIP3   OH245483   5.106   4.979   5.953  0.5515  0.0270  0.2491
 8023TIP3    H145484   5.050   4.951   6.025  0.3457  2.7885  1.2821
 8023TIP3    H245485   5.083   4.921   5.880 -1.4703 -0.8296  1.4964
 8024TIP3   OH245486   6.369   5.050   3.509  0.5172 -0.1134  0.6759
 8024TIP3    H145487   6.295   5.109   3.517 -0.5101 -1.1733 -0.5721
 8024TIP3    H245488   6.346   4.991   3.437  2.5937 -0.4369  0.1824
 8025TIP3   OH245489   0.511   1.624  14.112 -0.1240 -0.1826 -0.1662
 8025TIP3    H145490   0.423   1.592  14.088 -0.3067 -0.7508  1.1529
 8025TIP3    H245491   0.544   1.558  14.172  1.7000 -0.5571 -1.4950
 8026TIP3   OH245492   2.671   5.685  10.617  0.0892  0.3525  0.1305
 8026TIP3    H145493   2.601   5.622  10.601  0.2778 -0.4384  2.1450
 8026TIP3    H245494   2.628   5.758  10.661  0.4189  0.1618  0.7690
 8027TIP3   OH245495   6.182   3.999   2.193  0.1650 -0.2589  0.5703
 8027TIP3    H145496   6.165   4.091   2.173  0.8398 -0.0007  1.1417
 8027TIP3    H245497   6.096   3.957   2.189 -0.3046  0.5907  1.2835
 8028TIP3   OH245498   3.367   0.540   4.626 -0.4309  0.3724 -0.4129
 8028TIP3    H145499   3.311   0.537   4.549 -1.3677 -0.8528  0.2951
 8028TIP3    H245500   3.331   0.612   4.678 -0.1321  0.8458 -0.8475
 8029TIP3   OH245501   1.192   0.469  17.275  0.6534  0.0579 -0.3209
 8029TIP3    H145502   1.108   0.495  17.236 -0.1239 -1.0872  0.5108
 8029TIP3    H245503   1.187   0.373  17.279  0.8223  0.0991  2.2302
 8030TIP3   OH245504   1.146   2.183  13.342  0.0490  0.1558  0.0974
 8030TIP3    H145505   1.092   2.171  13.420 -1.3564 -0.1490 -0.8793
 8030TIP3    H245506   1.226   2.224  13.374 -0.1055 -0.7848  1.8217
 8031TIP3   OH245507   0.815   0.887  15.363 -0.5141 -0.0273 -0.4195
 8031TIP3    H145508   0.838   0.973  15.328  0.5829 -0.1483 -0.0270
 8031TIP3    H245509   0.831   0.894  15.457 -1.4119 -0.3528 -0.2344
 8032TIP3   OH245510   3.063   4.962   4.608  0.1291 -0.0194 -0.4324
 8032TIP3    H145511   3.042   5.034   4.548 -0.8352 -0.3067 -0.4593
 8032TIP3    H245512   2.985   4.953   4.663  1.0247  0.2728  0.9193
 8033TIP3   OH245513   4.417   5.767  11.643 -0.1806  0.3011 -0.1905
 8033TIP3    H145514   4.325   5.790  11.656 -0.4049 -1.6419  2.6566
 8033TIP3    H245515   4.442   5.722  11.723  3.0364 -0.0576 -1.2402
 8034TIP3   OH245516   5.184   2.606  10.387 -0.1049 -0.4403  0.2020
 8034TIP3    H145517   5.243   2.572  10.319  0.3532 -1.0905  0.9044
 8034TIP3    H245518   5.152   2.527  10.431  1.3310  0.0045  2.1646
 8035TIP3   OH245519   1.428   0.867   5.363 -0.2107 -0.4370  0.3688
 8035TIP3    H145520   1.410   0.852   5.456 -0.9014 -0.4235  0.2468
 8035TIP3    H245521   1.390   0.953   5.345  0.9391  0.0792  0.3371
 8036TIP3   OH245522   5.034   2.371  12.828 -0.2271 -0.8934 -0.1624
 8036TIP3    H145523   4.962   2.393  12.886 -1.4248  2.2321 -2.5212
 8036TIP3    H245524   5.104   2.341  12.886 -2.2243 -0.6380  2.5563
 8037TIP3   OH245525   6.183   3.548   0.704  0.1156  0.1548 -0.0851
 8037TIP3    H145526   6.102   3.584   0.668  0.1298  0.0135 -0.2564
 8037TIP3    H245527   6.181   3.574   0.796 -0.7408 -0.9139  0.2191
 8038TIP3   OH245528   3.546   4.249   6.009 -0.2723 -0.1444 -0.4721
 8038TIP3    H145529   3.608   4.322   6.016 -0.0889 -0.0632 -2.3817
 8038TIP3    H245530   3.460   4.290   6.021 -0.0589 -0.0996  1.1864
 8039TIP3   OH245531   5.555   6.697  11.803 -0.0385  0.4973 -0.2537
 8039TIP3    H145532   5.645   6.696  11.836 -0.2291 -0.9850  0.2943
 8039TIP3    H245533   5.563   6.689  11.708  0.4176 -2.1737 -0.0759
 8040TIP3   OH245534   4.774   1.632   3.182  0.0072  0.0999  0.4626
 8040TIP3    H145535   4.759   1.690   3.108  1.6754 -0.0356 -0.0388
 8040TIP3    H245536   4.778   1.544   3.144 -0.6241 -0.1396  0.9358
 8041TIP3   OH245537   5.690   6.394  11.817  0.6101 -0.3015 -0.0316
 8041TIP3    H145538   5.753   6.465  11.815  0.4354 -0.1082  0.8843
 8041TIP3    H245539   5.642   6.402  11.734  0.3315  0.8846  0.2333
 8042TIP3   OH245540   1.694   2.473  14.239 -0.3714  0.2253  0.1764
 8042TIP3    H145541   1.688   2.537  14.310 -1.2809  2.0217 -1.4471
 8042TIP3    H245542   1.605   2.439  14.229  0.0713 -1.2786  0.9311
 8043TIP3   OH245543   6.756   4.973  16.443 -0.6776 -0.3955  0.5123
 8043TIP3    H145544   6.834   5.020  16.414 -1.7296  0.8624 -0.3776
 8043TIP3    H245545   6.687   5.039  16.445 -1.4280 -1.1302  2.7663
 8044TIP3   OH245546   1.325   6.267   5.612 -0.4164  0.4341  0.2757
 8044TIP3    H145547   1.231   6.277   5.628 -0.3869 -0.2573  0.9854
 8044TIP3    H245548   1.356   6.213   5.685  0.3138 -0.3534 -0.5797
 8045TIP3   OH245549   6.286   5.201  14.900  0.0539  1.1730 -0.0294
 8045TIP3    H145550   6.358   5.215  14.838  0.8044  1.6507  0.9177
 8045TIP3    H245551   6.309   5.255  14.975 -0.7835  0.5256  0.7103
 8046TIP3   OH245552   0.291   2.833   4.932  0.3350 -0.2586  0.3649
 8046TIP3    H145553   0.214   2.859   4.983  0.3788 -0.1072  0.3541
 8046TIP3    H245554   0.344   2.782   4.993  1.2406  1.3844  1.0202
 8047TIP3   OH245555   1.714   0.180   5.578  0.0101  0.1444 -0.6147
 8047TIP3    H145556   1.806   0.155   5.567 -0.0542 -0.1745 -0.4456
 8047TIP3    H245557   1.666   0.099   5.559 -0.2079  0.1583 -0.1136
 8048TIP3   OH245558   5.679   4.273  12.925  0.2036 -0.5562 -0.0005
 8048TIP3    H145559   5.632   4.227  12.995 -2.2190  2.1662  0.3489
 8048TIP3    H245560   5.612   4.327  12.883  2.3955  0.8592 -1.8907
 8049TIP3   OH245561   6.667   3.006  12.152 -0.0483  0.3167 -0.1125
 8049TIP3    H145562   6.664   3.080  12.213  0.1334  0.4881 -0.3099
 8049TIP3    H245563   6.714   3.040  12.076 -0.3963  0.1458 -0.4045
 8050TIP3   OH245564   4.019   5.390   4.756 -0.4207 -0.1294 -0.4672
 8050TIP3    H145565   4.086   5.376   4.690 -1.2248  0.1530 -1.3669
 8050TIP3    H245566   4.052   5.463   4.809  0.3238 -0.4905 -0.4292
 8051TIP3   OH245567   6.134   4.530  12.170  0.2700 -0.5849 -0.3128
 8051TIP3    H145568   6.188   4.471  12.223  0.2769  0.8141  1.3437
 8051TIP3    H245569   6.187   4.547  12.093  0.0843 -3.0188 -1.0675
 8052TIP3   OH245570   5.309   2.657  11.383  0.7374 -0.1331  0.1070
 8052TIP3    H145571   5.271   2.598  11.448  1.6447 -0.4002  0.4130
 8052TIP3    H245572   5.362   2.718  11.434  0.1298  0.7114 -0.2458
 8053TIP3   OH245573   2.866   3.165  13.085  0.4719 -0.2023 -0.3507
 8053TIP3    H145574   2.779   3.135  13.113  0.7720  0.0083  0.8396
 8053TIP3    H245575   2.883   3.243  13.137  0.7363  0.6670 -1.6904
 8054TIP3   OH245576   1.603   2.976  14.469 -0.4011 -0.4995 -0.0165
 8054TIP3    H145577   1.645   3.061  14.480 -0.6446 -0.5993  2.1907
 8054TIP3    H245578   1.537   2.990  14.401 -1.2201  1.4186  1.0929
 8055TIP3   OH245579   1.937   3.206   0.125 -0.6711  0.5653 -0.2335
 8055TIP3    H145580   1.973   3.169   0.044  1.0293  2.6453 -0.5211
 8055TIP3    H245581   1.852   3.242   0.099 -1.7485 -1.8078 -0.2386
 8056TIP3   OH245582   5.261   3.594  13.585  0.2058  0.1430 -0.6164
 8056TIP3    H145583   5.281   3.619  13.676 -0.3415 -0.1410 -0.4154
 8056TIP3    H245584   5.341   3.615  13.537 -0.4798  3.1473 -0.6677
 8057TIP3   OH245585   1.240   1.247  16.363  0.2140  0.4743  0.6265
 8057TIP3    H145586   1.200   1.186  16.300  0.4181  0.9365  0.0400
 8057TIP3    H245587   1.195   1.330  16.348 -0.3537  0.3827  1.7145
 8058TIP3   OH245588   5.818   5.368  10.652 -0.1635 -0.2227 -0.2304
 8058TIP3    H145589   5.761   5.339  10.723 -0.1370 -1.3726 -0.6533
 8058TIP3    H245590   5.765   5.428  10.601 -0.5517 -0.2497  0.1439
 8059TIP3   OH245591   4.329   2.575  13.153  0.5317  0.7294 -0.2723
 8059TIP3    H145592   4.268   2.526  13.206  1.0267  0.4354  0.0346
 8059TIP3    H245593   4.310   2.667  13.172  0.0384  0.6439 -0.3545
 8060TIP3   OH245594   4.497   0.803  16.427 -0.2722 -0.1582  0.2938
 8060TIP3    H145595   4.470   0.895  16.425 -0.9254 -0.2657 -3.4632
 8060TIP3    H245596   4.419   0.756  16.456 -0.5101  0.3244  0.4589
 8061TIP3   OH245597   4.248   2.692  16.589  0.2978 -0.1071 -0.2351
 8061TIP3    H145598   4.316   2.732  16.535  2.9881 -1.6997  1.7447
 8061TIP3    H245599   4.208   2.626  16.532  2.2253 -0.9108 -0.7320
 8062TIP3   OH245600   1.785   0.211  15.458 -0.5074 -0.4159  0.2967
 8062TIP3    H145601   1.834   0.238  15.380  0.0048  0.8689  1.0261
 8062TIP3    H245602   1.718   0.279  15.469 -1.9658 -1.7276 -0.2203
 8063TIP3   OH245603   4.371   4.852   3.198  0.5212 -0.6323  0.1530
 8063TIP3    H145604   4.437   4.904   3.152  1.5641 -0.0375  2.1938
 8063TIP3    H245605   4.419   4.807   3.267 -1.1696 -0.2406  1.6649
 8064TIP3   OH245606   4.894   4.746   5.421 -0.0420  0.2511  0.2543
 8064TIP3    H145607   4.877   4.809   5.491  1.2484 -0.2015  1.0127
 8064TIP3    H245608   4.886   4.661   5.463 -4.0707 -0.3236 -1.2492
 8065TIP3   OH245609   4.430   1.818   1.128 -0.4176  0.1089 -0.1571
 8065TIP3    H145610   4.478   1.742   1.097  1.7105  2.3475 -2.9054
 8065TIP3    H245611   4.346   1.814   1.081 -1.5432 -1.8652  1.8397
 8066TIP3   OH245612   1.508   3.769  14.994  0.4221  0.2596 -0.6100
 8066TIP3    H145613   1.490   3.847  15.046  0.2288 -0.8697  1.1084
 8066TIP3    H245614   1.426   3.751  14.949  0.6436  1.3567 -1.4835
 8067TIP3   OH245615   6.072   4.554  16.260 -0.0134 -0.0980 -0.2935
 8067TIP3    H145616   6.102   4.473  16.220 -0.1272 -1.1238  1.5798
 8067TIP3    H245617   5.978   4.542  16.271 -0.3980  1.1403 -1.7670
 8068TIP3   OH245618   5.821   6.504   0.069 -0.0572 -0.0522  0.0814
 8068TIP3    H145619   5.825   6.597   0.046 -0.2440  0.0388  0.4146
 8068TIP3    H245620   5.829   6.502   0.164 -1.7645 -0.2514  0.2436
 8069TIP3   OH245621   5.639   1.618   3.514 -0.1837  0.1773 -0.0624
 8069TIP3    H145622   5.549   1.637   3.542 -0.0925  1.1496 -0.3890
 8069TIP3    H245623   5.683   1.590   3.595  0.0002  2.6732  0.7844
 8070TIP3   OH245624   4.099   1.564  15.034 -0.4138 -0.1047  0.3184
 8070TIP3    H145625   4.065   1.653  15.043 -0.3546  0.0065 -0.4624
 8070TIP3    H245626   4.136   1.562  14.946  0.8384 -0.4818  0.8276
 8071TIP3   OH245627   4.116   4.496  17.360  0.4464 -0.2772 -0.1742
 8071TIP3    H145628   4.102   4.458  17.273 -0.2707 -2.1178  0.7126
 8071TIP3    H245629   4.122   4.421  17.419  0.3001  0.9559  1.4706
 8072TIP3   OH245630   0.495   6.212   1.827  0.1035  0.4592  0.7109
 8072TIP3    H145631   0.447   6.199   1.746 -0.3198  3.6647  0.3222
 8072TIP3    H245632   0.563   6.144   1.826 -0.6503 -0.3528 -1.6871
 8073TIP3   OH245633   4.421   3.353  15.901  0.2168  0.5377  0.0170
 8073TIP3    H145634   4.468   3.321  15.824  0.3169 -0.0454  0.3133
 8073TIP3    H245635   4.333   3.317  15.893  0.4432 -0.1719  0.5554
 8074TIP3   OH245636   1.808   3.266  15.918 -0.1620 -0.3286  0.0301
 8074TIP3    H145637   1.885   3.212  15.900 -1.1091 -2.3992  1.6699
 8074TIP3    H245638   1.815   3.288  16.011 -0.6245  1.0737 -0.2364
 8075TIP3   OH245639   5.041   0.863   5.790 -0.2371 -0.0644 -0.3420
 8075TIP3    H145640   5.110   0.918   5.753 -2.4238  1.7699 -1.9535
 8075TIP3    H245641   5.081   0.776   5.797  2.2268  0.9146 -1.1368
 8076TIP3   OH245642   1.541   0.128   0.816  0.7445  0.3615  0.3622
 8076TIP3    H145643   1.578   0.098   0.733  0.0906 -0.0856  0.2340
 8076TIP3    H245644   1.584   0.074   0.882 -1.7217 -2.2210  0.0252
 8077TIP3   OH245645   3.578   5.491   2.901  0.2281 -0.0329  0.6656
 8077TIP3    H145646   3.584   5.406   2.857 -0.5059 -0.1218  0.7236
 8077TIP3    H245647   3.655   5.539   2.871  1.8799 -1.4937  2.3358
 8078TIP3   OH245648   6.382   5.084  15.425 -0.2552 -0.1883 -0.2483
 8078TIP3    H145649   6.318   5.037  15.479 -0.7080  1.1512  0.4205
 8078TIP3    H245650   6.427   5.015  15.376 -0.5423 -1.3655  1.0712
 8079TIP3   OH245651   0.460   3.318   5.744 -0.5013  0.5048  0.3141
 8079TIP3    H145652   0.419   3.232   5.751 -0.7838  0.4874 -1.2207
 8079TIP3    H245653   0.386   3.379   5.735 -0.3018  0.9239  1.2910
 8080TIP3   OH245654   3.839   5.974  15.590 -0.1127 -0.3557  0.2837
 8080TIP3    H145655   3.813   5.998  15.679  0.3939 -0.2300  0.4039
 8080TIP3    H245656   3.825   6.054  15.539  0.9860  0.0376  0.5583
 8081TIP3   OH245657   6.004   3.824  12.778  0.1526 -0.0574 -0.1076
 8081TIP3    H145658   6.003   3.895  12.841  0.9639 -0.7414  0.7094
 8081TIP3    H245659   5.916   3.823  12.740  0.6028  2.5150 -1.4768
 8082TIP3   OH245660   2.132   2.302   1.746  0.0223 -0.2111 -0.2786
 8082TIP3    H145661   2.083   2.380   1.721 -0.3788  0.5476  2.5386
 8082TIP3    H245662   2.200   2.335   1.805  1.8121 -1.6704 -1.4124
 8083TIP3   OH245663   6.470   1.216   1.933 -0.5155 -0.1025  0.5760
 8083TIP3    H145664   6.483   1.204   2.027 -2.2398  2.7367  1.2869
 8083TIP3    H245665   6.376   1.231   1.923 -0.1055  1.5854 -1.3028
 8084TIP3   OH245666   4.374   5.371  15.758  0.0132 -0.7845 -0.0589
 8084TIP3    H145667   4.443   5.305  15.752  0.6884 -0.0973 -0.0438
 8084TIP3    H245668   4.421   5.455  15.751 -1.0531 -0.3085 -2.7183
 8085TIP3   OH245669   2.712   6.233  14.226 -0.2502  0.1769 -0.1949
 8085TIP3    H145670   2.804   6.224  14.203 -0.2647 -0.3793 -0.0655
 8085TIP3    H245671   2.680   6.304  14.171 -0.4693 -1.5627 -2.4610
 8086TIP3   OH245672   3.636   3.522  17.126 -0.4230  0.2394  0.4935
 8086TIP3    H145673   3.549   3.530  17.087 -1.2116  2.5805  2.4686
 8086TIP3    H245674   3.682   3.459  17.071 -2.1545  1.6361 -2.8326
 8087TIP3   OH245675   6.682   0.061   4.101 -0.1791  0.1824 -0.4988
 8087TIP3    H145676   6.731  -0.020   4.112 -0.0524  0.0561 -1.9130
 8087TIP3    H245677   6.720   0.120   4.167  1.0612 -0.2921 -0.7559
 8088TIP3   OH245678   1.748   2.833  11.453 -0.1438  0.0702  0.1881
 8088TIP3    H145679   1.759   2.921  11.419 -1.8209  0.4418  0.5307
 8088TIP3    H245680   1.727   2.845  11.546  0.5572 -0.7551  0.4785
 8089TIP3   OH245681   2.009   5.289  15.809  0.1930  0.3087  0.1676
 8089TIP3    H145682   2.097   5.324  15.798  0.0332  0.8870  0.6813
 8089TIP3    H245683   1.999   5.276  15.904  0.2952 -1.2770  0.0020
 8090TIP3   OH245684   5.554   0.367   4.613  0.0087  0.0574  0.2774
 8090TIP3    H145685   5.580   0.276   4.595  1.7747  0.5422  0.1541
 8090TIP3    H245686   5.628   0.419   4.579 -0.1627  1.4340  1.9375
 8091TIP3   OH245687   3.365   4.850   5.212  0.5618 -0.1763  0.0824
 8091TIP3    H145688   3.393   4.906   5.139 -0.1062  0.7553  0.5174
 8091TIP3    H245689   3.289   4.895   5.248  2.1405  0.5650  2.7527
 8092TIP3   OH245690   3.911   1.258   3.919 -0.8564  0.0817  0.3486
 8092TIP3    H145691   3.869   1.243   4.004  0.1216 -0.6116  0.7304
 8092TIP3    H245692   4.002   1.278   3.940 -1.1807  2.7107 -0.4014
 8093TIP3   OH245693   1.895   1.455  11.737  0.3785 -0.1903  0.0639
 8093TIP3    H145694   1.862   1.541  11.761  0.6882 -0.1026  0.1780
 8093TIP3    H245695   1.842   1.429  11.662  0.9109  0.5147 -0.5762
 8094TIP3   OH245696   5.801   3.766  13.499 -0.2767  0.4207 -0.2130
 8094TIP3    H145697   5.867   3.746  13.433 -1.5967  0.7007 -1.6618
 8094TIP3    H245698   5.835   3.725  13.579  0.4724 -1.5661 -1.4646
 8095TIP3   OH245699   4.841   0.439   5.052  0.1695  0.1910  0.3168
 8095TIP3    H145700   4.920   0.386   5.039  1.3324  1.6814  0.9387
 8095TIP3    H245701   4.816   0.423   5.143 -2.2270 -2.7419 -0.6909
 8096TIP3   OH245702   3.607   0.165   2.638  0.5127 -0.3515  0.2091
 8096TIP3    H145703   3.562   0.085   2.662  0.8744 -0.9235 -0.9343
 8096TIP3    H245704   3.543   0.215   2.587  0.3678 -0.0087  0.7132
 8097TIP3   OH245705   1.195   0.102  15.246 -0.2268 -0.0660 -0.6357
 8097TIP3    H145706   1.273   0.145  15.278  0.0021 -1.1735  0.3493
 8097TIP3    H245707   1.148   0.170  15.198 -0.2505  1.4859  1.4697
 8098TIP3   OH245708   1.078   6.636  14.135 -0.2063 -0.2108  0.4497
 8098TIP3    H145709   1.047   6.710  14.082 -0.3572  0.6995  1.7620
 8098TIP3    H245710   1.065   6.560  14.079 -0.3044  0.7141 -0.8418
 8099TIP3   OH245711   3.953   2.383  15.147  0.6709 -0.4632  0.0609
 8099TIP3    H145712   3.897   2.449  15.106  2.9803  1.0180 -0.9187
 8099TIP3    H245713   3.931   2.302  15.102 -0.3329  0.1655 -0.6310
 8100TIP3   OH245714   4.695   3.556   3.410  0.6817 -0.2266  0.0946
 8100TIP3    H145715   4.738   3.540   3.494 -0.4076  3.4437  1.5444
 8100TIP3    H245716   4.756   3.611   3.362 -0.2249  0.8541  0.1209
 8101TIP3   OH245717   4.425   4.730  13.929 -0.1518  0.1941  0.1275
 8101TIP3    H145718   4.462   4.819  13.929 -0.2590  0.2519  1.2237
 8101TIP3    H245719   4.450   4.694  14.014  0.8107 -1.2233 -0.7158
 8102TIP3   OH245720   2.386   5.258   3.405 -0.0575 -0.0243  0.1928
 8102TIP3    H145721   2.367   5.166   3.424 -2.5914  0.7220  1.7097
 8102TIP3    H245722   2.389   5.263   3.309  0.2508 -1.6888  0.0921
 8103TIP3   OH245723   6.717   3.021   0.343  0.0433  0.1942 -0.1020
 8103TIP3    H145724   6.634   2.986   0.375  0.3351  0.4636  0.9595
 8103TIP3    H245725   6.700   3.041   0.251 -0.0970 -2.8615 -0.8745
 8104TIP3   OH245726   3.165   5.572   5.412  0.0086 -0.4957  0.4900
 8104TIP3    H145727   3.125   5.486   5.418  2.3943 -1.6304  1.2104
 8104TIP3    H245728   3.172   5.589   5.318  0.7799 -1.7405  0.3018
 8105TIP3   OH245729   3.267   1.189  13.383  0.0949 -0.3991  0.2601
 8105TIP3    H145730   3.303   1.240  13.456 -0.1451 -0.3412  0.3410
 8105TIP3    H245731   3.342   1.168  13.328  0.0100  1.4362 -0.6345
 8106TIP3   OH245732   3.429   1.346  12.059 -0.1235 -0.3637 -0.4803
 8106TIP3    H145733   3.352   1.344  12.117 -0.9891 -0.7313 -1.6074
 8106TIP3    H245734   3.493   1.291  12.103 -0.5828 -0.2339  0.3749
 8107TIP3   OH245735   3.725   4.382  12.124  1.0249  0.6205  0.0803
 8107TIP3    H145736   3.701   4.413  12.212  0.9690  0.5661  0.0842
 8107TIP3    H245737   3.761   4.460  12.081 -0.5294  1.0940 -0.4257
 8108TIP3   OH245738   0.433   0.851  15.324 -0.4353  0.0271 -0.0882
 8108TIP3    H145739   0.433   0.911  15.399  2.3224 -0.9635  0.8117
 8108TIP3    H245740   0.487   0.777  15.352  1.5147  0.0171 -3.3244
 8109TIP3   OH245741   0.597   1.434  10.746  0.0963  0.0115 -0.1861
 8109TIP3    H145742   0.599   1.355  10.691 -0.8317  1.0290 -1.7612
 8109TIP3    H245743   0.598   1.506  10.683 -2.1656  1.2335  1.0837
 8110TIP3   OH245744   6.423   0.072   5.910  0.1771 -0.4090 -0.3692
 8110TIP3    H145745   6.479   0.137   5.952 -0.2721  0.8776 -1.6937
 8110TIP3    H245746   6.424  -0.003   5.970  1.3708  0.4931  0.7860
 8111TIP3   OH245747   6.080   1.400  12.806  0.6540  0.0594  0.3778
 8111TIP3    H145748   6.040   1.347  12.874 -0.5068 -0.6405 -0.8042
 8111TIP3    H245749   6.174   1.386  12.816  0.5686  0.6285  2.3177
 8112TIP3   OH245750   3.119   2.218  12.640 -0.3836  0.7279  0.2847
 8112TIP3    H145751   3.129   2.213  12.545  0.5335  2.8774  0.2198
 8112TIP3    H245752   3.197   2.175  12.675 -2.0127 -2.5886  0.2071
 8113TIP3   OH245753   4.039   4.186  12.178  0.0676  0.4651 -0.5253
 8113TIP3    H145754   4.113   4.207  12.235 -1.0376 -1.2612  1.6817
 8113TIP3    H245755   3.967   4.241  12.209  0.0336  1.2574 -1.8866
 8114TIP3   OH245756   6.042   4.771  12.644 -0.2018  0.0229 -0.0089
 8114TIP3    H145757   6.102   4.805  12.711 -0.7035  1.0187 -0.0505
 8114TIP3    H245758   6.030   4.679  12.667  3.7654 -1.1386 -1.7264
 8115TIP3   OH245759   5.095   3.542  15.848  0.4583  0.2772 -0.2616
 8115TIP3    H145760   5.187   3.564  15.861  0.0469  2.6993 -1.0466
 8115TIP3    H245761   5.054   3.561  15.933  0.8932 -2.6299  0.7220
 8116TIP3   OH245762   0.789   3.216   0.140  0.1713 -0.4486  0.0362
 8116TIP3    H145763   0.796   3.202   0.234 -1.1387 -0.1295  0.1970
 8116TIP3    H245764   0.698   3.195   0.119 -0.3197  2.1278 -0.6764
 8117TIP3   OH245765   3.134   3.491   4.106 -0.0127  0.1225 -0.7074
 8117TIP3    H145766   3.187   3.545   4.048 -2.0664  0.4283 -2.3964
 8117TIP3    H245767   3.174   3.404   4.101  2.0123  0.9371  0.3440
 8118TIP3   OH245768   5.917   2.526  11.174  0.0225  0.0972 -0.3706
 8118TIP3    H145769   6.003   2.561  11.193  0.2924  0.1522 -1.6040
 8118TIP3    H245770   5.934   2.443  11.128 -0.5831 -0.1321 -0.1953
 8119TIP3   OH245771   1.271   5.443  13.489 -0.0925 -0.0467  0.0669
 8119TIP3    H145772   1.178   5.429  13.472 -0.8157  1.1114  2.5370
 8119TIP3    H245773   1.308   5.464  13.404 -2.2138  0.0952 -0.8952
 8120TIP3   OH245774   3.409   3.709  15.358 -0.2136  0.0691 -0.4799
 8120TIP3    H145775   3.498   3.744  15.369 -0.3518  0.5954 -0.9950
 8120TIP3    H245776   3.355   3.787  15.343 -0.5884 -0.3378 -1.2881
 8121TIP3   OH245777   6.385   5.172   1.964 -0.0875  0.0538 -0.1488
 8121TIP3    H145778   6.455   5.193   1.903  0.0877  0.3253  0.1454
 8121TIP3    H245779   6.425   5.179   2.051 -0.2658 -0.5942 -0.0127
 8122TIP3   OH245780   6.012   3.079   2.013 -0.0225  0.0273 -0.4300
 8122TIP3    H145781   5.971   3.011   2.067 -2.2135  0.8520 -0.9591
 8122TIP3    H245782   6.008   3.045   1.924  3.1962 -1.1392 -0.2495
 8123TIP3   OH245783   1.574   4.039  15.170 -0.2053 -0.0709 -0.9239
 8123TIP3    H145784   1.566   4.118  15.117 -0.8608 -0.1908 -1.0072
 8123TIP3    H245785   1.485   4.003  15.174 -0.2837  0.2176  0.6938
 8124TIP3   OH245786   0.383   5.917  13.388  0.1708  0.0968  0.1413
 8124TIP3    H145787   0.423   5.925  13.474 -1.1353 -0.8490  0.8907
 8124TIP3    H245788   0.452   5.938  13.326  1.0567  1.0917  1.4279
 8125TIP3   OH245789   5.234   2.733  14.664 -0.2536 -0.3381 -0.1805
 8125TIP3    H145790   5.190   2.705  14.744 -0.1771 -0.5325 -0.2050
 8125TIP3    H245791   5.312   2.678  14.659  0.0830  0.1213 -0.0478
 8126TIP3   OH245792   5.233   2.214   1.227  0.1125 -0.3018 -0.0671
 8126TIP3    H145793   5.245   2.239   1.135 -0.4478 -0.7499 -0.2690
 8126TIP3    H245794   5.148   2.170   1.229 -0.0967  0.1208  0.7561
 8127TIP3   OH245795   3.268   0.784  12.190  0.0773  0.4171 -0.1180
 8127TIP3    H145796   3.297   0.808  12.102 -0.2140 -1.4007 -0.7506
 8127TIP3    H245797   3.337   0.727  12.223  0.1406  1.0144  0.8204
 8128TIP3   OH245798   3.830   5.972  17.258 -0.1969  0.1225 -0.5062
 8128TIP3    H145799   3.783   6.003  17.181 -1.0343 -0.4728 -0.2423
 8128TIP3    H245800   3.770   5.912  17.301  0.3879  0.1889  0.4363
 8129TIP3   OH245801   0.459   1.890   6.648 -0.0306  0.0866 -0.3228
 8129TIP3    H145802   0.520   1.942   6.700  0.2022  0.5935 -1.0901
 8129TIP3    H245803   0.424   1.951   6.584  0.5671 -0.7866 -1.5222
 8130TIP3   OH245804   5.784   2.069  16.396 -0.7935  0.3068  0.6090
 8130TIP3    H145805   5.713   2.041  16.338 -1.7026  1.3333  1.1948
 8130TIP3    H245806   5.861   2.074  16.340 -0.8209 -2.2024  0.2372
 8131TIP3   OH245807   3.526   5.472  11.687  0.3619  0.2230 -0.0071
 8131TIP3    H145808   3.455   5.502  11.744  1.4297  0.0380  1.4689
 8131TIP3    H245809   3.492   5.391  11.647 -0.1738 -0.0007  0.8700
 8132TIP3   OH245810   6.645   4.855   5.492  0.5392 -0.6337  0.1112
 8132TIP3    H145811   6.710   4.921   5.517  0.7425 -1.0825  0.7743
 8132TIP3    H245812   6.563   4.885   5.531  0.9351 -1.5449  1.7291
 8133TIP3   OH245813   6.323   3.120   1.456  0.2530 -0.0895 -0.0267
 8133TIP3    H145814   6.394   3.056   1.462  0.0683 -0.4823 -1.6181
 8133TIP3    H245815   6.291   3.129   1.546 -0.0192 -2.5928  0.1978
 8134TIP3   OH245816   5.083   2.556   4.184  0.4429 -0.0205  0.1987
 8134TIP3    H145817   5.126   2.611   4.118 -1.0645 -0.9407 -1.6383
 8134TIP3    H245818   5.012   2.611   4.218  0.3641 -0.0162  0.0309
 8135TIP3   OH245819   6.701   2.845  13.854  0.6909 -0.0134 -0.6032
 8135TIP3    H145820   6.764   2.871  13.787  0.5843  0.4840 -0.5155
 8135TIP3    H245821   6.643   2.782  13.811 -0.1254  1.1968 -1.3481
 8136TIP3   OH245822   4.089   4.433   0.582 -0.1735  0.1527  1.0961
 8136TIP3    H145823   4.080   4.358   0.641  2.1312  0.4626  1.9455
 8136TIP3    H245824   4.180   4.432   0.555 -0.0143  2.7137  1.2530
 8137TIP3   OH245825   0.442   5.388  15.894 -0.0241  0.4351  0.0429
 8137TIP3    H145826   0.379   5.423  15.958  0.9954  0.6295  0.9680
 8137TIP3    H245827   0.404   5.305  15.866  0.0647 -0.2356  1.8153
 8138TIP3   OH245828   3.670   2.600  16.118 -0.4020 -0.0691 -0.3140
 8138TIP3    H145829   3.660   2.603  16.023 -0.1440 -0.3132 -0.3525
 8138TIP3    H245830   3.619   2.674  16.150 -0.6256 -0.0861 -0.6318
 8139TIP3   OH245831   3.075   1.405   5.490  0.1290  0.4012  0.0422
 8139TIP3    H145832   3.033   1.461   5.556  0.5095  0.9014 -0.1358
 8139TIP3    H245833   3.014   1.405   5.417  0.2923  0.8845 -0.0985
 8140TIP3   OH245834   2.563   1.337  13.412 -0.8680 -0.0616  0.4621
 8140TIP3    H145835   2.554   1.319  13.506  0.8426 -0.6941  0.5528
 8140TIP3    H245836   2.657   1.331  13.396 -1.2213 -1.1436 -1.5259
 8141TIP3   OH245837   5.805   2.552  14.486  0.0068 -0.1010  0.2497
 8141TIP3    H145838   5.792   2.563  14.392 -1.5587 -0.2677  0.4083
 8141TIP3    H245839   5.754   2.474  14.508  0.2196  0.0276  1.2637
 8142TIP3   OH245840   4.769   1.475   2.781 -0.0292 -0.1224 -0.1399
 8142TIP3    H145841   4.791   1.474   2.687  0.4102 -0.8306 -0.0392
 8142TIP3    H245842   4.769   1.383   2.806  1.0982  0.1197  0.8320
 8143TIP3   OH245843   2.247   3.552  12.541  0.2564  0.1209  0.3273
 8143TIP3    H145844   2.260   3.646  12.534  2.6862 -0.1748  0.0450
 8143TIP3    H245845   2.243   3.535  12.635  1.3338  0.3545  0.4229
 8144TIP3   OH245846   5.354   2.292   0.997 -0.1787 -0.0898 -0.1011
 8144TIP3    H145847   5.445   2.316   1.013  0.0770  0.5353 -2.2511
 8144TIP3    H245848   5.358   2.229   0.925 -1.5095  1.1724 -1.3457
 8145TIP3   OH245849   2.502   5.085   5.558 -0.2897  0.0259  0.0348
 8145TIP3    H145850   2.554   5.080   5.639 -0.2765 -0.8788 -0.0147
 8145TIP3    H245851   2.488   4.994   5.534  0.0875  0.2859 -1.2398
 8146TIP3   OH245852   1.995   1.513  12.630 -0.2669  0.7057  0.3353
 8146TIP3    H145853   1.980   1.437  12.686 -1.2516 -0.4923 -1.4791
 8146TIP3    H245854   1.930   1.577  12.658 -1.0166 -0.0343  0.3246
 8147TIP3   OH245855   5.198   5.340   0.799  0.9503 -0.5877  0.0229
 8147TIP3    H145856   5.178   5.314   0.709 -0.1539 -0.3673  0.1978
 8147TIP3    H245857   5.225   5.259   0.842  2.1411 -0.5759 -0.6688
 8148TIP3   OH245858   1.140   4.721  14.028 -0.0515  0.0867  0.4237
 8148TIP3    H145859   1.225   4.755  14.055  0.1090  0.6306 -0.7453
 8148TIP3    H245860   1.104   4.681  14.108 -0.7861  3.9631  2.2699
 8149TIP3   OH245861   5.260   3.687  13.832 -0.2240  0.4977 -0.5815
 8149TIP3    H145862   5.277   3.713  13.922  0.9052  0.0469 -0.6546
 8149TIP3    H245863   5.172   3.719  13.814 -1.0376 -0.6490  1.1379
 8150TIP3   OH245864   4.149   2.843  14.307  0.2405 -0.2768  0.1568
 8150TIP3    H145865   4.115   2.927  14.340  1.4686  0.1218  0.4525
 8150TIP3    H245866   4.078   2.781  14.324 -0.0106  0.3502  1.5895
 8151TIP3   OH245867   5.506   5.135  15.183  0.0873  0.2273  0.3557
 8151TIP3    H145868   5.598   5.156  15.167 -0.1911 -0.6950 -3.2876
 8151TIP3    H245869   5.498   5.043  15.159 -1.8432  0.3754  0.3079
 8152TIP3   OH245870   5.907   1.624   0.251  0.0310 -0.1859  0.0024
 8152TIP3    H145871   5.985   1.598   0.300 -0.0245 -1.4455 -0.5370
 8152TIP3    H245872   5.857   1.543   0.239 -1.1867  0.5271  0.0110
 8153TIP3   OH245873   0.088   3.083  12.368  0.5635 -0.7044  0.4091
 8153TIP3    H145874   0.164   3.104  12.423  0.3098  0.7051  0.2538
 8153TIP3    H245875   0.120   3.097  12.278  0.3735 -1.0213  0.2884
 8154TIP3   OH245876   1.672   2.140   1.859  0.1692 -0.3044 -0.0986
 8154TIP3    H145877   1.616   2.199   1.808 -0.1667 -0.3395  0.2256
 8154TIP3    H245878   1.760   2.154   1.823  0.3389  1.3863  0.8380
 8155TIP3   OH245879   1.930   6.344  10.503 -0.1457 -0.3541 -0.0498
 8155TIP3    H145880   1.849   6.393  10.491 -1.3583 -2.4380 -0.9481
 8155TIP3    H245881   1.972   6.345  10.417 -1.3816 -2.7328 -0.7984
 8156TIP3   OH245882   0.653   5.517   1.576  0.6600  0.3135 -0.2365
 8156TIP3    H145883   0.673   5.500   1.668  2.9421 -0.7873 -0.8792
 8156TIP3    H245884   0.732   5.491   1.529 -1.0250 -0.7624 -2.6772
 8157TIP3   OH245885   1.032   6.621  11.362 -0.1881  0.2289 -0.1486
 8157TIP3    H145886   1.008   6.706  11.325  0.0228 -0.2081 -1.3533
 8157TIP3    H245887   1.092   6.584  11.297  0.3738 -0.4923  0.7621
 8158TIP3   OH245888   6.284   3.705  16.239 -0.4951 -0.3311  0.0210
 8158TIP3    H145889   6.223   3.685  16.168  1.6251 -1.5939 -1.5674
 8158TIP3    H245890   6.348   3.764  16.199  0.2333 -0.3384  1.1540
 8159TIP3   OH245891   6.192   1.918   0.432  0.5151 -0.1322 -0.3802
 8159TIP3    H145892   6.113   1.930   0.484 -0.4074 -1.8489 -1.2946
 8159TIP3    H245893   6.263   1.912   0.497 -0.6696 -2.8126  0.7976
 8160TIP3   OH245894   5.012   5.613  12.925 -0.2673  0.2655  0.7002
 8160TIP3    H145895   5.041   5.683  12.866  0.7250 -0.5220  0.2253
 8160TIP3    H245896   4.938   5.573  12.880  1.4813 -1.3949 -0.8733
 8161TIP3   OH245897   2.447   3.688   5.672  0.1615  0.6272 -0.0032
 8161TIP3    H145898   2.498   3.648   5.742 -0.3105  0.3570  0.1930
 8161TIP3    H245899   2.511   3.715   5.607  0.6610  1.3908  0.7860
 8162TIP3   OH245900   4.814   4.470   0.991 -0.0209  0.1268 -0.3419
 8162TIP3    H145901   4.882   4.444   0.928  0.1316 -0.3931  0.0261
 8162TIP3    H245902   4.733   4.469   0.940 -0.2334 -2.4250 -0.0607
 8163TIP3   OH245903   5.298   1.793  11.403  0.9500 -0.3731 -0.7467
 8163TIP3    H145904   5.284   1.725  11.469  2.7744  0.0738  0.1533
 8163TIP3    H245905   5.233   1.773  11.335 -1.5319 -0.3909  1.4638
 8164TIP3   OH245906   0.898   6.444   2.869  0.0080 -0.2653 -0.2122
 8164TIP3    H145907   0.966   6.448   2.802  0.8461  2.9521  0.6322
 8164TIP3    H245908   0.844   6.522   2.853  0.0339  0.4332  2.5716
 8165TIP3   OH245909   5.709   6.675   4.578 -0.2393  0.1370  0.2474
 8165TIP3    H145910   5.763   6.651   4.502 -1.2942 -0.3458 -0.3674
 8165TIP3    H245911   5.770   6.669   4.652  0.5956 -0.2507 -0.4404
 8166TIP3   OH245912   0.498   0.046  11.647  0.2533 -0.0105 -0.5547
 8166TIP3    H145913   0.566  -0.021  11.658 -0.2141 -0.3865  0.1005
 8166TIP3    H245914   0.481   0.047  11.553  1.2050  0.1367 -0.7438
 8167TIP3   OH245915   3.182   0.014   4.135 -0.1393  0.1156 -0.2291
 8167TIP3    H145916   3.156   0.091   4.186  0.0516  0.5217 -0.7405
 8167TIP3    H245917   3.146  -0.060   4.184  0.3000  0.4728  0.6557
 8168TIP3   OH245918   6.475   5.409   4.401  0.8407  0.2097 -0.6035
 8168TIP3    H145919   6.539   5.372   4.462 -0.0375 -0.2570  0.0702
 8168TIP3    H245920   6.394   5.361   4.420  0.2929  0.7863 -1.4270
 8169TIP3   OH245921   3.382   3.243   5.215  0.4408  0.0891 -0.1208
 8169TIP3    H145922   3.309   3.199   5.171  1.0522  0.4839 -1.6120
 8169TIP3    H245923   3.430   3.286   5.144  1.0855  1.3643  1.0314
 8170TIP3   OH245924   4.883   5.110   1.017 -0.0624  0.2959 -0.3476
 8170TIP3    H145925   4.937   5.052   1.072 -0.1947  1.6942  1.3222
 8170TIP3    H245926   4.816   5.144   1.076 -1.0294  0.8495 -1.7071
 8171TIP3   OH245927   1.819   6.290   0.286 -0.2713  0.6661  0.1713
 8171TIP3    H145928   1.757   6.273   0.215  0.2942 -0.2422 -0.1211
 8171TIP3    H245929   1.800   6.380   0.313 -2.1430  0.2208  0.5140
 8172TIP3   OH245930   1.933   4.858   1.072  1.2991 -0.0420  0.0910
 8172TIP3    H145931   1.920   4.864   0.978  0.0739  3.0014  0.3298
 8172TIP3    H245932   1.845   4.863   1.109  1.8444  0.3578  1.4116
 8173TIP3   OH245933   4.232   3.416   0.577  0.4307 -1.0724 -0.0810
 8173TIP3    H145934   4.152   3.371   0.548  0.2558 -1.4630  0.9680
 8173TIP3    H245935   4.285   3.348   0.617  0.8470 -0.6217  0.1436
 8174TIP3   OH245936   3.828   3.040  14.224  0.9386  0.3446 -0.2188
 8174TIP3    H145937   3.781   3.123  14.228  2.1904  1.0688  0.1616
 8174TIP3    H245938   3.761   2.973  14.240 -0.2096  1.2180 -1.1635
 8175TIP3   OH245939   0.435   5.805   3.421  0.3367  0.0166 -0.8410
 8175TIP3    H145940   0.348   5.774   3.445  0.5260 -0.4687 -0.7701
 8175TIP3    H245941   0.443   5.890   3.465  0.4021 -0.5355  0.2374
 8176TIP3   OH245942   2.750   2.875   5.129  0.0008 -0.3572 -0.2663
 8176TIP3    H145943   2.728   2.896   5.038 -1.1766  1.9796  0.4794
 8176TIP3    H245944   2.780   2.958   5.166  3.8820 -1.9231  0.6328
 8177TIP3   OH245945   1.962   5.041   0.828  0.0309  0.4838  0.3787
 8177TIP3    H145946   2.016   5.061   0.904  0.8611 -0.7161  0.1358
 8177TIP3    H245947   1.922   5.125   0.804  2.1759  1.5460  0.2657
 8178TIP3   OH245948   2.123   3.601  10.996  0.3457 -0.2022 -0.3730
 8178TIP3    H145949   2.085   3.671  11.048  1.3140 -0.3295  0.5384
 8178TIP3    H245950   2.061   3.529  11.003 -0.7658  0.6080 -1.4920
 8179TIP3   OH245951   0.306   6.072   1.290  0.3226 -0.1459  0.2328
 8179TIP3    H145952   0.222   6.108   1.317 -0.2136 -2.4655  1.9962
 8179TIP3    H245953   0.285   5.986   1.253  1.8083 -0.1719 -0.6453
 8180TIP3   OH245954   1.305   5.837   5.780  0.9941 -0.0883 -0.1569
 8180TIP3    H145955   1.317   5.766   5.843 -1.3920 -0.3673  0.0450
 8180TIP3    H245956   1.286   5.792   5.697  2.3831  0.3116 -0.7292
 8181TIP3   OH245957   5.925   1.946   0.571  0.3313  0.4391 -0.4906
 8181TIP3    H145958   5.905   1.871   0.627 -3.5552  1.3329 -0.3834
 8181TIP3    H245959   5.873   1.932   0.492 -1.0790  3.2192 -0.1925
 8182TIP3   OH245960   2.043   5.149  12.688 -0.3700 -0.5699  0.3561
 8182TIP3    H145961   2.030   5.235  12.649  1.0597 -0.2911  0.4343
 8182TIP3    H245962   2.016   5.160  12.779  1.7702  0.4142  0.9226
 8183TIP3   OH245963   5.898   3.828  16.687 -0.3781 -0.5527  1.0664
 8183TIP3    H145964   5.950   3.769  16.633 -2.9594 -0.6763 -1.5666
 8183TIP3    H245965   5.840   3.771  16.738 -1.7025 -0.4310 -0.2199
 8184TIP3   OH245966   0.160   4.684   0.966 -0.1962 -0.5568 -0.1359
 8184TIP3    H145967   0.095   4.613   0.968 -2.5318  1.4830  0.8691
 8184TIP3    H245968   0.112   4.762   0.993  2.8815  0.9718  1.4631
 8185TIP3   OH245969   2.795   5.758   5.572 -0.1384 -0.0352  0.0645
 8185TIP3    H145970   2.752   5.792   5.494 -1.5133  0.8381  1.1464
 8185TIP3    H245971   2.872   5.813   5.584  0.7672 -0.9395 -1.3018
 8186TIP3   OH245972   6.530   3.697   5.325 -0.0602 -0.3621 -0.0145
 8186TIP3    H145973   6.437   3.704   5.350  0.0960 -0.6563  0.6830
 8186TIP3    H245974   6.546   3.603   5.320  0.7194 -0.3937  1.9633
 8187TIP3   OH245975   0.618   2.383  11.249  0.3457  0.0987 -0.5382
 8187TIP3    H145976   0.631   2.466  11.204  0.8110 -0.3314 -1.2142
 8187TIP3    H245977   0.604   2.319  11.179  1.2842 -0.6178 -0.1054
 8188TIP3   OH245978   0.475   5.375  13.374  0.4636  0.7907  0.3309
 8188TIP3    H145979   0.461   5.306  13.439 -1.5390 -0.2325 -1.0509
 8188TIP3    H245980   0.429   5.451  13.409 -0.4106  0.3116  0.2582
 8189TIP3   OH245981   4.057   4.395  11.889 -0.7126  0.0583 -0.6685
 8189TIP3    H145982   4.087   4.461  11.951 -1.1460  0.0213 -0.4122
 8189TIP3    H245983   4.062   4.438  11.804 -0.8696  0.3806 -0.5160
 8190TIP3   OH245984   3.025   3.381   2.925 -0.7574 -0.0870  0.1807
 8190TIP3    H145985   3.081   3.459   2.919 -1.8876  0.6435 -1.5872
 8190TIP3    H245986   3.007   3.372   3.019 -0.1268  1.4288  0.4860
 8191TIP3   OH245987   0.392   0.824   2.152  0.4867  0.0873 -0.2605
 8191TIP3    H145988   0.461   0.889   2.166 -1.2067  1.9723 -0.1348
 8191TIP3    H245989   0.437   0.748   2.117  2.6586  1.1181  0.1412
 8192TIP3   OH245990   5.257   3.691   2.222 -0.1481 -0.1955 -0.0182
 8192TIP3    H145991   5.248   3.784   2.240 -0.7097 -0.6622  2.4933
 8192TIP3    H245992   5.190   3.673   2.155 -0.4549  1.0806 -0.0850
 8193TIP3   OH245993   5.884   4.846   3.150 -0.6162  0.2234 -0.4901
 8193TIP3    H145994   5.790   4.834   3.162 -0.5031  0.6205  0.9661
 8193TIP3    H245995   5.921   4.836   3.238  0.5006  1.8146 -0.7375
 8194TIP3   OH245996   4.454   4.556  17.060 -0.1576 -0.2154  0.1485
 8194TIP3    H145997   4.403   4.611  17.118 -0.9400 -0.3344 -0.4008
 8194TIP3    H245998   4.404   4.555  16.978  1.1603  0.3551 -0.7003
 8195TIP3   OH245999   3.721   0.775  10.972  0.4562 -0.3790  0.0501
 8195TIP3    H146000   3.729   0.829  10.893  1.5536  0.3658  0.6506
 8195TIP3    H246001   3.734   0.685  10.941  2.0980  0.0019 -0.4627
 8196TIP3   OH246002   4.535   3.045   6.069  0.1377 -0.1605 -0.2428
 8196TIP3    H146003   4.494   3.121   6.112  1.6723  0.0069  1.0028
 8196TIP3    H246004   4.482   2.971   6.098  0.0840  0.1644  0.5354
 8197TIP3   OH246005   3.376   1.175   0.847  0.3887  0.1484  0.3018
 8197TIP3    H146006   3.292   1.203   0.884 -2.0175 -1.6828 -3.2462
 8197TIP3    H246007   3.400   1.245   0.787 -0.1460 -0.5247 -0.7404
 8198TIP3   OH246008   1.685   6.233   3.211  0.5086  0.1334  0.2458
 8198TIP3    H146009   1.603   6.194   3.180  0.8481 -1.0856  0.8157
 8198TIP3    H246010   1.739   6.240   3.133  0.1878  0.1010  0.0185
 8199TIP3   OH246011   2.735   0.756   0.036  0.2654  0.6479  0.0804
 8199TIP3    H146012   2.650   0.797   0.018  0.3393  0.2687 -1.2593
 8199TIP3    H246013   2.796   0.828   0.045 -0.0198  0.8984  0.0257
 8200TIP3   OH246014   4.363   3.416  14.173 -0.1192 -0.3289  0.2512
 8200TIP3    H146015   4.451   3.406  14.138 -0.8458 -1.7154 -1.3484
 8200TIP3    H246016   4.339   3.506  14.152  1.7318  0.9131  2.8981
 8201TIP3   OH246017   2.604   3.027  15.636 -0.0860 -0.5470  0.1234
 8201TIP3    H146018   2.669   2.979  15.585 -0.3083 -0.4646 -0.2360
 8201TIP3    H246019   2.561   2.961  15.690  0.6003 -0.5429  0.7005
 8202TIP3   OH246020   0.663   3.213  16.166 -0.3762 -0.1729  0.3325
 8202TIP3    H146021   0.674   3.248  16.255  0.0952  1.3365 -0.2967
 8202TIP3    H246022   0.589   3.153  16.174  0.1592 -0.6911  1.9190
 8203TIP3   OH246023   5.977   4.999  15.757 -0.4729  0.5584 -0.2876
 8203TIP3    H146024   5.888   5.014  15.788 -0.0488  2.4225  0.1340
 8203TIP3    H246025   6.003   5.082  15.716  1.4680  0.4543  0.6188
 8204TIP3   OH246026   1.078   3.250   6.397  0.0204  0.5208  0.6476
 8204TIP3    H146027   1.156   3.209   6.434 -0.7077 -0.5918  0.9864
 8204TIP3    H246028   1.078   3.338   6.434  1.2965  0.6675  0.3597
 8205TIP3   OH246029   0.145   4.727   5.263 -0.4975  0.7287  0.1144
 8205TIP3    H146030   0.210   4.789   5.230 -0.8455  0.6157 -0.7943
 8205TIP3    H246031   0.184   4.693   5.344  1.3776 -0.6340 -1.2886
 8206TIP3   OH246032   0.796   1.576   4.654 -0.0914  0.3102 -0.1102
 8206TIP3    H146033   0.772   1.628   4.731 -0.5878  0.8602 -0.6265
 8206TIP3    H246034   0.825   1.492   4.690  0.2557  0.7726  0.7094
 8207TIP3   OH246035   1.520   0.910  13.120 -0.5424  0.4865 -0.0441
 8207TIP3    H146036   1.435   0.898  13.077 -0.6466  2.0467 -0.3539
 8207TIP3    H246037   1.507   0.876  13.209 -1.4844  0.6461 -0.1053
 8208TIP3   OH246038   0.795   6.549  11.137 -0.3517  0.3029 -0.4931
 8208TIP3    H146039   0.749   6.539  11.054 -0.8612 -0.2157 -0.1530
 8208TIP3    H246040   0.732   6.590  11.196  0.1954  1.2143 -0.5112
 8209TIP3   OH246041   4.163   6.512  14.381  0.1736 -0.8737 -0.3115
 8209TIP3    H146042   4.231   6.564  14.337  0.8651  0.9503  2.6123
 8209TIP3    H246043   4.200   6.424  14.385  0.6202 -0.8191 -2.1478
 8210TIP3   OH246044   1.368   3.950  16.980  0.1892  0.3101  0.3817
 8210TIP3    H146045   1.456   3.982  16.995  0.1063  0.4477  0.5759
 8210TIP3    H246046   1.311   4.023  17.002  0.1136  1.2984 -2.6829
 8211TIP3   OH246047   1.742   2.430  15.500 -0.2157 -0.2617 -0.3289
 8211TIP3    H146048   1.678   2.395  15.562 -0.3190 -1.1373 -0.9175
 8211TIP3    H246049   1.738   2.370  15.426  0.5220  0.2941 -0.8217
 8212TIP3   OH246050   0.835   4.710   4.632  0.1266 -0.4610 -0.1231
 8212TIP3    H146051   0.775   4.702   4.558 -0.1740  2.0311 -0.2210
 8212TIP3    H246052   0.899   4.640   4.617 -0.3938 -0.5683 -2.2705
 8213TIP3   OH246053   5.508   2.324  15.986 -0.1763  0.0069 -0.3988
 8213TIP3    H146054   5.436   2.382  16.010  0.2131  0.1624  0.4378
 8213TIP3    H246055   5.527   2.346  15.895  0.4409  1.7235  0.1001
 8214TIP3   OH246056   2.606   5.605  11.599  0.1845 -0.2080  0.0289
 8214TIP3    H146057   2.546   5.545  11.555  1.1123  0.3271 -2.0723
 8214TIP3    H246058   2.683   5.608  11.543  0.6354  2.0426  0.6671
 8215TIP3   OH246059   0.126   4.456   5.452 -0.3384 -0.6144  0.1403
 8215TIP3    H146060   0.080   4.412   5.524  0.0514 -0.2814  0.6025
 8215TIP3    H246061   0.148   4.386   5.391  0.5761 -1.1251  1.0265
 8216TIP3   OH246062   4.062   6.602  12.555 -0.1840 -0.0775  0.5545
 8216TIP3    H146063   3.986   6.660  12.559 -0.7478 -0.7319 -0.2041
 8216TIP3    H246064   4.111   6.632  12.479  1.0470  1.1838  1.8084
 8217TIP3   OH246065   4.367   5.747  15.328  0.8121 -0.0144  0.5201
 8217TIP3    H146066   4.387   5.752  15.421  1.6130  0.4080  0.3371
 8217TIP3    H246067   4.439   5.793  15.286  1.1734 -1.3587 -0.4050
 8218TIP3   OH246068   5.861   3.030   2.787 -0.1529  0.2128 -0.3977
 8218TIP3    H146069   5.797   3.028   2.716 -0.5923 -1.9894  0.0060
 8218TIP3    H246070   5.808   3.025   2.867  0.3461  2.4575  0.1581
 8219TIP3   OH246071   2.691   1.452  13.132 -0.2828 -0.4497  0.7123
 8219TIP3    H146072   2.752   1.489  13.196  0.5889 -1.1026  0.2762
 8219TIP3    H246073   2.692   1.358  13.149 -0.7161 -0.5318  0.3141
 8220TIP3   OH246074   3.121   2.859   5.681  0.0529 -0.1894  0.0749
 8220TIP3    H146075   3.127   2.925   5.612  2.3357 -0.3947 -0.0202
 8220TIP3    H246076   3.040   2.812   5.663  0.2044  0.2705 -2.0161
 8221TIP3   OH246077   2.920   5.526  12.164  0.0867  0.4016 -0.6338
 8221TIP3    H146078   2.845   5.585  12.176 -0.0864  0.0245  0.1804
 8221TIP3    H246079   2.889   5.442  12.197  1.1526  0.4416  0.5276
 8222TIP3   OH246080   5.360   4.744   5.913  0.0976  0.2362  0.4751
 8222TIP3    H146081   5.395   4.713   5.996  2.8855  1.9569  0.0524
 8222TIP3    H246082   5.410   4.696   5.846 -1.7189 -0.7224 -0.2862
 8223TIP3   OH246083   4.452   1.439  15.161 -0.1102 -0.6576 -0.3593
 8223TIP3    H146084   4.413   1.416  15.077  1.6632  0.9276 -1.7002
 8223TIP3    H246085   4.435   1.533  15.171 -0.4839 -0.8652  1.1759
 8224TIP3   OH246086   1.903   3.952  15.106 -0.2494  0.4470  0.1811
 8224TIP3    H146087   1.876   3.912  15.023  0.4575 -1.3748  0.7615
 8224TIP3    H246088   1.987   3.993  15.086  1.2391 -2.1948  0.4658
 8225TIP3   OH246089   1.004   2.779  12.767  0.6200  0.1934  0.2214
 8225TIP3    H146090   1.008   2.701  12.822 -2.4897 -0.3962 -0.1653
 8225TIP3    H246091   1.037   2.751  12.682  2.2799  0.1684  0.8493
 8226TIP3   OH246092   5.387   4.581  15.905 -0.0952 -0.2726 -0.4078
 8226TIP3    H146093   5.292   4.568  15.903 -0.1122 -0.1587 -0.3568
 8226TIP3    H246094   5.401   4.643  15.976 -0.1764  1.3041 -1.6910
 8227TIP3   OH246095   1.727   5.184  14.954 -0.7043 -0.4926  0.2536
 8227TIP3    H146096   1.735   5.155  14.863  1.1126  0.0759  0.1917
 8227TIP3    H246097   1.643   5.149  14.983 -0.5909 -2.0791 -1.1493
 8228TIP3   OH246098   1.405   1.400   2.319  0.4800 -0.7003 -0.3701
 8228TIP3    H146099   1.491   1.371   2.348  0.5206 -1.4120 -1.1722
 8228TIP3    H246100   1.415   1.414   2.225 -0.2407 -0.6412 -0.4413
 8229TIP3   OH246101   2.052   2.904   3.292  0.1794 -0.2994 -0.0761
 8229TIP3    H146102   2.074   2.954   3.213 -1.0476 -1.8672 -1.5080
 8229TIP3    H246103   2.124   2.842   3.302  0.3309 -0.1073  0.0158
 8230TIP3   OH246104   0.929   5.438  11.204  0.2429  0.1227  0.2748
 8230TIP3    H146105   0.924   5.490  11.284 -0.6193 -1.6375  1.4271
 8230TIP3    H246106   0.896   5.496  11.135 -2.6440  0.5095  1.8263
 8231TIP3   OH246107   2.752   4.197  16.776  0.0332 -0.3342  0.7186
 8231TIP3    H146108   2.818   4.132  16.799 -1.9946 -1.9402  2.4045
 8231TIP3    H246109   2.734   4.243  16.857 -0.5946  0.3800  0.1911
 8232TIP3   OH246110   6.323   5.067   5.225 -0.4189 -0.5619 -0.5428
 8232TIP3    H146111   6.414   5.070   5.195 -0.8907 -1.3026 -2.1601
 8232TIP3    H246112   6.311   4.977   5.255 -0.8212 -0.6679 -1.0214
 8233TIP3   OH246113   2.505   3.220   5.882 -0.2364 -0.4562  0.9378
 8233TIP3    H146114   2.478   3.206   5.973  0.3950 -0.8172  1.0726
 8233TIP3    H246115   2.468   3.146   5.834  0.6785 -1.0779  1.1622
 8234TIP3   OH246116   2.356   2.793   2.324 -0.4240  0.9538  0.3590
 8234TIP3    H146117   2.262   2.808   2.328 -0.4998  0.5578  0.0406
 8234TIP3    H246118   2.369   2.708   2.366 -0.3012  0.6418 -0.2893
 8235TIP3   OH246119   1.665   0.604  10.796  0.4531 -0.3617  0.3760
 8235TIP3    H146120   1.682   0.650  10.878 -0.6480  0.0464  0.3894
 8235TIP3    H246121   1.691   0.513  10.814  0.3592 -0.2444  1.1221
 8236TIP3   OH246122   3.588   5.823  12.035  0.3735 -0.1888 -0.0302
 8236TIP3    H146123   3.494   5.842  12.030  1.0073  3.3567 -2.5120
 8236TIP3    H246124   3.597   5.736  11.995 -1.9516 -1.9833  2.8780
 8237TIP3   OH246125   2.493   6.197   0.226  0.1429 -0.1558  0.1279
 8237TIP3    H146126   2.429   6.204   0.155  0.4509 -1.2677 -0.2720
 8237TIP3    H246127   2.555   6.130   0.197  1.5893  0.9749  0.4412
 8238TIP3   OH246128   5.183   6.553  16.193  0.2993  0.2834 -0.1457
 8238TIP3    H146129   5.167   6.531  16.285 -0.2736  1.1496 -0.0231
 8238TIP3    H246130   5.276   6.539  16.180  0.7838  2.0019  1.1189
 8239TIP3   OH246131   2.448   2.348   1.589  0.3161 -0.5197  0.0925
 8239TIP3    H146132   2.419   2.417   1.531  0.9717 -0.9426 -0.7652
 8239TIP3    H246133   2.504   2.392   1.653 -1.2683  0.1185  1.0983
 8240TIP3   OH246134   3.772   2.003  11.907 -0.5806  0.0689  0.0018
 8240TIP3    H146135   3.812   1.917  11.924  1.1146  1.1620  2.0675
 8240TIP3    H246136   3.680   1.983  11.888 -0.4223 -2.1731  1.2039
 8241TIP3   OH246137   0.672   0.950  14.537 -0.5612  1.0422  0.3782
 8241TIP3    H146138   0.764   0.942  14.564 -0.6900  1.8584  1.0883
 8241TIP3    H246139   0.677   0.954  14.441  0.1655  1.3355  0.4176
 8242TIP3   OH246140   0.059   6.700   6.663  0.0731 -0.6584 -0.5905
 8242TIP3    H146141   0.136   6.687   6.718 -0.1997 -0.3638 -0.1204
 8242TIP3    H246142   0.069   6.789   6.628  0.7575 -1.2149 -1.8698
 8243TIP3   OH246143   2.778   5.718   0.277  0.0881 -0.3179  0.3522
 8243TIP3    H146144   2.834   5.641   0.288 -0.3807 -1.1235 -2.1235
 8243TIP3    H246145   2.818   5.766   0.205 -1.7960 -0.3867 -0.8033
 8244TIP3   OH246146   1.098   4.677  15.164  0.1535 -0.3466  0.0535
 8244TIP3    H146147   1.095   4.597  15.215 -1.5532 -0.4215 -0.0872
 8244TIP3    H246148   1.093   4.747  15.229 -2.9071 -0.4471  0.0609
 8245TIP3   OH246149   4.270   4.558  15.128  0.2980  0.4922  0.1766
 8245TIP3    H146150   4.362   4.555  15.101 -0.5290 -0.2618 -2.9390
 8245TIP3    H246151   4.252   4.469  15.159  0.7246  0.8159  1.4331
 8246TIP3   OH246152   0.802   4.421  16.646  0.4421  0.4981  0.2171
 8246TIP3    H146153   0.745   4.372  16.588  1.1689 -0.5318  0.3535
 8246TIP3    H246154   0.855   4.355  16.690  1.0038  1.3614  0.8800
 8247TIP3   OH246155   4.385   4.580   2.338 -0.3214 -0.3968  0.0369
 8247TIP3    H146156   4.301   4.615   2.309  0.2407  0.3797 -0.6945
 8247TIP3    H246157   4.450   4.622   2.281  0.5010 -1.5794  0.0465
 8248TIP3   OH246158   2.763   5.621   2.137  0.2885  0.0930  0.1392
 8248TIP3    H146159   2.852   5.627   2.171 -0.7629  1.8006  2.9302
 8248TIP3    H246160   2.713   5.581   2.209 -1.4835  0.6420 -0.7318
 8249TIP3   OH246161   3.556   0.349   4.418 -0.1892 -0.2519  0.0142
 8249TIP3    H146162   3.517   0.310   4.496  0.4179  0.3725  0.6497
 8249TIP3    H246163   3.628   0.290   4.395  0.3169  0.1403  0.5821
 8250TIP3   OH246164   2.127   1.079  11.856  0.5995 -0.0039  0.3502
 8250TIP3    H146165   2.168   1.087  11.942 -0.9982  2.3802  1.0044
 8250TIP3    H246166   2.188   1.120  11.795 -0.4710  3.2048  1.2584
 8251TIP3   OH246167   4.528   0.786   2.761  0.0472  1.2012  0.2780
 8251TIP3    H146168   4.505   0.698   2.793  0.3335 -0.2803 -3.1220
 8251TIP3    H246169   4.623   0.782   2.745 -0.4361  0.6331 -3.4591
 8252TIP3   OH246170   2.710   2.835   6.007 -0.2297  0.1338 -0.3857
 8252TIP3    H146171   2.640   2.789   5.961 -0.6672 -0.5149  0.8794
 8252TIP3    H246172   2.753   2.768   6.059  1.3224  0.5345 -1.0942
 8253TIP3   OH246173   1.130   5.040   6.207 -0.3184 -0.1147 -0.3502
 8253TIP3    H146174   1.192   4.979   6.165  1.1576 -0.5710  2.2671
 8253TIP3    H246175   1.170   5.126   6.194 -0.3707 -0.1323 -0.6574
 8254TIP3   OH246176   2.259   4.078  12.738  0.3586  0.3720 -0.3401
 8254TIP3    H146177   2.182   4.072  12.795 -0.8470 -0.6927 -1.9910
 8254TIP3    H246178   2.319   4.136  12.785 -1.3516  1.0655  1.1098
 8255TIP3   OH246179   0.415   6.457   3.573  0.6627 -0.3345 -0.0655
 8255TIP3    H146180   0.474   6.408   3.631  1.2730  0.0417 -0.3534
 8255TIP3    H246181   0.373   6.521   3.631  1.1055 -0.1040  0.0090
 8256TIP3   OH246182   4.624   6.450   4.862  0.2388 -0.4494  0.2111
 8256TIP3    H146183   4.602   6.364   4.897 -2.5637  0.1811  0.2470
 8256TIP3    H246184   4.554   6.469   4.799  1.5102  1.2544 -0.7886
 8257TIP3   OH246185   5.520   4.709  14.842  0.1552 -0.7017  0.0786
 8257TIP3    H146186   5.532   4.628  14.892  1.6920 -1.8254 -1.9601
 8257TIP3    H246187   5.562   4.692  14.758 -0.7858  1.7201 -0.9785
 8258TIP3   OH246188   0.678   5.804   2.293  0.8381 -0.3893  0.7679
 8258TIP3    H146189   0.638   5.832   2.375  0.4807  0.0688  0.4426
 8258TIP3    H246190   0.661   5.876   2.232 -3.9463 -2.9135 -1.4230
 8259TIP3   OH246191   3.833   4.988   2.746  0.0563  0.1746 -0.0058
 8259TIP3    H146192   3.805   5.077   2.723  0.8425  0.6696  0.8701
 8259TIP3    H246193   3.875   4.955   2.667  1.1306  1.1727  0.1172
 8260TIP3   OH246194   6.160   5.416  13.425 -0.2341  0.5058 -0.7008
 8260TIP3    H146195   6.065   5.417  13.412 -0.5878  0.9795  1.4529
 8260TIP3    H246196   6.181   5.505  13.454  0.4107 -0.2349  1.3194
 8261TIP3   OH246197   1.803   5.115   6.072 -0.4435 -0.5321 -0.3048
 8261TIP3    H146198   1.743   5.074   6.011 -1.3650 -0.5464  0.5903
 8261TIP3    H246199   1.850   5.042   6.113 -1.8357 -0.7457  1.0324
 8262TIP3   OH246200   4.562   5.444   1.512  0.2167  0.1924 -0.0596
 8262TIP3    H146201   4.549   5.357   1.475  0.4990  0.4588 -0.8230
 8262TIP3    H246202   4.583   5.429   1.604 -0.9900 -0.4687  0.1189
 8263TIP3   OH246203   4.273   3.803  14.951  0.7106  0.3264 -0.0614
 8263TIP3    H146204   4.243   3.879  15.002 -0.7649 -0.5961  0.5052
 8263TIP3    H246205   4.354   3.777  14.993  0.6860  0.9543  0.3923
 8264TIP3   OH246206   3.389   2.800  11.425  0.2220 -0.2690 -0.4853
 8264TIP3    H146207   3.467   2.747  11.408  1.1769  1.5010 -1.9652
 8264TIP3    H246208   3.373   2.791  11.519  2.7261 -0.0284  0.0139
 8265TIP3   OH246209   5.690   4.669   1.036  0.1588  0.0170 -0.3307
 8265TIP3    H146210   5.599   4.671   1.063 -0.3236 -0.4105 -1.8256
 8265TIP3    H246211   5.739   4.657   1.117 -1.1331 -0.2263  0.4356
 8266TIP3   OH246212   3.497   4.109  15.071 -0.5063  0.1030  0.1129
 8266TIP3    H146213   3.412   4.091  15.030  0.4434  0.5772 -2.2051
 8266TIP3    H246214   3.479   4.178  15.134 -1.5636  1.7648 -1.8680
 8267TIP3   OH246215   2.159   1.238  16.488  0.0959  0.6539 -0.1144
 8267TIP3    H146216   2.160   1.299  16.414 -1.9993  1.1858  0.2278
 8267TIP3    H246217   2.089   1.176  16.467  0.7411 -0.3298  0.5567
 8268TIP3   OH246218   2.523   3.570  15.967  0.6747 -0.0565 -0.3713
 8268TIP3    H146219   2.567   3.649  15.933  0.6197 -0.2306 -0.8616
 8268TIP3    H246220   2.430   3.593  15.967  0.7907  0.4840  1.1297
 8269TIP3   OH246221   4.834   6.341   5.459 -0.3632 -0.0714  0.6094
 8269TIP3    H146222   4.780   6.420   5.461 -1.2842 -0.4108 -3.1427
 8269TIP3    H246223   4.872   6.340   5.371  3.3484 -1.5208  2.0214
 8270TIP3   OH246224   1.010   2.122   0.800  0.0802  0.4523 -0.0893
 8270TIP3    H146225   0.981   2.154   0.715  1.6865 -0.1684 -0.8941
 8270TIP3    H246226   0.980   2.031   0.803 -1.5519  0.9707  0.8056
 8271TIP3   OH246227   3.006   3.555  10.656  0.2700 -0.7385  0.3926
 8271TIP3    H146228   3.056   3.477  10.680 -3.1854 -2.5027  2.6903
 8271TIP3    H246229   2.918   3.540  10.691 -0.7624  4.0494  0.6259
 8272TIP3   OH246230   3.107   1.667   0.536  0.3353  0.9909 -0.2821
 8272TIP3    H146231   3.116   1.693   0.627 -0.7660 -1.2587  0.5378
 8272TIP3    H246232   3.031   1.714   0.504  0.1282  1.0348  0.2738
 8273TIP3   OH246233   5.085   5.960   3.685  0.3209 -0.2275 -0.9627
 8273TIP3    H146234   5.066   6.053   3.702 -0.9211 -0.6743  0.3374
 8273TIP3    H246235   5.049   5.914   3.761  2.9064 -1.6041 -0.4633
 8274TIP3   OH246236   1.824   2.573  11.441  0.0609  0.9310 -0.2940
 8274TIP3    H146237   1.762   2.643  11.421 -0.7893 -0.0472 -1.2639
 8274TIP3    H246238   1.864   2.552  11.357  0.3602  0.3083 -0.0039
 8275TIP3   OH246239   6.745   3.572  13.653 -0.3082  0.3249  0.5136
 8275TIP3    H146240   6.751   3.509  13.725 -1.1821 -0.9475 -0.4630
 8275TIP3    H246241   6.658   3.555  13.615  0.0565  1.0884 -0.7093
 8276TIP3   OH246242   0.782   6.392   3.552  0.4801  0.3265  0.3714
 8276TIP3    H146243   0.717   6.322   3.543  1.0164 -0.4105  1.8612
 8276TIP3    H246244   0.847   6.373   3.484  0.3415 -0.2981  0.4091
 8277TIP3   OH246245   0.288   3.784  16.356  0.0530 -0.3880  0.1738
 8277TIP3    H146246   0.255   3.696  16.336 -0.1447 -0.9972  2.8107
 8277TIP3    H246247   0.241   3.841  16.295  0.0328 -2.0629 -1.4628
 8278TIP3   OH246248   4.666   2.108   2.794 -0.2261 -0.1886  0.5660
 8278TIP3    H146249   4.581   2.072   2.819  0.1304 -2.2838 -1.0005
 8278TIP3    H246250   4.648   2.200   2.774 -2.5920 -0.9978 -1.5773
 8279TIP3   OH246251   3.559   3.884   5.511  0.2280 -0.1230  0.4609
 8279TIP3    H146252   3.645   3.841   5.501  0.3214 -0.0843  1.0509
 8279TIP3    H246253   3.574   3.951   5.578 -0.0513  0.4733 -0.0737
 8280TIP3   OH246254   1.627   6.278   6.361  0.4332 -0.0860  0.2406
 8280TIP3    H146255   1.652   6.235   6.443  2.2443 -0.5517 -0.5111
 8280TIP3    H246256   1.707   6.323   6.332 -0.7313  1.7912 -0.2537
 8281TIP3   OH246257   3.414   3.293  17.349 -0.0556  0.3771  0.0066
 8281TIP3    H146258   3.345   3.359  17.355 -0.8083 -0.5244  2.5523
 8281TIP3    H246259   3.368   3.209  17.358  1.0317 -0.4637 -1.7182
 8282TIP3   OH246260   2.446   4.207  12.088 -0.5307 -1.2119  0.0766
 8282TIP3    H146261   2.504   4.283  12.092  0.5304 -2.0252  0.7935
 8282TIP3    H246262   2.386   4.218  12.161 -0.3552 -1.0811  0.2018
 8283TIP3   OH246263   4.691   6.050  16.526 -0.0106 -0.2900  0.3198
 8283TIP3    H146264   4.714   6.044  16.433 -1.7962 -0.9081 -0.1342
 8283TIP3    H246265   4.774   6.051  16.572  0.9214  0.4233 -1.3145
 8284TIP3   OH246266   6.205   0.998   1.722  0.1670 -0.2891 -0.1927
 8284TIP3    H146267   6.207   1.077   1.668  1.7103 -0.2000 -0.0518
 8284TIP3    H246268   6.297   0.981   1.743  0.2831 -3.8460 -2.7025
 8285TIP3   OH246269   5.316   6.475  11.572 -0.0938  0.4740  0.4922
 8285TIP3    H146270   5.401   6.431  11.559  0.2812  1.2336  0.3054
 8285TIP3    H246271   5.309   6.485  11.667 -0.1026  0.1573  0.5249
 8286TIP3   OH246272   0.806   2.470   2.165 -0.4629 -0.5206  0.0594
 8286TIP3    H146273   0.801   2.565   2.171 -0.9397 -0.5255 -0.2694
 8286TIP3    H246274   0.899   2.450   2.181  0.1207  0.1561 -2.1695
 8287TIP3   OH246275   2.302   4.956  15.128 -0.3578  0.4211 -0.1613
 8287TIP3    H146276   2.352   5.037  15.118 -0.2382  0.3684  0.0150
 8287TIP3    H246277   2.346   4.893  15.070 -1.0802  0.7662 -1.1205
 8288TIP3   OH246278   3.607   4.742   5.340 -0.3062 -0.4268  0.2870
 8288TIP3    H146279   3.579   4.652   5.353  0.0014 -0.4569  0.7589
 8288TIP3    H246280   3.527   4.789   5.315 -0.1684 -1.1789 -1.8156
 8289TIP3   OH246281   4.423   1.505   5.872 -0.0941  0.6739  0.3975
 8289TIP3    H146282   4.486   1.524   5.941  0.2919  1.5810 -0.1899
 8289TIP3    H246283   4.476   1.477   5.798 -0.5936 -2.3241  1.0184
 8290TIP3   OH246284   1.511   6.135  15.104 -0.0828  0.2934  0.0023
 8290TIP3    H146285   1.416   6.135  15.111 -0.0991  3.0025  1.1810
 8290TIP3    H246286   1.540   6.191  15.176  2.3953 -0.0718 -0.6193
 8291TIP3   OH246287   2.961   1.801  14.464 -0.1040  0.2896  0.2130
 8291TIP3    H146288   2.898   1.730  14.471  0.4078 -0.1975  0.0027
 8291TIP3    H246289   2.979   1.826  14.555 -1.2889  1.0771  0.2511
 8292TIP3   OH246290   2.842   6.639  12.140 -0.2566 -0.2015  0.0835
 8292TIP3    H146291   2.890   6.659  12.220 -2.4475  2.1683  0.9486
 8292TIP3    H246292   2.851   6.719  12.087 -3.1569  0.3753  0.3293
 8293TIP3   OH246293   0.705   5.241  15.256  0.1468  0.0278 -0.0649
 8293TIP3    H146294   0.656   5.178  15.203  0.8545 -0.2518 -0.3946
 8293TIP3    H246295   0.672   5.228  15.345 -1.7385  1.1470 -0.5183
 8294TIP3   OH246296   5.644   3.370  17.321  0.4104  0.0128 -0.5132
 8294TIP3    H146297   5.690   3.422  17.387  2.0858  0.0323 -1.6436
 8294TIP3    H246298   5.612   3.294  17.369 -0.1039  0.9485  0.6953
 8295TIP3   OH246299   4.718   0.524   1.881  0.5103 -0.0694 -0.0468
 8295TIP3    H146300   4.814   0.529   1.883  0.5223 -0.2412 -0.1696
 8295TIP3    H246301   4.689   0.611   1.908  0.7225  1.3004 -3.6800
 8296TIP3   OH246302   3.716   2.275  11.620  0.1106  0.4712 -0.1346
 8296TIP3    H146303   3.784   2.244  11.559 -0.4554  1.2328 -1.1842
 8296TIP3    H246304   3.650   2.206  11.619  0.6231 -0.0492  0.5219
 8297TIP3   OH246305   5.104   1.741  16.786 -0.0138 -0.2126  0.3943
 8297TIP3    H146306   5.021   1.719  16.744  0.1979  1.1980 -0.8357
 8297TIP3    H246307   5.152   1.790  16.720  1.7278 -0.8127  1.1665
 8298TIP3   OH246308   1.094   3.126   1.720  0.1006  0.1780  0.2660
 8298TIP3    H146309   1.040   3.183   1.773 -1.6386 -1.6966  0.6451
 8298TIP3    H246310   1.165   3.182   1.688 -0.8886  2.2250  1.4834
 8299TIP3   OH246311   1.277   2.302   2.467 -0.4908  0.3629 -0.2986
 8299TIP3    H146312   1.349   2.282   2.407 -0.3193 -0.4289  0.1510
 8299TIP3    H246313   1.205   2.247   2.436 -0.1181 -0.7638  0.7572
 8300TIP3   OH246314   5.794   2.508  16.868 -0.9249  0.0920  0.3843
 8300TIP3    H146315   5.828   2.421  16.847 -1.1447  0.2792 -0.7964
 8300TIP3    H246316   5.708   2.511  16.825 -0.6976  1.0787 -0.0120
 8301TIP3   OH246317   2.206   6.632   0.451 -0.1108  0.2120 -0.5489
 8301TIP3    H146318   2.150   6.580   0.509  0.7671 -0.5497 -0.3652
 8301TIP3    H246319   2.262   6.568   0.407 -0.7202  0.7658 -2.2290
 8302TIP3   OH246320   4.310   1.507   3.799  0.1090 -0.3063 -0.0474
 8302TIP3    H146321   4.395   1.507   3.843  0.2991 -1.4600 -0.3794
 8302TIP3    H246322   4.246   1.517   3.870  0.3665 -2.9983  0.6653
 8303TIP3   OH246323   4.311   6.409   3.925 -0.4590 -1.2069 -0.6223
 8303TIP3    H146324   4.395   6.443   3.956 -1.8832  1.3920  0.7661
 8303TIP3    H246325   4.248   6.478   3.948 -2.8579 -2.6960 -2.3260
 8304TIP3   OH246326   0.079   6.755   5.314  0.3862  0.2151  0.0496
 8304TIP3    H146327  -0.002   6.799   5.338  0.9569  0.6011  1.3671
 8304TIP3    H246328   0.129   6.821   5.265  0.4683  0.4440  0.4323
 8305TIP3   OH246329   0.358   1.349  15.292  0.2008 -0.2315 -0.0194
 8305TIP3    H146330   0.305   1.370  15.369 -1.6402 -1.6362 -0.8289
 8305TIP3    H246331   0.295   1.322  15.226  1.7944  0.1671 -1.7977
 8306TIP3   OH246332   1.705   3.005  13.489  0.4532 -0.1378 -1.0830
 8306TIP3    H146333   1.756   3.058  13.550  0.9902 -0.3822 -1.3125
 8306TIP3    H246334   1.713   3.050  13.405  2.2021 -1.3734 -1.6317
 8307TIP3   OH246335   1.104   2.016   5.196  0.1267  0.4352  0.0216
 8307TIP3    H146336   1.118   1.957   5.123  1.5307  1.0783 -0.2693
 8307TIP3    H246337   1.151   2.096   5.171 -3.0701  2.3723 -0.3877
 8308TIP3   OH246338   5.004   3.351  12.374  0.5221 -0.0998 -0.1027
 8308TIP3    H146339   5.090   3.354  12.417 -0.1823  0.5343  1.3269
 8308TIP3    H246340   5.015   3.406  12.296  1.4257 -0.0557  0.0421
 8309TIP3   OH246341   2.688   0.968   5.540  0.0603 -0.1689  0.1928
 8309TIP3    H146342   2.746   0.994   5.468 -1.2181 -0.5680 -1.0432
 8309TIP3    H246343   2.718   0.880   5.563  0.3642 -0.1125  0.0280
 8310TIP3   OH246344   6.121   3.687  14.771  0.0159  0.4780  0.7294
 8310TIP3    H146345   6.115   3.760  14.834 -0.2767  0.0162  1.2506
 8310TIP3    H246346   6.037   3.642  14.780 -1.4095  2.1956 -2.2720
 8311TIP3   OH246347   3.139   0.023   4.866  0.6600  0.3557 -0.6139
 8311TIP3    H146348   3.051   0.058   4.881  1.3200  2.0682 -0.4562
 8311TIP3    H246349   3.164   0.059   4.780  1.0311 -0.4940 -0.8694
 8312TIP3   OH246350   3.908   4.739  11.119  0.4713  0.4836  0.1161
 8312TIP3    H146351   3.950   4.667  11.073 -0.6527 -0.1998  0.1226
 8312TIP3    H246352   3.838   4.767  11.059  1.6729  2.4270 -0.4647
 8313TIP3   OH246353   4.501   0.442  14.365  0.2869  0.0426 -0.1626
 8313TIP3    H146354   4.514   0.417  14.457  0.4067 -0.8236 -0.4014
 8313TIP3    H246355   4.406   0.458  14.359  0.1258 -0.8062 -0.0878
 8314TIP3   OH246356   3.868   4.838   5.322  0.5980  0.3643  0.2555
 8314TIP3    H146357   3.774   4.819   5.331  0.2028  0.8893 -2.0790
 8314TIP3    H246358   3.874   4.933   5.329  0.8693  0.3739 -0.0750
 8315TIP3   OH246359   2.007   6.338   2.809 -0.3315  0.5159  0.0813
 8315TIP3    H146360   2.093   6.379   2.803  1.2536 -2.4987 -0.0925
 8315TIP3    H246361   1.994   6.298   2.724 -0.9338 -0.7621  0.7431
 8316TIP3   OH246362   0.097   5.937  15.900 -0.2290 -1.1065  0.2941
 8316TIP3    H146363   0.034   5.897  15.960 -0.2549 -0.2277  0.8690
 8316TIP3    H246364   0.096   6.030  15.923  1.7113 -1.1459  0.7124
 8317TIP3   OH246365   5.653   0.299   3.045  0.1266 -0.8119  0.1087
 8317TIP3    H146366   5.582   0.357   3.073  0.1797 -0.7422  0.0970
 8317TIP3    H246367   5.680   0.333   2.960 -0.0736 -1.0581 -0.0570
 8318TIP3   OH246368   2.026   0.080  12.899 -0.8217 -0.7445 -0.3980
 8318TIP3    H146369   1.994   0.153  12.951  0.6626  1.4394 -2.3747
 8318TIP3    H246370   1.956   0.061  12.836 -0.0524  1.1404 -1.9057
 8319TIP3   OH246371   3.261   1.719  14.768  0.5378 -0.4598 -0.1571
 8319TIP3    H146372   3.291   1.637  14.807 -0.3419 -1.8371 -2.2313
 8319TIP3    H246373   3.313   1.729  14.689  0.2929  0.7621 -0.1888
 8320TIP3   OH246374   4.906   6.310   2.293  0.0574 -0.0254  0.2127
 8320TIP3    H146375   4.866   6.391   2.262  1.1829  0.4022 -0.1466
 8320TIP3    H246376   4.914   6.255   2.214 -1.0370 -0.6509  0.5127
 8321TIP3   OH246377   0.890   1.119  14.486  0.1120 -0.2028  0.4025
 8321TIP3    H146378   0.867   1.070  14.407 -1.3677 -2.1870  1.9547
 8321TIP3    H246379   0.888   1.211  14.459 -0.8851 -0.8023 -1.7371
 8322TIP3   OH246380   1.183   3.949  13.384 -0.2322 -0.1234 -0.1886
 8322TIP3    H146381   1.245   3.978  13.317 -0.1862  0.4318  0.0922
 8322TIP3    H246382   1.219   3.865  13.414  0.3380  0.1520 -0.0899
 8323TIP3   OH246383   2.371   4.345  11.776  0.6794 -0.0956 -0.0821
 8323TIP3    H146384   2.375   4.421  11.719 -1.6155  0.4310  0.3623
 8323TIP3    H246385   2.340   4.379  11.859  0.5341 -1.3937  0.4174
 8324TIP3   OH246386   1.904   1.547   1.443 -0.1384  0.3496  0.2697
 8324TIP3    H146387   1.871   1.490   1.374 -1.4438  1.1179  0.2079
 8324TIP3    H246388   1.887   1.636   1.410 -0.3427  0.7341  1.3582
 8325TIP3   OH246389   2.203   0.314   2.518  0.1549 -0.8524  0.3145
 8325TIP3    H146390   2.185   0.259   2.594  0.6026 -1.9204 -0.3236
 8325TIP3    H246391   2.168   0.265   2.444  0.7447 -0.3758 -0.2913
 8326TIP3   OH246392   3.617   2.194   4.783  0.7635  0.1860  0.3571
 8326TIP3    H146393   3.528   2.226   4.768  1.0750  0.7165 -0.4419
 8326TIP3    H246394   3.648   2.168   4.697  0.6294 -2.0841  0.9341
 8327TIP3   OH246395   1.195   0.483   4.390  0.3231 -0.2123 -0.6651
 8327TIP3    H146396   1.272   0.426   4.396 -0.7978 -1.6665  2.9742
 8327TIP3    H246397   1.215   0.556   4.448 -0.5842 -0.0549 -0.5389
 8328TIP3   OH246398   5.550   0.923   4.326 -0.8216  0.1574  0.1850
 8328TIP3    H146399   5.458   0.906   4.346 -0.9642 -0.1658 -0.7189
 8328TIP3    H246400   5.594   0.840   4.342 -0.5608  0.4910  1.2779
 8329TIP3   OH246401   5.921   2.919  14.765  0.4291 -0.2747  0.0639
 8329TIP3    H146402   5.913   2.981  14.692 -1.0377 -0.2283  0.2476
 8329TIP3    H246403   5.950   2.838  14.723 -2.0841 -0.7735 -0.9019
 8330TIP3   OH246404   0.576   1.779   2.899 -0.0487 -0.0819 -0.2006
 8330TIP3    H146405   0.586   1.766   2.805  0.6191 -1.3679  0.0328
 8330TIP3    H246406   0.550   1.871   2.907  1.1058  0.4058 -1.5634
 8331TIP3   OH246407   5.804   3.501  12.862  0.2744 -0.7172 -0.3099
 8331TIP3    H146408   5.895   3.480  12.838  0.3114  1.0764 -1.9813
 8331TIP3    H246409   5.773   3.556  12.791 -1.9840 -0.8619  0.5045
 8332TIP3   OH246410   5.246   0.274  12.118 -0.7601 -0.1510  0.1266
 8332TIP3    H146411   5.216   0.216  12.188 -0.4226  1.3951  1.6291
 8332TIP3    H246412   5.234   0.223  12.038 -0.4335 -2.2866  1.3598
 8333TIP3   OH246413   6.751   3.981  16.068  0.1736 -0.2297 -0.2979
 8333TIP3    H146414   6.803   3.964  15.990 -1.9145 -2.0644 -1.4286
 8333TIP3    H246415   6.700   4.059  16.047 -0.9579 -1.1587 -1.1669
 8334TIP3   OH246416   0.055   5.034  14.755  0.8608  0.3265 -1.0338
 8334TIP3    H146417   0.070   4.952  14.707  0.3033 -0.5197  0.1796
 8334TIP3    H246418  -0.040   5.040  14.764  0.9628  0.1357  0.4646
 8335TIP3   OH246419   5.957   6.475   3.363 -0.2324 -0.4060 -0.2808
 8335TIP3    H146420   5.931   6.408   3.300  1.5187 -0.6666 -0.7770
 8335TIP3    H246421   6.035   6.439   3.406 -0.3712  0.5195  0.7965
 8336TIP3   OH246422   5.353   6.387   5.291  0.3303 -0.2596  0.1570
 8336TIP3    H146423   5.361   6.329   5.216  4.2798 -0.4238  0.4975
 8336TIP3    H246424   5.376   6.331   5.366 -2.6433  0.1202  1.4755
 8337TIP3   OH246425   2.593   6.650   1.386 -0.1595  0.4587  0.1992
 8337TIP3    H146426   2.651   6.635   1.311  1.4765  0.2258  1.4430
 8337TIP3    H246427   2.517   6.594   1.370  0.1177  0.4648 -1.2993
 8338TIP3   OH246428   2.621   0.163  13.214  0.1782 -0.3682 -0.4414
 8338TIP3    H146429   2.618   0.151  13.120 -1.8921 -1.3804 -0.2990
 8338TIP3    H246430   2.708   0.200  13.231  0.9788 -1.1066 -2.6086
 8339TIP3   OH246431   0.918   3.581   1.580  0.2530 -0.1408 -0.1936
 8339TIP3    H146432   0.934   3.516   1.512  0.2508  0.7568 -1.0834
 8339TIP3    H246433   0.856   3.539   1.639 -0.7483 -0.5029 -1.4498
 8340TIP3   OH246434   2.551   3.547  16.440 -0.1078  0.2322 -0.9222
 8340TIP3    H146435   2.565   3.481  16.371  2.1164  1.0199 -1.2911
 8340TIP3    H246436   2.457   3.566  16.435 -0.3629 -1.1482 -2.4161
 8341TIP3   OH246437   4.266   5.411   2.649  0.2420  0.1341  0.2237
 8341TIP3    H146438   4.234   5.437   2.735 -0.2207 -0.6360  0.2974
 8341TIP3    H246439   4.186   5.390   2.600  0.4612  1.1829 -0.6029
 8342TIP3   OH246440   5.268   4.869  17.368  0.1246 -0.4166 -0.2893
 8342TIP3    H146441   5.225   4.823  17.296  0.2633  2.7157 -2.6065
 8342TIP3    H246442   5.357   4.885  17.337  0.0324  1.4725  0.2862
 8343TIP3   OH246443   4.843   0.240  14.370 -0.1485  0.5014  0.0559
 8343TIP3    H146444   4.860   0.332  14.388  0.2603  0.1704  1.4670
 8343TIP3    H246445   4.894   0.193  14.435  0.6293 -0.7765 -1.4128
 8344TIP3   OH246446   3.725   2.881  16.647  0.5918  0.8828 -0.0013
 8344TIP3    H146447   3.819   2.882  16.632  0.5218  0.2313 -0.5389
 8344TIP3    H246448   3.708   2.797  16.690  0.4043  1.5162  1.2042
 8345TIP3   OH246449   5.903   5.129   4.496 -0.4279 -0.1502 -0.4151
 8345TIP3    H146450   5.894   5.146   4.590  0.1582  1.8764 -0.6657
 8345TIP3    H246451   5.951   5.047   4.491  0.0239 -0.0153  1.0763
 8346TIP3   OH246452   4.840   1.852  11.842  0.0749  0.2493 -0.2399
 8346TIP3    H146453   4.752   1.871  11.876 -0.4612 -0.7790 -1.0166
 8346TIP3    H246454   4.898   1.898  11.902 -0.8619 -0.9587  1.7136
 8347TIP3   OH246455   1.755   4.017  12.747 -0.6989  0.0450 -0.4437
 8347TIP3    H146456   1.765   3.979  12.660 -2.5339 -0.9807 -0.2646
 8347TIP3    H246457   1.841   4.055  12.766 -0.3337  0.5768 -2.7990
 8348TIP3   OH246458   5.123   0.990   4.157  0.2175  0.6471  0.2064
 8348TIP3    H146459   5.097   1.073   4.117 -0.0677  0.3116 -0.3183
 8348TIP3    H246460   5.108   1.003   4.251 -1.0949  0.7440  0.0046
 8349TIP3   OH246461   3.386   0.695   1.575  0.6070  0.4487 -0.4950
 8349TIP3    H146462   3.468   0.690   1.527  2.0366 -0.4737  1.9086
 8349TIP3    H246463   3.363   0.788   1.574  2.1984  0.8607 -0.3555
 8350TIP3   OH246464   3.177   6.118  16.365 -0.2915  0.1806 -0.6390
 8350TIP3    H146465   3.158   6.148  16.454 -1.9181  0.9833 -1.2039
 8350TIP3    H246466   3.100   6.145  16.314  0.6287 -0.1920 -2.3026
 8351TIP3   OH246467   3.187   2.181   4.059  0.5531  0.0741  0.0858
 8351TIP3    H146468   3.188   2.231   4.141  1.7742  0.1370  0.0497
 8351TIP3    H246469   3.214   2.093   4.086  1.3088  0.1845 -0.2970
 8352TIP3   OH246470   0.529   2.405  17.124  0.2397 -0.4189  0.6209
 8352TIP3    H146471   0.580   2.362  17.192 -0.0857 -1.1265  0.4244
 8352TIP3    H246472   0.581   2.394  17.045  0.5886  0.3511  0.7356
 8353TIP3   OH246473   4.823   4.217   2.759  0.9937  0.5503 -0.4485
 8353TIP3    H146474   4.788   4.284   2.700  1.2420 -0.6391 -2.0021
 8353TIP3    H246475   4.899   4.181   2.713 -1.1016 -3.2090 -1.3737
 8354TIP3   OH246476   1.663   3.510  16.055  0.0952 -0.2050  0.0272
 8354TIP3    H146477   1.651   3.535  16.146 -0.5138  2.8753 -0.7706
 8354TIP3    H246478   1.574   3.501  16.021  0.3160 -1.5772 -0.2441
 8355TIP3   OH246479   6.647   4.192   0.708 -0.1529  0.1346 -0.4260
 8355TIP3    H146480   6.624   4.267   0.763  1.4007  0.4560 -0.1831
 8355TIP3    H246481   6.722   4.152   0.752 -0.5916 -1.2342 -0.8656
 8356TIP3   OH246482   3.380   4.181  12.156  0.5098  0.4735 -0.4601
 8356TIP3    H146483   3.399   4.206  12.247 -2.3528  0.3885  0.2606
 8356TIP3    H246484   3.418   4.094  12.147 -1.0246 -0.4782  1.4616
 8357TIP3   OH246485   6.345   2.732   5.846 -0.2460  0.2854  0.0219
 8357TIP3    H146486   6.379   2.645   5.866 -1.7618 -0.2219  0.5636
 8357TIP3    H246487   6.336   2.733   5.751 -0.3491 -0.2135  0.0225
 8358TIP3   OH246488   3.254   0.109  13.599  0.0922  0.3675  0.6359
 8358TIP3    H146489   3.196   0.172  13.555  0.7177  0.2561 -0.4004
 8358TIP3    H246490   3.239   0.026  13.553 -0.2031 -0.0807  1.5228
 8359TIP3   OH246491   3.637   6.538  14.051  0.4111 -0.2305 -0.0823
 8359TIP3    H146492   3.608   6.616  14.003  2.0540  0.4692 -0.0066
 8359TIP3    H246493   3.638   6.566  14.143  2.5121  0.2166 -0.1922
 8360TIP3   OH246494   2.957   2.224  16.765 -0.5881  0.7567 -0.1666
 8360TIP3    H146495   3.008   2.261  16.694  0.2875 -1.4447 -0.7643
 8360TIP3    H246496   2.943   2.133  16.741 -0.7963  0.0842  2.1811
 8361TIP3   OH246497   1.854   2.845   0.437  0.4933 -0.2824  0.3470
 8361TIP3    H146498   1.941   2.860   0.401  0.4903 -0.7922  0.1274
 8361TIP3    H246499   1.819   2.933   0.451 -0.3076  0.0048 -2.7915
 8362TIP3   OH246500   5.975   2.687   1.410  0.3244  0.1776 -0.2383
 8362TIP3    H146501   5.936   2.773   1.428  0.2147  0.5830 -2.2299
 8362TIP3    H246502   6.049   2.706   1.352  0.1779 -1.1012 -0.8690
 8363TIP3   OH246503   5.314   6.269   5.579 -0.2363 -0.2364  1.0132
 8363TIP3    H146504   5.235   6.216   5.569 -0.9355  0.9732 -0.0814
 8363TIP3    H246505   5.284   6.359   5.571  1.3865  0.2254 -0.5836
 8364TIP3   OH246506   6.349   0.200   1.548  0.4532 -0.4970  0.4173
 8364TIP3    H146507   6.256   0.206   1.570  0.7548  1.8891  1.3647
 8364TIP3    H246508   6.350   0.196   1.452 -0.6233 -0.9610  0.4022
 8365TIP3   OH246509   2.725   3.680   1.368  0.3126  0.3499  0.2219
 8365TIP3    H146510   2.695   3.589   1.373  1.7863 -0.1634  0.2806
 8365TIP3    H246511   2.645   3.732   1.375 -0.5481 -0.9325  0.3248
 8366TIP3   OH246512   3.170   6.256  12.885 -0.5549 -0.3803 -0.2351
 8366TIP3    H146513   3.226   6.333  12.894 -0.6969 -0.2429 -0.5282
 8366TIP3    H246514   3.082   6.288  12.901 -0.6255 -0.4602 -0.4590
 8367TIP3   OH246515   6.367   3.649   4.328 -0.1750  0.3214  0.1378
 8367TIP3    H146516   6.352   3.729   4.278 -1.9419  1.1327  1.8180
 8367TIP3    H246517   6.280   3.624   4.360  0.3528 -2.2081 -0.1856
 8368TIP3   OH246518   3.779   2.691  10.515 -0.2459 -0.1806 -0.2049
 8368TIP3    H146519   3.874   2.691  10.503 -0.3439  0.3918 -1.1746
 8368TIP3    H246520   3.753   2.601  10.497 -0.0095 -0.0579 -1.2708
 8369TIP3   OH246521   6.248   5.852   6.599  0.4477 -0.5285  0.1028
 8369TIP3    H146522   6.160   5.885   6.581  1.2785  1.7215 -0.1547
 8369TIP3    H246523   6.281   5.825   6.513  0.8767  1.0037 -0.2474
 8370TIP3   OH246524   2.161   0.391  13.558  0.3055  0.0407  0.2867
 8370TIP3    H146525   2.084   0.425  13.603 -0.1365 -0.7200  0.1227
 8370TIP3    H246526   2.227   0.460  13.568 -0.3108  0.5937  0.6458
 8371TIP3   OH246527   2.550   4.488  14.907 -0.4753  0.4149 -0.6981
 8371TIP3    H146528   2.599   4.556  14.954  1.2670 -1.2585  0.0565
 8371TIP3    H246529   2.496   4.446  14.974 -0.8724  0.4688 -0.9777
 8372TIP3   OH246530   2.994   5.692   4.690  0.1191  0.3970 -0.3490
 8372TIP3    H146531   3.074   5.664   4.646  0.1976 -0.9310  0.5547
 8372TIP3    H246532   2.924   5.665   4.631  0.3057  1.1796 -0.9447
 8373TIP3   OH246533   3.190   4.093  11.456 -0.6660  0.3225 -0.2938
 8373TIP3    H146534   3.238   4.035  11.396 -1.3970  0.5257 -1.0946
 8373TIP3    H246535   3.254   4.161  11.479  0.3280 -0.9868  0.9759
 8374TIP3   OH246536   3.260   1.462  16.492  0.4208 -0.1779 -0.0307
 8374TIP3    H146537   3.201   1.537  16.501  0.9112  0.4157 -1.4912
 8374TIP3    H246538   3.203   1.385  16.503 -0.5700  0.3791 -1.0299
 8375TIP3   OH246539   2.738   1.121   0.882 -0.1910  0.0622 -0.0247
 8375TIP3    H146540   2.815   1.117   0.825 -0.2583 -0.1453 -0.1011
 8375TIP3    H246541   2.762   1.069   0.959 -1.1132 -2.0343 -1.0728
 8376TIP3   OH246542   6.248   0.127   4.475  0.0805 -0.1709 -0.3600
 8376TIP3    H146543   6.159   0.097   4.456 -0.1391  0.4268 -0.2907
 8376TIP3    H246544   6.237   0.193   4.544  0.6962 -0.9798  0.5454
 8377TIP3   OH246545   2.327   3.851  12.294  0.5889 -0.0173 -0.1388
 8377TIP3    H146546   2.267   3.862  12.368  1.4398 -1.5087  0.8171
 8377TIP3    H246547   2.269   3.846  12.217 -0.2523  2.6984  0.2108
 8378TIP3   OH246548   3.046   3.531  14.649 -0.4673 -0.1228  0.2455
 8378TIP3    H146549   3.132   3.539  14.607  0.6631 -2.7316  1.8522
 8378TIP3    H246550   2.985   3.559  14.581  1.4512 -1.3201 -2.1601
 8379TIP3   OH246551   4.580   1.930  11.813  0.3367 -0.0693 -0.5080
 8379TIP3    H146552   4.622   2.003  11.767 -1.7936  0.8158 -1.1693
 8379TIP3    H246553   4.568   1.863  11.746 -0.6750  0.3003 -0.7096
 8380TIP3   OH246554   6.054   4.024  12.115 -0.0438  0.6627 -0.4360
 8380TIP3    H146555   6.015   4.108  12.091  1.9286  1.9807  0.6925
 8380TIP3    H246556   6.086   4.037  12.205 -0.4218 -1.5933  0.0911
 8381TIP3   OH246557   6.235   6.163   2.695  0.1153  0.4407  0.1775
 8381TIP3    H146558   6.227   6.069   2.676 -0.5616  0.7254 -1.0421
 8381TIP3    H246559   6.190   6.174   2.779  0.2866 -0.3423  0.3793
 8382TIP3   OH246560   4.421   3.040  16.430 -0.3338  0.1450  0.4021
 8382TIP3    H146561   4.362   3.041  16.355 -0.6543  0.1974  0.6581
 8382TIP3    H246562   4.504   3.073  16.395  0.1716 -1.8652 -0.4794
 8383TIP3   OH246563   1.986   5.682  11.728 -0.3405 -0.0388  0.3485
 8383TIP3    H146564   2.025   5.731  11.801 -0.5515  1.2149 -0.3520
 8383TIP3    H246565   2.060   5.638  11.687 -0.1759 -0.5038  1.1271
 8384TIP3   OH246566   3.128   4.442  15.417  0.4919 -0.3538  0.5468
 8384TIP3    H146567   3.036   4.454  15.441 -0.0260 -1.8381 -0.5726
 8384TIP3    H246568   3.148   4.517  15.361 -0.4886 -0.7543 -0.3795
 8385TIP3   OH246569   6.240   5.012   1.318  0.3143  0.0440 -0.4877
 8385TIP3    H146570   6.232   4.985   1.227  2.7529 -0.0399 -0.7603
 8385TIP3    H246571   6.314   5.074   1.318  0.5634 -0.1830  1.4547
 8386TIP3   OH246572   2.377   5.927   5.486  0.2650 -0.9599 -0.4505
 8386TIP3    H146573   2.438   5.888   5.425  0.8401  1.1488 -1.3277
 8386TIP3    H246574   2.430   5.948   5.563  0.5340  0.1522 -0.9067
 8387TIP3   OH246575   5.429   0.412  14.502 -0.0672 -0.2376  1.1724
 8387TIP3    H146576   5.499   0.456  14.551 -0.0140  0.1606  0.7544
 8387TIP3    H246577   5.464   0.404  14.413 -1.5696  2.5233  0.2159
 8388TIP3   OH246578   1.895   3.646   1.298 -0.6916  0.0516 -0.5350
 8388TIP3    H146579   1.902   3.730   1.252 -1.9498  0.7258  0.4548
 8388TIP3    H246580   1.816   3.606   1.264  0.1835 -1.0007 -1.3835
 8389TIP3   OH246581   3.334   6.017  12.959 -0.2227  0.3213  0.0827
 8389TIP3    H146582   3.291   5.940  12.997 -2.8880  1.5548 -0.2117
 8389TIP3    H246583   3.263   6.080  12.946  1.5233  2.0556 -1.6764
 8390TIP3   OH246584   6.311   5.078  11.985  0.1336 -0.1298  0.4483
 8390TIP3    H146585   6.279   5.168  11.977  0.0721  0.1183  2.6483
 8390TIP3    H246586   6.336   5.071  12.078  0.5465 -2.2453  0.2109
 8391TIP3   OH246587   6.129   3.348   1.964  0.1097  0.1723  0.7758
 8391TIP3    H146588   6.109   3.257   1.986  1.8017 -0.3113  0.4102
 8391TIP3    H246589   6.221   3.348   1.937  0.5129  2.1780  1.8706
 8392TIP3   OH246590   1.177   4.973   1.433  0.3074  0.1516 -0.1354
 8392TIP3    H146591   1.162   4.991   1.526 -2.3473  0.6755 -0.6035
 8392TIP3    H246592   1.178   5.059   1.392  1.6012 -0.0702 -0.6139
 8393TIP3   OH246593   4.744   4.941  16.747  0.1186 -0.0551 -0.2230
 8393TIP3    H146594   4.680   4.888  16.700 -1.0833 -0.1752  1.4597
 8393TIP3    H246595   4.735   4.915  16.838  1.3827  1.1575  0.2921
 8394TIP3   OH246596   3.560   5.899  14.800 -0.0822 -0.8188 -0.0117
 8394TIP3    H146597   3.632   5.952  14.837 -1.5746  0.2032  1.6061
 8394TIP3    H246598   3.508   5.962  14.750  0.1071 -1.5555 -1.1714
 8395TIP3   OH246599   4.220   6.572  16.992  0.4718  0.1699  0.3080
 8395TIP3    H146600   4.174   6.511  17.049  0.6234  0.1706  0.4342
 8395TIP3    H246601   4.291   6.607  17.047 -0.3393  1.3713  0.6174
 8396TIP3   OH246602   5.265   5.463   5.260 -0.2457  0.2264  0.4876
 8396TIP3    H146603   5.313   5.392   5.304  2.6735  1.3383 -0.6110
 8396TIP3    H246604   5.245   5.427   5.174 -0.7538 -0.0009  0.6992
 8397TIP3   OH246605   1.096   5.880   4.614  0.2723  0.1185  0.2325
 8397TIP3    H146606   1.045   5.879   4.533  0.0531  0.2370  0.3661
 8397TIP3    H246607   1.183   5.850   4.589 -0.1984 -1.2760  0.2194
 8398TIP3   OH246608   6.259   6.318  14.893  0.1309 -0.3224  0.5099
 8398TIP3    H146609   6.203   6.249  14.929 -0.0876  0.6940  2.2102
 8398TIP3    H246610   6.345   6.302  14.932  0.7818 -1.1510 -1.1496
 8399TIP3   OH246611   3.853   3.607  16.927  0.1735 -0.1953  0.4052
 8399TIP3    H146612   3.764   3.582  16.902 -0.2233  0.5081  1.0464
 8399TIP3    H246613   3.857   3.702  16.910  0.4821 -0.0425  1.2603
 8400TIP3   OH246614   6.345   5.365  15.845 -0.1871  0.4258 -0.3509
 8400TIP3    H146615   6.389   5.450  15.844 -1.1446  0.9345 -0.3820
 8400TIP3    H246616   6.355   5.332  15.755  0.5295  0.3163 -0.2358
 8401TIP3   OH246617   6.493   1.660   1.726 -0.0126 -0.2307 -0.7454
 8401TIP3    H146618   6.480   1.754   1.713 -1.5476 -0.2855  0.1191
 8401TIP3    H246619   6.577   1.654   1.770 -0.3351  0.8491  0.0920
 8402TIP3   OH246620   4.192   0.304   0.378 -0.5570  0.0482  0.6349
 8402TIP3    H146621   4.156   0.390   0.402  1.3868  0.8416  0.9473
 8402TIP3    H246622   4.282   0.323   0.352 -1.1116 -1.4220 -2.8812
 8403TIP3   OH246623   5.113   0.492   0.045  0.4345  0.4071  0.0614
 8403TIP3    H146624   5.105   0.422   0.109 -0.8032  0.8807  0.4399
 8403TIP3    H246625   5.190   0.542   0.073 -0.2122  0.7309  1.2997
 8404TIP3   OH246626   1.234   5.661  13.655  0.1165  0.0007 -0.7807
 8404TIP3    H146627   1.265   5.580  13.613 -1.0719 -0.1131 -1.5026
 8404TIP3    H246628   1.251   5.648  13.748  1.9412 -0.1510 -1.0960
 8405TIP3   OH246629   0.756   5.326  11.420  0.1269 -0.6571  0.3311
 8405TIP3    H146630   0.810   5.373  11.357  0.3501 -0.2762  0.8016
 8405TIP3    H246631   0.747   5.386  11.494 -1.2952 -0.5429  0.0937
 8406TIP3   OH246632   5.948   1.798   2.107  0.7222 -0.1850  0.3080
 8406TIP3    H146633   5.864   1.753   2.107  0.7002 -0.1455  0.6716
 8406TIP3    H246634   5.986   1.777   2.192  0.2569  1.3517  0.9166
 8407TIP3   OH246635   6.075   6.023  16.850  1.1278 -0.2540  0.3940
 8407TIP3    H146636   6.043   6.099  16.899  0.7221  0.4611 -0.9454
 8407TIP3    H246637   6.165   6.011  16.881  1.3362  1.0284  0.3435
 8408TIP3   OH246638   6.482   4.026  17.092  0.2124 -0.6115  0.2797
 8408TIP3    H146639   6.505   4.111  17.055 -2.3796  0.9189  1.8934
 8408TIP3    H246640   6.518   4.029  17.181  0.1870 -1.2714  0.3154
 8409TIP3   OH246641   5.275   1.162  12.994 -0.8262 -0.0478  0.2467
 8409TIP3    H146642   5.288   1.245  12.947  0.3953 -0.3592  0.0179
 8409TIP3    H246643   5.182   1.163  13.016 -0.7801  1.5372  0.5236
 8410TIP3   OH246644   1.781   1.334  15.852 -0.0002  0.1411 -0.3851
 8410TIP3    H146645   1.770   1.323  15.757 -0.0163 -0.2266 -0.3443
 8410TIP3    H246646   1.715   1.275  15.890  1.8417 -1.8894 -0.1228
 8411TIP3   OH246647   6.723   0.042  15.458  0.0306 -0.5585 -0.2517
 8411TIP3    H146648   6.771  -0.023  15.407  0.5297  0.4606 -1.1064
 8411TIP3    H246649   6.649   0.066  15.403  0.6935  0.7103 -0.6138
 8412TIP3   OH246650   5.235   3.314  11.994  0.1634 -0.0269 -0.2242
 8412TIP3    H146651   5.155   3.361  12.019  0.5799  0.7655 -0.3253
 8412TIP3    H246652   5.293   3.383  11.961  1.6380 -0.2595  1.7053
 8413TIP3   OH246653   3.480   1.843  12.810 -0.5993 -0.3821 -0.5858
 8413TIP3    H146654   3.564   1.889  12.807 -0.1646 -1.1072  0.2380
 8413TIP3    H246655   3.437   1.878  12.888 -1.0124 -0.1056 -0.9368
 8414TIP3   OH246656   3.493   5.214   3.167  0.0561  0.1518  0.0538
 8414TIP3    H146657   3.563   5.202   3.231 -1.1386 -0.9264  1.2015
 8414TIP3    H246658   3.474   5.308   3.169 -1.1252 -0.0624  2.6005
 8415TIP3   OH246659   1.469   6.462  17.275 -0.1319  0.7546  0.6859
 8415TIP3    H146660   1.399   6.505  17.225 -0.1666  2.7413  2.2814
 8415TIP3    H246661   1.447   6.480  17.367  0.8207 -1.2973  1.3824
 8416TIP3   OH246662   3.660   3.341   4.674  0.3515 -0.4563 -0.7802
 8416TIP3    H146663   3.732   3.348   4.611 -0.0069 -2.2727 -1.4407
 8416TIP3    H246664   3.704   3.339   4.759  1.2209 -2.4736 -1.2035
 8417TIP3   OH246665   0.085   2.011  11.372 -0.2243 -0.3108 -0.0521
 8417TIP3    H146666   0.142   1.961  11.429 -0.9494 -0.2508  0.7463
 8417TIP3    H246667   0.114   1.990  11.283  0.1790 -1.2893  0.3045
 8418TIP3   OH246668   2.582   0.196  12.824 -0.2915  0.3742  0.5898
 8418TIP3    H146669   2.498   0.182  12.780 -0.6911  1.4010  0.9986
 8418TIP3    H246670   2.636   0.122  12.796 -1.7220 -1.0276  1.3097
 8419TIP3   OH246671   5.976   6.696  13.848  0.5475  0.2616  0.1029
 8419TIP3    H146672   5.960   6.739  13.764 -1.3092  1.2091  0.8855
 8419TIP3    H246673   5.989   6.603  13.825 -0.5440  0.3995 -1.1801
 8420TIP3   OH246674   3.743   1.688  16.285 -0.3753  0.1584  0.4375
 8420TIP3    H146675   3.756   1.771  16.239  1.0183 -0.7530 -0.9275
 8420TIP3    H246676   3.650   1.668  16.271 -0.8540  1.6508  1.1672
 8421TIP3   OH246677   4.925   5.162   0.348  0.0836  0.1188  0.4920
 8421TIP3    H146678   4.860   5.223   0.315  0.3862 -0.0478 -0.4312
 8421TIP3    H246679   4.994   5.218   0.386 -0.0208  0.3235  0.3783
 8422TIP3   OH246680   2.501   1.461   5.984  0.3491  0.3149  0.0290
 8422TIP3    H146681   2.502   1.415   5.900  1.0365  0.7990 -0.2398
 8422TIP3    H246682   2.485   1.552   5.960 -5.2220 -0.0861  0.7581
 8423TIP3   OH246683   3.677   6.629  14.345  0.8528 -0.2727  0.3077
 8423TIP3    H146684   3.626   6.566  14.396  0.0903  1.0291  1.2262
 8423TIP3    H246685   3.634   6.713  14.362  0.4082  0.1987 -2.7107
 8424TIP3   OH246686   4.641   2.396   5.190 -0.5798  0.2696  0.0405
 8424TIP3    H146687   4.570   2.430   5.244 -0.8939 -1.0270  0.4973
 8424TIP3    H246688   4.660   2.466   5.128  0.0334  1.9452  2.0069
 8425TIP3   OH246689   3.126   2.809   4.345 -0.0425  0.2268  0.1867
 8425TIP3    H146690   3.156   2.820   4.435  0.8629 -0.3201 -0.0324
 8425TIP3    H246691   3.030   2.814   4.351 -0.0158 -0.1872  1.2307
 8426TIP3   OH246692   0.911   3.383  16.943  0.4044  0.2674 -0.2015
 8426TIP3    H146693   0.868   3.462  16.909  1.3752  1.1222  0.4713
 8426TIP3    H246694   0.857   3.355  17.016 -0.0771  0.1503 -0.5932
 8427TIP3   OH246695   4.222   5.164  12.562  0.1044  0.1361  0.5525
 8427TIP3    H146696   4.210   5.103  12.488  0.9620 -0.0618  0.5607
 8427TIP3    H246697   4.202   5.250  12.525  1.0056  0.1005 -0.0631
 8428TIP3   OH246698   5.316   3.748   3.396  0.0782 -0.2666 -0.1751
 8428TIP3    H146699   5.273   3.665   3.380  0.5941 -0.5111 -0.3299
 8428TIP3    H246700   5.245   3.809   3.418 -0.1459 -1.1420  1.6213
 8429TIP3   OH246701   3.854   5.817   1.597 -0.2245  0.6242  0.0106
 8429TIP3    H146702   3.790   5.760   1.641  0.0365  1.6194  1.7636
 8429TIP3    H246703   3.804   5.895   1.573 -0.4490 -0.0458 -1.8786
 8430TIP3   OH246704   2.133   5.891   5.389 -0.2786  0.1644  0.1430
 8430TIP3    H146705   2.215   5.911   5.433 -1.6239 -0.2366  3.0417
 8430TIP3    H246706   2.117   5.967   5.332  2.5812 -0.2682 -1.4310
 8431TIP3   OH246707   4.746   1.877  12.839  0.2047 -0.1347 -0.9075
 8431TIP3    H146708   4.832   1.916  12.853 -0.3584  0.8597 -0.1041
 8431TIP3    H246709   4.744   1.857  12.745  1.7192 -1.2013 -0.7482
 8432TIP3   OH246710   3.721   4.161  11.981 -0.2935 -0.1315  0.4000
 8432TIP3    H146711   3.709   4.244  12.027 -0.6726 -0.1546  0.3384
 8432TIP3    H246712   3.816   4.153  11.972 -0.2324  0.0157  0.9172
 8433TIP3   OH246713   6.238   2.237  13.177 -0.4828 -0.3880  0.5724
 8433TIP3    H146714   6.276   2.218  13.091 -0.3790  0.2238  0.4842
 8433TIP3    H246715   6.270   2.324  13.199 -3.5416  1.1129 -0.4447
 8434TIP3   OH246716   4.549   6.547  16.266 -0.0586 -0.1384 -0.3173
 8434TIP3    H146717   4.590   6.585  16.189 -0.6256  0.7500 -0.1964
 8434TIP3    H246718   4.504   6.620  16.308  1.7488 -0.1867  1.8933
 8435TIP3   OH246719   2.037   6.661  14.231 -0.3469 -0.1295 -0.2908
 8435TIP3    H146720   2.015   6.740  14.181  0.9141 -0.4252 -1.3561
 8435TIP3    H246721   1.975   6.661  14.304  1.3258  3.3234  1.3462
 8436TIP3   OH246722   0.982   2.229   5.794  0.0453 -0.0457 -0.2501
 8436TIP3    H146723   0.955   2.319   5.809  0.8881 -0.2121  2.7499
 8436TIP3    H246724   0.908   2.176   5.822  0.6309 -0.3247  0.8179
 8437TIP3   OH246725   4.189   5.518   0.238  0.0784  0.3738  0.7159
 8437TIP3    H146726   4.134   5.526   0.160  1.0955  0.4109 -0.0332
 8437TIP3    H246727   4.158   5.586   0.297  0.1421  1.2473 -0.2198
 8438TIP3   OH246728   5.447   6.072   2.541 -0.1398 -0.1416 -0.8878
 8438TIP3    H146729   5.512   6.141   2.528 -1.0297  0.9073  0.0603
 8438TIP3    H246730   5.413   6.087   2.629  0.0930 -2.1936 -0.3969
 8439TIP3   OH246731   1.720   2.190   5.947  0.0863  0.3031  0.2346
 8439TIP3    H146732   1.634   2.162   5.916 -0.0725 -0.3373  1.2309
 8439TIP3    H246733   1.775   2.112   5.939  1.0471  1.0999 -1.9283
 8440TIP3   OH246734   3.735   2.242  14.514 -0.1377  0.1105  0.2470
 8440TIP3    H146735   3.695   2.209  14.595  1.4597 -3.6998 -0.3044
 8440TIP3    H246736   3.815   2.286  14.544  0.1900 -0.8370  0.8200
 8441TIP3   OH246737   4.870   3.090   3.455  0.1864 -0.0532 -0.0739
 8441TIP3    H146738   4.821   3.009   3.445  1.7356 -1.2119  1.2031
 8441TIP3    H246739   4.853   3.117   3.545  2.1368 -0.7010  0.5323
 8442TIP3   OH246740   5.958   4.849   1.778  0.6439 -0.1687 -0.3131
 8442TIP3    H146741   5.871   4.827   1.744 -0.2123  1.3071  0.8222
 8442TIP3    H246742   5.973   4.939   1.747  1.2473  0.0071  0.4840
 8443TIP3   OH246743   3.280   5.005  16.815  0.6067 -0.0066  0.3935
 8443TIP3    H146744   3.193   5.044  16.800  0.0294 -0.9873  1.1018
 8443TIP3    H246745   3.333   5.037  16.741 -0.4089  0.4168 -0.1824
 8444TIP3   OH246746   5.013   2.919   2.215  0.1646  0.3287  0.1698
 8444TIP3    H146747   5.015   2.830   2.250 -0.9325  0.4328  0.5314
 8444TIP3    H246748   5.024   2.975   2.291  1.8887  0.5175 -0.1751
 8445TIP3   OH246749   0.313   3.192   6.314  0.2978 -0.0549 -0.0196
 8445TIP3    H146750   0.367   3.215   6.238  0.0917 -0.0292 -0.1610
 8445TIP3    H246751   0.369   3.210   6.390  0.7938 -0.8537 -0.1840
 8446TIP3   OH246752   5.074   2.202  15.637  0.7542 -0.4009 -0.5595
 8446TIP3    H146753   4.980   2.216  15.640  0.8874  0.3831  0.9079
 8446TIP3    H246754   5.086   2.110  15.662  0.3896 -0.5188 -0.8152
 8447TIP3   OH246755   4.563   4.471  16.072 -0.4651 -0.0635 -0.5629
 8447TIP3    H146756   4.644   4.506  16.036 -0.0431 -0.3786  0.0577
 8447TIP3    H246757   4.526   4.542  16.125 -1.1663  0.4527 -1.7126
 8448TIP3   OH246758   5.768   5.571   3.997  0.0351  0.4390  0.7761
 8448TIP3    H146759   5.705   5.611   4.057 -0.4835  1.2396 -0.2810
 8448TIP3    H246760   5.714   5.524   3.933  0.5032  0.9897 -0.0397
 8449TIP3   OH246761   6.138   2.434  16.543 -0.4675 -0.0166 -0.2066
 8449TIP3    H146762   6.164   2.398  16.627 -0.0251 -0.3047 -0.4630
 8449TIP3    H246763   6.219   2.466  16.504 -0.4204 -1.2981 -1.2006
 8450TIP3   OH246764   3.570   5.476   3.182  0.7188 -0.2153  0.2562
 8450TIP3    H146765   3.566   5.471   3.086  1.6557 -1.6342  0.2671
 8450TIP3    H246766   3.585   5.568   3.200  0.0551  0.1539 -0.9418
 8451TIP3   OH246767   4.326   4.053  12.961  0.6232  0.4973 -0.4907
 8451TIP3    H146768   4.318   3.964  12.927  0.9406  0.3629 -0.2168
 8451TIP3    H246769   4.409   4.053  13.009  0.1325  0.6570  0.3742
 8452TIP3   OH246770   3.610   5.300  15.079 -0.0430  0.0751  0.5374
 8452TIP3    H146771   3.701   5.288  15.052 -0.4361 -3.5436  0.3228
 8452TIP3    H246772   3.563   5.325  14.999  0.6786  2.0097  0.6618
 8453TIP3   OH246773   4.448   2.186   2.339 -0.4728  0.1476 -0.1763
 8453TIP3    H146774   4.416   2.097   2.352 -1.2452  0.7387  2.4358
 8453TIP3    H246775   4.375   2.242   2.365  0.6893  1.5423  0.2178
 8454TIP3   OH246776   3.803   0.089   0.252 -0.5929  0.6509 -0.3810
 8454TIP3    H146777   3.776   0.131   0.333  0.3572  2.2154 -0.8342
 8454TIP3    H246778   3.782   0.154   0.184 -0.0615 -0.0465 -1.2241
 8455TIP3   OH246779   5.894   4.680  12.223  0.1875 -0.2435  0.7448
 8455TIP3    H146780   5.985   4.651  12.210  0.1776  0.3581 -0.9179
 8455TIP3    H246781   5.876   4.736  12.148 -2.3101 -2.1614 -0.2462
 8456TIP3   OH246782   5.276   0.189  14.417  0.0720  0.3976 -0.3146
 8456TIP3    H146783   5.315   0.272  14.445  0.6190  0.4345 -1.1570
 8456TIP3    H246784   5.198   0.215  14.368  0.7591  0.4771 -1.4040
 8457TIP3   OH246785   4.433   0.318  13.539  0.2289 -0.1026 -0.4392
 8457TIP3    H146786   4.400   0.313  13.629 -1.9498 -1.0467 -1.2379
 8457TIP3    H246787   4.411   0.406  13.510 -0.9985 -0.4950 -0.7300
 8458TIP3   OH246788   5.611   0.560   5.908  0.3398 -0.1497 -0.0487
 8458TIP3    H146789   5.625   0.620   5.982 -1.8850  0.6222 -0.1510
 8458TIP3    H246790   5.657   0.480   5.932 -0.0159  0.2088  2.0328
 8459TIP3   OH246791   5.690   2.921  12.983  0.3001  0.1503  0.5729
 8459TIP3    H146792   5.680   3.002  13.034 -0.0554  0.5084 -0.0483
 8459TIP3    H246793   5.623   2.928  12.915  1.4461  0.1935 -0.5929
 8460TIP3   OH246794   1.632   2.906   3.074  0.7740 -0.3030  0.2562
 8460TIP3    H146795   1.687   2.836   3.109  0.4775  0.1105  1.5979
 8460TIP3    H246796   1.648   2.981   3.131  1.9626  1.1432 -1.8015
 8461TIP3   OH246797   2.656   2.013   3.709 -0.7619 -0.2230 -0.5093
 8461TIP3    H146798   2.737   2.061   3.692 -1.4249  1.5346  0.9981
 8461TIP3    H246799   2.684   1.922   3.719  0.8963  0.2085 -0.8822
 8462TIP3   OH246800   4.024   2.809   5.116 -0.3695 -0.4336 -0.2326
 8462TIP3    H146801   4.030   2.714   5.119 -1.1212 -0.4858 -0.1266
 8462TIP3    H246802   3.948   2.827   5.061 -0.6764  0.0856  0.3424
 8463TIP3   OH246803   4.083   3.715   1.955  0.2104  0.6818 -0.4100
 8463TIP3    H146804   4.098   3.774   2.029 -2.9505  2.1347 -0.7767
 8463TIP3    H246805   4.141   3.748   1.887  1.6253  0.6294  0.7177
 8464TIP3   OH246806   0.786   3.457  12.225 -0.0300  0.5371 -0.3176
 8464TIP3    H146807   0.718   3.441  12.159  0.7778 -0.5833 -0.9004
 8464TIP3    H246808   0.779   3.383  12.285 -0.8465  1.6087  0.9861
 8465TIP3   OH246809   5.286   4.787  12.490 -0.3366  0.6610 -0.3812
 8465TIP3    H146810   5.225   4.858  12.472 -0.9349  0.9550  2.2821
 8465TIP3    H246811   5.344   4.822  12.559  0.7821 -0.6962 -0.5779
 8466TIP3   OH246812   3.023   0.155   0.276  0.3185 -0.1597  0.0250
 8466TIP3    H146813   2.937   0.111   0.281 -0.5765  1.6245  3.0658
 8466TIP3    H246814   3.034   0.194   0.362  2.6823  2.5507 -1.3674
 8467TIP3   OH246815   5.999   5.999  15.294 -0.4517 -0.5724  0.1722
 8467TIP3    H146816   5.959   5.987  15.208 -0.2143 -0.8863  0.1048
 8467TIP3    H246817   6.086   5.959  15.286 -0.3005 -0.3070  0.4561
 8468TIP3   OH246818   4.427   4.063   1.426 -0.2029  0.2401  0.1648
 8468TIP3    H146819   4.486   4.072   1.500  1.2081  0.2808 -0.9081
 8468TIP3    H246820   4.481   4.023   1.357 -0.9758  1.7362 -1.3773
 8469TIP3   OH246821   0.818   3.763   2.630  0.7800  0.0932 -0.3409
 8469TIP3    H146822   0.733   3.777   2.671  1.3340 -0.4289  1.0572
 8469TIP3    H246823   0.812   3.676   2.592  0.9769 -0.3553  0.6052
 8470TIP3   OH246824   4.494   2.464  11.080 -0.2423  0.7567 -0.0267
 8470TIP3    H146825   4.540   2.451  10.997 -0.9276 -0.9326 -0.1912
 8470TIP3    H246826   4.502   2.558  11.098 -0.7017  1.2880 -2.3556
 8471TIP3   OH246827   4.719   0.500   5.293 -0.6741 -0.2920  0.3335
 8471TIP3    H146828   4.704   0.405   5.291 -2.1366 -0.1161  1.3379
 8471TIP3    H246829   4.794   0.512   5.351 -1.8912 -0.7278  2.0831
 8472TIP3   OH246830   3.225   3.028   1.816  0.0319 -0.0483 -0.5809
 8472TIP3    H146831   3.219   3.075   1.732 -0.1021  0.3769 -0.3342
 8472TIP3    H246832   3.277   3.086   1.872  0.9616 -0.7749 -0.6735
 8473TIP3   OH246833   5.488   1.243  12.339  0.1864  0.2929 -0.4980
 8473TIP3    H146834   5.488   1.160  12.386 -1.4948  0.2182 -0.5635
 8473TIP3    H246835   5.486   1.310  12.407  3.1286  0.3910 -0.3994
 8474TIP3   OH246836   1.390   1.255   3.214 -0.1172 -0.0481 -0.0805
 8474TIP3    H146837   1.435   1.187   3.264  0.2869  1.3883  1.6276
 8474TIP3    H246838   1.334   1.298   3.278 -1.2315  0.5013 -1.3810
 8475TIP3   OH246839   0.421   4.496  14.309 -1.2170 -0.2313  0.1377
 8475TIP3    H146840   0.336   4.489  14.266 -2.4610  0.0913  2.3660
 8475TIP3    H246841   0.401   4.487  14.403  1.3270 -1.1226  0.6902
 8476TIP3   OH246842   3.344   5.569   4.895 -0.7211 -0.3520  0.1089
 8476TIP3    H146843   3.435   5.566   4.864  0.0815 -0.8248  2.3296
 8476TIP3    H246844   3.334   5.656   4.932 -0.9298 -0.5495  0.5285
 8477TIP3   OH246845   5.509   5.954  16.101 -0.5878 -0.4378 -0.2400
 8477TIP3    H146846   5.428   5.918  16.138 -0.2828 -0.3590  0.5235
 8477TIP3    H246847   5.479   6.015  16.033 -1.1343 -1.2786 -0.7730
 8478TIP3   OH246848   4.672   0.990   2.425 -0.5862 -0.5393 -0.9388
 8478TIP3    H146849   4.657   0.926   2.356  0.1338 -1.9426  0.1259
 8478TIP3    H246850   4.767   1.005   2.423 -0.4823 -0.9913  0.0445
 8479TIP3   OH246851   5.539   2.326   2.064  0.1734 -0.0464  0.1258
 8479TIP3    H146852   5.450   2.330   2.028  0.3267  0.4042 -0.2305
 8479TIP3    H246853   5.537   2.255   2.127 -0.2026 -0.6383 -0.5403
 8480TIP3   OH246854   2.342   1.596  14.703 -0.5518 -0.2999  0.4532
 8480TIP3    H146855   2.376   1.611  14.791 -0.7035  1.8405  0.2058
 8480TIP3    H246856   2.265   1.652  14.697 -1.0004 -1.0140 -0.7828
 8481TIP3   OH246857   1.521   2.967   3.874 -0.4326 -0.2787 -1.0330
 8481TIP3    H146858   1.544   2.912   3.949 -2.8694  0.3745  0.3269
 8481TIP3    H246859   1.601   2.975   3.824  1.4015 -0.5484  1.6422
 8482TIP3   OH246860   3.881   3.455  12.275 -0.3984  0.6506  0.4949
 8482TIP3    H146861   3.836   3.540  12.270 -0.5446  0.5882  0.7156
 8482TIP3    H246862   3.896   3.430  12.184  0.3512  1.2892  0.4393
 8483TIP3   OH246863   1.009   5.914  13.131 -0.1022 -0.8029 -0.3982
 8483TIP3    H146864   0.964   5.830  13.137  0.7568 -1.2992 -0.7463
 8483TIP3    H246865   0.961   5.972  13.190 -1.7580 -1.0536 -1.4349
 8484TIP3   OH246866   1.995   3.379  11.531 -0.3506 -0.1415 -0.2508
 8484TIP3    H146867   2.006   3.426  11.449  1.8364  0.7674  0.4753
 8484TIP3    H246868   1.993   3.447  11.598  0.0710 -0.9475  0.6043
 8485TIP3   OH246869   0.264   2.711   2.802 -0.6731 -0.3560  0.3064
 8485TIP3    H146870   0.188   2.764   2.779  0.0718  0.7624  0.3673
 8485TIP3    H246871   0.339   2.760   2.768  0.1904 -0.3690  2.0765
 8486TIP3   OH246872   0.885   2.485  16.467  0.0180  0.0026 -0.6868
 8486TIP3    H146873   0.791   2.467  16.465  0.1630 -0.8790 -0.3513
 8486TIP3    H246874   0.894   2.563  16.521 -0.4919 -0.1255 -0.4113
 8487TIP3   OH246875   5.284   2.484  12.239 -0.1840  0.1975  0.0150
 8487TIP3    H146876   5.358   2.426  12.255 -0.1988 -0.0445 -0.7355
 8487TIP3    H246877   5.322   2.572  12.235 -0.0281  0.1393  0.2639
 8488TIP3   OH246878   5.024   1.093  17.012  0.0707 -0.0233 -0.1332
 8488TIP3    H146879   5.068   1.008  17.011 -1.1464 -0.6748  0.1520
 8488TIP3    H246880   4.952   1.083  16.950 -0.5793  0.5255  0.5228
 8489TIP3   OH246881   6.038   1.686   2.958 -0.5868 -0.2529  0.1197
 8489TIP3    H146882   5.970   1.752   2.948  0.7004  1.2816  0.9260
 8489TIP3    H246883   6.120   1.735   2.954  0.4471 -1.8486  0.4972
 8490TIP3   OH246884   5.468   1.012  14.678 -0.1397  0.0364 -0.1495
 8490TIP3    H146885   5.374   0.996  14.692  0.3249 -3.5500 -0.2191
 8490TIP3    H246886   5.503   1.023  14.766 -0.5313  0.8091 -0.0835
 8491TIP3   OH246887   6.482   4.015   0.014  0.5821 -0.0498 -0.3641
 8491TIP3    H146888   6.424   4.092   0.014 -1.8102 -1.7481  0.0243
 8491TIP3    H246889   6.547   4.034   0.082 -0.9103  0.9786  0.8549
 8492TIP3   OH246890   2.466   5.453  16.155  0.3999  0.0125 -0.0409
 8492TIP3    H146891   2.504   5.529  16.199 -0.7625  2.4112 -2.8426
 8492TIP3    H246892   2.536   5.422  16.097  0.3002  0.1258 -0.2250
 8493TIP3   OH246893   4.895   4.414   3.516  0.7225 -0.0873 -0.4034
 8493TIP3    H146894   4.976   4.436   3.470 -0.0660  0.6929 -1.4626
 8493TIP3    H246895   4.840   4.492   3.508  0.0824 -0.3749  0.8324
 8494TIP3   OH246896   2.337   4.384  15.063  0.0105  0.0322 -0.1431
 8494TIP3    H146897   2.409   4.373  15.125 -1.0828 -0.4998  1.0803
 8494TIP3    H246898   2.275   4.441  15.108 -0.2418  0.6871 -1.2806
 8495TIP3   OH246899   0.919   1.726   2.787  0.6952  0.9437 -0.1763
 8495TIP3    H146900   0.866   1.776   2.725  0.3963 -1.0701 -1.6452
 8495TIP3    H246901   0.855   1.689   2.848  0.5749  0.0198 -0.8428
 8496TIP3   OH246902   6.033   0.475  11.407 -0.0513 -0.1702 -0.3397
 8496TIP3    H146903   6.057   0.388  11.376  1.7691  0.5829 -1.2026
 8496TIP3    H246904   6.030   0.529  11.329 -2.0515  0.3973  0.0815
 8497TIP3   OH246905   4.704   4.919  17.101  0.4411  1.0427 -0.0649
 8497TIP3    H146906   4.658   4.916  17.185 -1.1081  1.1585 -0.8770
 8497TIP3    H246907   4.755   5.000  17.105 -0.1526  1.4003  0.4931
 8498TIP3   OH246908   1.684   0.119  16.121 -0.6377  0.2301 -0.4438
 8498TIP3    H146909   1.720   0.159  16.200 -1.2177 -0.2822  0.0905
 8498TIP3    H246910   1.691   0.024  16.136 -0.1059  0.1126 -1.3101
 8499TIP3   OH246911   1.281   6.144  14.208  0.1237  0.3862  0.5325
 8499TIP3    H146912   1.356   6.200  14.187 -0.1794  1.2547  1.6666
 8499TIP3    H246913   1.286   6.132  14.303 -1.1795  0.4652  0.6277
 8500TIP3   OH246914   4.979   3.710   0.400  0.1044 -0.6783 -0.1148
 8500TIP3    H146915   5.002   3.799   0.371 -0.7922 -0.3585  0.1070
 8500TIP3    H246916   5.037   3.653   0.350 -1.2946 -0.1353 -2.5261
 8501TIP3   OH246917   2.438   5.486   6.032 -0.2071 -0.0393  0.5878
 8501TIP3    H146918   2.403   5.433   5.960 -0.3137 -1.1889  1.4628
 8501TIP3    H246919   2.529   5.457   6.041 -0.3151 -0.1928  1.1858
 8502TIP3   OH246920   5.162   3.458   0.858 -0.5837 -0.1097  0.6757
 8502TIP3    H146921   5.077   3.494   0.882 -0.1808  2.3356 -1.2010
 8502TIP3    H246922   5.183   3.499   0.774  2.2215 -1.0532  0.8146
 8503TIP3   OH246923   4.730   3.740  14.068 -0.4063  0.2742 -0.7251
 8503TIP3    H146924   4.655   3.743  14.009 -1.0368  0.9566  0.0904
 8503TIP3    H246925   4.806   3.754  14.011 -0.9814  0.7488 -1.3895
 8504TIP3   OH246926   3.504   0.426  11.021 -0.4145  0.5212  0.6476
 8504TIP3    H146927   3.514   0.331  11.029  1.1511  0.6319  0.2274
 8504TIP3    H246928   3.412   0.438  10.999 -0.1612 -1.0561 -1.5845
 8505TIP3   OH246929   3.579   5.353   3.519 -0.0031  0.8132  0.1838
 8505TIP3    H146930   3.583   5.258   3.513 -1.0604  0.6229  1.7991
 8505TIP3    H246931   3.662   5.383   3.483  1.1213 -0.8228  1.2735
 8506TIP3   OH246932   2.971   5.621   1.422 -0.3335  0.0898 -0.1901
 8506TIP3    H146933   2.994   5.534   1.388 -0.8203 -0.6149  1.1992
 8506TIP3    H246934   2.962   5.675   1.344 -0.7710 -1.3013 -1.1588
 8507TIP3   OH246935   1.002   5.734  14.599  0.5501  0.3646 -0.3141
 8507TIP3    H146936   1.006   5.640  14.616 -1.1463  0.0593 -1.3750
 8507TIP3    H246937   0.943   5.768  14.667  0.5336  0.5237 -0.4081
 8508TIP3   OH246938   3.015   4.882  13.281  0.4268 -0.1267  0.6922
 8508TIP3    H146939   3.072   4.927  13.219 -0.2049  0.3024  0.4207
 8508TIP3    H246940   2.972   4.952  13.329 -1.3687 -0.3935 -0.4566
 8509TIP3   OH246941   0.103   1.715   0.442 -0.8250 -0.1508 -0.3292
 8509TIP3    H146942   0.122   1.691   0.532 -0.4607  0.0333 -0.3568
 8509TIP3    H246943   0.111   1.810   0.439 -3.6933  0.1905  0.1191
 8510TIP3   OH246944   4.470   1.853  13.669 -0.3804 -0.2532  0.3051
 8510TIP3    H146945   4.546   1.802  13.640 -0.3775 -0.1794  0.1829
 8510TIP3    H246946   4.480   1.937  13.626  0.3978  0.3783  1.6601
 8511TIP3   OH246947   4.043   2.494   1.470  0.1199 -0.8926 -0.0033
 8511TIP3    H146948   4.040   2.557   1.398 -1.3140 -1.9879 -0.9506
 8511TIP3    H246949   4.136   2.480   1.486  0.4710  1.2438  0.0696
 8512TIP3   OH246950   0.946   2.812   0.950  0.1349 -0.0198  0.1405
 8512TIP3    H146951   0.967   2.738   1.007  3.1601  1.0121  0.5720
 8512TIP3    H246952   0.936   2.886   1.010 -3.4775 -0.0274 -0.2265
 8513TIP3   OH246953   0.597   1.668  17.157 -0.2075  0.4114 -0.0640
 8513TIP3    H146954   0.522   1.695  17.104 -0.4589  0.9820  0.5610
 8513TIP3    H246955   0.613   1.577  17.131 -1.3110  0.1827 -0.0127
 8514TIP3   OH246956   5.556   0.307   1.928 -0.1004 -0.3456  0.5061
 8514TIP3    H146957   5.534   0.270   2.013 -2.6779  1.9270  0.9832
 8514TIP3    H246958   5.498   0.262   1.867 -1.0787  0.6840  0.6305
 8515TIP3   OH246959   6.645   4.489  14.366  0.4109  0.1374 -0.1891
 8515TIP3    H146960   6.614   4.479  14.276 -1.6220 -1.4309  0.6016
 8515TIP3    H246961   6.603   4.570  14.397  0.0834 -0.0040 -0.2619
 8516TIP3   OH246962   0.214   0.865   1.879  0.2062  0.5683 -0.0602
 8516TIP3    H146963   0.216   0.815   1.797 -1.6509  0.3014  0.0128
 8516TIP3    H246964   0.248   0.804   1.945 -0.1288  0.1037 -0.3097
 8517TIP3   OH246965   3.856   5.244   3.982 -0.4495  0.2416  0.0314
 8517TIP3    H146966   3.892   5.155   3.983 -1.6003 -0.2457 -0.5026
 8517TIP3    H246967   3.838   5.263   4.074 -0.9665 -0.4072  0.0732
 8518TIP3   OH246968   1.348   2.786  16.821 -0.2153 -0.1670 -0.3614
 8518TIP3    H146969   1.383   2.719  16.763 -1.1155 -1.1832  0.2181
 8518TIP3    H246970   1.409   2.788  16.895  0.0702 -0.0050 -0.6001
 8519TIP3   OH246971   4.909   5.605   6.143 -0.3654 -0.1979  0.2964
 8519TIP3    H146972   4.968   5.555   6.199 -2.3615 -2.7209  0.3417
 8519TIP3    H246973   4.848   5.647   6.205 -0.8393 -0.6540  0.1478
 8520TIP3   OH246974   3.340   6.224  13.595 -0.0861  0.2407  0.4006
 8520TIP3    H146975   3.322   6.184  13.511 -0.8470 -1.2270  1.2228
 8520TIP3    H246976   3.411   6.286  13.578  0.1806 -0.4587 -1.1802
 8521TIP3   OH246977   0.640   5.800   4.870  0.5798 -0.2957  0.9277
 8521TIP3    H146978   0.719   5.768   4.827  0.8955  1.6407 -0.0396
 8521TIP3    H246979   0.658   5.790   4.963  2.1288  0.4131  0.7409
 8522TIP3   OH246980   2.139   5.201   5.312  0.3330 -0.4111 -0.2486
 8522TIP3    H146981   2.083   5.266   5.270 -0.6127 -1.3366 -0.4865
 8522TIP3    H246982   2.225   5.242   5.318 -0.3524  1.0141  0.0320
 8523TIP3   OH246983   3.776   4.781   1.567  0.5977  0.3949  0.1426
 8523TIP3    H146984   3.740   4.769   1.655  1.8373 -0.2126  0.5949
 8523TIP3    H246985   3.863   4.741   1.571 -0.2380 -1.8719 -2.0530
 8524TIP3   OH246986   2.212   0.972   2.862  0.5609 -0.4384  0.7682
 8524TIP3    H146987   2.238   0.896   2.811 -2.6961 -0.5568 -0.9925
 8524TIP3    H246988   2.147   0.939   2.924 -0.4363  0.7553  0.4133
 8525TIP3   OH246989   1.462   1.482  14.532 -0.2957 -0.4495  0.1329
 8525TIP3    H146990   1.518   1.521  14.600 -0.4196  0.2626 -0.1659
 8525TIP3    H246991   1.373   1.492  14.565 -0.3719  0.0999 -0.2303
 8526TIP3   OH246992   4.915   3.658  14.636  0.1511  0.4790 -0.2634
 8526TIP3    H146993   4.865   3.618  14.707  0.4261  0.2569 -0.1954
 8526TIP3    H246994   4.879   3.618  14.556 -0.5303  1.1290 -0.2878
 8527TIP3   OH246995   1.420   3.672  15.832  0.0904  0.5687 -0.4043
 8527TIP3    H146996   1.472   3.607  15.784 -0.1820 -0.0683  0.1417
 8527TIP3    H246997   1.384   3.728  15.764  0.2687  0.0951 -0.8977
 8528TIP3   OH246998   0.060   4.112  15.809 -0.0196  0.9269 -0.0741
 8528TIP3    H146999   0.093   4.166  15.737 -1.3584 -0.2521 -1.6416
 8528TIP3    H247000   0.134   4.106  15.870  0.6377  3.2359 -0.5711
 8529TIP3   OH247001   2.598   2.643   5.647 -0.1728 -0.3936  0.1769
 8529TIP3    H147002   2.543   2.595   5.708  1.4091 -0.1711  1.8817
 8529TIP3    H247003   2.571   2.734   5.657 -0.6491 -0.4849 -0.2698
 8530TIP3   OH247004   4.213   4.177   1.199  0.0418 -0.0992  0.0628
 8530TIP3    H147005   4.239   4.212   1.114 -1.9242  0.0971 -0.5073
 8530TIP3    H247006   4.288   4.194   1.256  1.6414 -0.7768 -1.7513
 8531TIP3   OH247007   5.020   4.022  11.506 -0.3210  0.3806  0.3043
 8531TIP3    H147008   5.014   4.094  11.568 -1.2354  0.2092  0.4187
 8531TIP3    H247009   5.034   4.065  11.421 -2.0529  0.7838  0.1829
 8532TIP3   OH247010   2.035   0.780  11.167 -0.1446  0.3258 -0.2974
 8532TIP3    H147011   1.987   0.808  11.246  1.5430 -0.3408  1.0309
 8532TIP3    H247012   2.076   0.860  11.134 -1.9879  0.8863 -1.3891
 8533TIP3   OH247013   1.983   1.111  11.176 -0.1616  0.0901  0.1633
 8533TIP3    H147014   2.038   1.068  11.110 -0.5865 -0.5297  0.1962
 8533TIP3    H247015   2.002   1.204  11.167 -0.7949  0.1019 -1.3862
 8534TIP3   OH247016   4.174   5.825  17.071 -0.6065 -0.0382  0.2368
 8534TIP3    H147017   4.196   5.750  17.015  2.4151 -0.2381  1.4527
 8534TIP3    H247018   4.092   5.858  17.037 -1.3392 -3.0306 -1.2710
 8535TIP3   OH247019   0.676   1.563  12.918  0.1042 -0.0432  0.0656
 8535TIP3    H147020   0.676   1.594  12.827  0.7374 -0.6847 -0.1604
 8535TIP3    H247021   0.586   1.534  12.934  0.0349 -0.1000 -0.4118
 8536TIP3   OH247022   6.462   4.667  13.956 -0.1651 -0.2836  0.2084
 8536TIP3    H147023   6.504   4.744  13.993 -0.1429 -0.7220  1.1253
 8536TIP3    H247024   6.462   4.682  13.862  0.8975  0.3003  0.2865
 8537TIP3   OH247025   1.921   0.282  13.070 -0.1351 -0.7207  0.6297
 8537TIP3    H147026   1.844   0.226  13.070 -1.4149  0.9612  0.7581
 8537TIP3    H247027   1.940   0.298  13.163 -0.8591  0.4223  0.6061
 8538TIP3   OH247028   1.998   2.399  10.485  0.3389  0.4964 -0.0322
 8538TIP3    H147029   1.918   2.429  10.527 -1.1877 -1.8962 -0.9904
 8538TIP3    H247030   1.982   2.306  10.467  2.7875  0.2678 -1.5180
 8539TIP3   OH247031   1.610   0.403  17.320  0.3173  0.4185 -0.5327
 8539TIP3    H147032   1.592   0.476  17.379 -1.6613 -0.6830  0.3047
 8539TIP3    H247033   1.666   0.345  17.371  0.5484  0.5677 -0.6133
 8540TIP3   OH247034   5.478   3.606  17.319 -0.0952  0.0423  0.0830
 8540TIP3    H147035   5.403   3.566  17.276  0.6651  0.0635 -1.3260
 8540TIP3    H247036   5.540   3.535  17.332  0.1867  0.2660 -0.0144
 8541TIP3   OH247037   5.007   4.461   1.492  0.1145  0.5114 -0.1314
 8541TIP3    H147038   5.059   4.498   1.563 -0.0508  1.2376 -0.3738
 8541TIP3    H247039   4.930   4.517   1.486  0.1880  0.5484 -0.9581
 8542TIP3   OH247040   6.678   1.532   3.630  0.4514  0.8168 -0.3491
 8542TIP3    H147041   6.723   1.553   3.712  2.4245  1.0605 -1.4375
 8542TIP3    H247042   6.723   1.584   3.564 -1.1364  0.6715 -1.6167
 8543TIP3   OH247043   6.753   5.972  15.549 -0.1487  0.6134  0.2650
 8543TIP3    H147044   6.757   5.895  15.606  0.6475  1.5330  1.5046
 8543TIP3    H247045   6.837   5.972  15.503 -0.4961  0.2864 -0.3925
 8544TIP3   OH247046   5.213   0.731   1.925  0.3104 -0.4752 -0.1266
 8544TIP3    H147047   5.175   0.683   1.998  1.4321  0.4146  1.1099
 8544TIP3    H247048   5.288   0.678   1.898  1.3847  0.3724  1.0581
 8545TIP3   OH247049   0.525   1.657  11.505 -0.5259  0.4377 -0.3477
 8545TIP3    H147050   0.471   1.688  11.578  0.8689  1.8376  0.1355
 8545TIP3    H247051   0.535   1.563  11.521 -1.3065  0.4840  0.5332
 8546TIP3   OH247052   4.609   3.774   0.727  0.3365 -0.0909  0.1070
 8546TIP3    H147053   4.526   3.772   0.680  0.4441 -1.4735 -0.0658
 8546TIP3    H247054   4.603   3.701   0.789  0.8802  0.6499  1.0753
 8547TIP3   OH247055   3.727   5.439   6.469  0.8904 -0.3681  0.5409
 8547TIP3    H147056   3.667   5.503   6.507 -0.1119 -0.5824 -0.5967
 8547TIP3    H247057   3.682   5.408   6.390  3.2824  0.8447 -1.4611
 8548TIP3   OH247058   5.703   4.652  12.441  0.0869 -0.0266 -0.1906
 8548TIP3    H147059   5.772   4.668  12.376 -1.2185  1.3452 -1.3012
 8548TIP3    H247060   5.723   4.565  12.476 -0.0923 -1.6584 -3.6938
 8549TIP3   OH247061   4.596   2.443  15.032  0.2899  0.0328 -0.5310
 8549TIP3    H147062   4.559   2.379  14.971  3.1003  2.1079 -4.8694
 8549TIP3    H247063   4.555   2.526  15.006 -0.4731  0.6849  2.4304
 8550TIP3   OH247064   6.033   2.977   1.755  0.4776 -0.6346 -0.2128
 8550TIP3    H147065   6.082   3.044   1.709 -0.1455 -0.2345 -0.3020
 8550TIP3    H247066   6.011   2.912   1.688  0.9351 -0.8523 -0.1583
 8551TIP3   OH247067   6.511   5.115  11.417  0.2871 -1.1441 -0.1957
 8551TIP3    H147068   6.589   5.098  11.470  0.9799  0.2899 -0.6847
 8551TIP3    H247069   6.498   5.210  11.425 -0.5962 -1.1644 -1.2164
 8552TIP3   OH247070   0.353   3.553   4.226  0.2830  0.0883 -0.5729
 8552TIP3    H147071   0.298   3.578   4.300 -0.6892 -0.7560 -0.9718
 8552TIP3    H247072   0.442   3.575   4.253  0.0336 -0.8290  1.1339
 8553TIP3   OH247073   3.340   4.725  12.752  0.3457  0.4021  0.7162
 8553TIP3    H147074   3.347   4.630  12.750 -0.5144  0.3295 -1.1872
 8553TIP3    H247075   3.298   4.744  12.836 -1.6973 -1.1075  0.1216
 8554TIP3   OH247076   6.688   4.723   1.335 -0.7335  0.3011 -0.2932
 8554TIP3    H147077   6.687   4.654   1.401 -0.3681  0.2030 -0.3887
 8554TIP3    H247078   6.654   4.800   1.381  0.4226  0.4794  0.2913
 8555TIP3   OH247079   3.141   5.226  14.717 -0.0850  0.2192  0.0714
 8555TIP3    H147080   3.059   5.183  14.695  0.8581 -1.5006 -0.2967
 8555TIP3    H247081   3.157   5.287  14.644 -0.4290 -0.3330 -0.4755
 8556TIP3   OH247082   6.458   1.686  11.409 -0.6176 -0.6433  0.0106
 8556TIP3    H147083   6.490   1.677  11.319 -0.2829  3.1842 -0.4316
 8556TIP3    H247084   6.363   1.682  11.401 -0.7334  1.9344 -1.0346
 8557TIP3   OH247085   6.288   6.224   4.012  0.1324  0.6855  0.3166
 8557TIP3    H147086   6.271   6.317   4.025 -0.1626  1.0925 -2.3387
 8557TIP3    H247087   6.202   6.187   3.991  0.0624 -0.4577  2.3431
 8558TIP3   OH247088   3.105   3.972   3.138 -0.1045 -0.2525 -0.7873
 8558TIP3    H147089   3.179   3.926   3.178 -1.1771  1.2056  3.2937
 8558TIP3    H247090   3.124   4.065   3.151 -3.1280  0.1863  1.7208
 8559TIP3   OH247091   0.695   2.193  14.004  0.0964 -0.2621  0.2068
 8559TIP3    H147092   0.604   2.192  13.975  0.8322 -2.7387 -2.3976
 8559TIP3    H247093   0.703   2.118  14.062  0.8990 -1.4160 -1.3238
 8560TIP3   OH247094   2.943   3.239  15.351 -0.2932  0.3181  0.5904
 8560TIP3    H147095   2.958   3.333  15.357  0.3503  0.2590  0.0928
 8560TIP3    H247096   2.925   3.224  15.258  0.3676 -0.1473  0.5324
 8561TIP3   OH247097   4.544   2.708   4.842  0.1445 -0.2547  0.0159
 8561TIP3    H147098   4.464   2.741   4.883 -0.1815 -2.0228  0.8630
 8561TIP3    H247099   4.514   2.647   4.774  0.7670 -0.2536 -0.2726
 8562TIP3   OH247100   6.161   2.453  14.437 -0.7429  0.3883  0.2749
 8562TIP3    H147101   6.098   2.440  14.508 -2.1598  3.1406 -0.3324
 8562TIP3    H247102   6.159   2.371  14.388 -2.0096 -0.4681  1.6774
 8563TIP3   OH247103   0.226   0.522   2.160 -0.8503 -0.0021  0.3298
 8563TIP3    H147104   0.251   0.584   2.228  1.5950 -1.3403  0.7647
 8563TIP3    H247105   0.308   0.478   2.136 -2.2822 -2.2610 -0.7554
 8564TIP3   OH247106   1.371   0.166  14.979  0.2245  0.5980  0.3834
 8564TIP3    H147107   1.375   0.093  14.918  0.0696 -0.0243  1.1014
 8564TIP3    H247108   1.412   0.132  15.059 -0.0826  1.2117  0.8044
 8565TIP3   OH247109   5.138   6.564  16.465  0.4659 -0.2608 -0.3260
 8565TIP3    H147110   5.163   6.476  16.495  2.7796  0.3672 -0.2521
 8565TIP3    H247111   5.221   6.610  16.452 -0.5745  1.0284 -3.1842
 8566TIP3   OH247112   4.437   0.069  15.729 -0.0849  0.3065  0.4034
 8566TIP3    H147113   4.442   0.034  15.640  0.0457  1.3785 -0.0255
 8566TIP3    H247114   4.513   0.031  15.774  2.2941  2.8827 -1.1164
 8567TIP3   OH247115   2.185   2.841  11.737 -0.5701 -0.0365  0.0749
 8567TIP3    H147116   2.109   2.869  11.788  0.3570  0.7969  1.0577
 8567TIP3    H247117   2.252   2.823  11.802 -0.0283 -1.1472 -0.7559
 8568TIP3   OH247118   1.680   5.625  10.487 -0.3043 -0.7573 -0.0069
 8568TIP3    H147119   1.664   5.533  10.507 -2.8631 -0.6208 -1.1174
 8568TIP3    H247120   1.772   5.628  10.459  0.1034 -2.7641  0.9542
 8569TIP3   OH247121   1.990   4.656   3.265  0.1479  0.4668 -0.0458
 8569TIP3    H147122   2.046   4.586   3.230 -2.5796 -0.6424 -2.6758
 8569TIP3    H247123   1.998   4.727   3.201 -0.4666  0.7928  0.2262
 8570TIP3   OH247124   3.803   3.013   5.247  0.9436  0.4121 -0.2295
 8570TIP3    H147125   3.791   3.094   5.297  2.4425 -0.0891  1.0178
 8570TIP3    H247126   3.719   2.967   5.255  0.3191  1.4949 -0.3444
 8571TIP3   OH247127   4.703   4.823   7.020 -0.1977 -0.0461  0.6317
 8571TIP3    H147128   4.671   4.759   6.957  0.3198 -0.9875  1.2916
 8571TIP3    H247129   4.766   4.876   6.971 -1.9101  1.1400 -0.3911
 8572TIP3   OH247130   4.930   3.152  15.317  0.1297 -0.0887 -0.0656
 8572TIP3    H147131   4.904   3.231  15.365 -0.6043 -1.4792  1.9428
 8572TIP3    H247132   4.850   3.126  15.270  0.8244  1.2258 -2.1481
 8573TIP3   OH247133   2.499   5.309  12.233 -0.2767  0.1933  0.5717
 8573TIP3    H147134   2.414   5.277  12.265 -0.4268  1.6756  1.7736
 8573TIP3    H247135   2.477   5.359  12.154 -0.3096 -0.7461 -0.0259
 8574TIP3   OH247136   3.358   0.179  12.451 -0.3350  0.2592 -0.1374
 8574TIP3    H147137   3.365   0.193  12.357 -0.8397  1.9948  0.0553
 8574TIP3    H247138   3.309   0.254  12.483 -0.2034 -0.3222  1.5108
 8575TIP3   OH247139   4.561   2.430  15.511  0.7194 -0.6114 -0.2529
 8575TIP3    H147140   4.609   2.474  15.441 -0.3849 -0.7956 -1.1428
 8575TIP3    H247141   4.500   2.495  15.544  1.1937 -0.5403  0.5372
 8576TIP3   OH247142   2.244   3.508  14.264 -0.9672 -0.1000 -0.2028
 8576TIP3    H147143   2.336   3.529  14.247 -1.3565  1.7131 -0.2578
 8576TIP3    H247144   2.208   3.588  14.301 -2.9093 -0.2434 -1.6300
 8577TIP3   OH247145   0.904   0.484  13.229 -0.2954  0.3253  0.0353
 8577TIP3    H147146   0.813   0.475  13.202 -0.8765 -2.9250  2.3756
 8577TIP3    H247147   0.905   0.558  13.289 -1.1793  0.8909 -0.6270
 8578TIP3   OH247148   4.129   6.589   3.052 -0.0877 -0.4905  0.6659
 8578TIP3    H147149   4.151   6.615   3.141  1.0276  1.3446 -0.0747
 8578TIP3    H247150   4.199   6.627   2.998 -2.8401  2.0983 -1.4266
 8579TIP3   OH247151   2.586   3.281  15.696  0.6237 -0.1898  0.5303
 8579TIP3    H147152   2.604   3.189  15.678  0.6446 -0.2071  0.6397
 8579TIP3    H247153   2.622   3.328  15.620 -1.5299 -0.4526 -0.7289
 8580TIP3   OH247154   4.204   1.494  16.174 -0.1818  0.2112 -0.2099
 8580TIP3    H147155   4.260   1.418  16.156 -2.1798 -1.8189  1.5497
 8580TIP3    H247156   4.167   1.516  16.089  2.6167  1.1742 -1.3034
 8581TIP3   OH247157   2.535   3.572   0.606 -0.3012  0.1115  0.3553
 8581TIP3    H147158   2.540   3.609   0.694 -1.5371 -0.7298  0.7996
 8581TIP3    H247159   2.570   3.484   0.614  3.3070  1.2522 -0.8453
 8582TIP3   OH247160   0.187   4.276   2.635 -0.2884 -0.0644  0.3496
 8582TIP3    H147161   0.101   4.308   2.665 -1.1175  0.2326 -2.0903
 8582TIP3    H247162   0.174   4.183   2.621 -0.3756  0.0683 -0.4859
 8583TIP3   OH247163   2.043   5.110   3.488  0.0828 -0.2451  0.8472
 8583TIP3    H147164   1.986   5.051   3.538  2.5661 -0.3258  3.8478
 8583TIP3    H247165   2.131   5.079   3.507  1.2821  1.3736 -1.6364
 8584TIP3   OH247166   1.208   1.478  15.529 -0.7210  0.2851  0.1751
 8584TIP3    H147167   1.227   1.455  15.438  1.9953  0.2510  0.6802
 8584TIP3    H247168   1.139   1.544  15.523 -1.6890 -0.8056 -1.7849
 8585TIP3   OH247169   2.985   3.076  16.991 -0.7499  0.0065 -0.3183
 8585TIP3    H147170   2.964   3.059  17.083  3.0332 -0.3157  0.6377
 8585TIP3    H247171   2.983   3.172  16.983 -0.3047  0.0766  0.3411
 8586TIP3   OH247172   2.032   3.124  12.582 -0.0019 -0.2162 -0.7389
 8586TIP3    H147173   1.997   3.184  12.516 -0.2950  0.6041  0.1517
 8586TIP3    H247174   2.000   3.158  12.665 -0.6120 -1.8952 -0.2400
 8587TIP3   OH247175   2.779   4.807   2.983 -0.2064  0.2818  0.7359
 8587TIP3    H147176   2.780   4.770   2.894 -2.1466  1.4488  0.1671
 8587TIP3    H247177   2.691   4.787   3.016  0.0535  0.9879  1.9059
 8588TIP3   OH247178   1.098   0.156  11.936 -0.0477 -0.5298 -0.1089
 8588TIP3    H147179   1.121   0.248  11.927  0.7066 -0.8030 -1.1535
 8588TIP3    H247180   1.165   0.120  11.994  1.4643 -1.0392 -2.0904
 8589TIP3   OH247181   0.019   0.651  17.057 -0.1903  0.6429 -0.6413
 8589TIP3    H147182   0.086   0.668  16.990  1.2207  1.3136  0.8691
 8589TIP3    H247183  -0.052   0.711  17.036 -0.4819 -0.2708 -2.4433
 8590TIP3   OH247184   5.528   3.605  10.930  0.7334  0.3276  0.0967
 8590TIP3    H147185   5.501   3.572  11.016  0.9129  1.2935  0.5499
 8590TIP3    H247186   5.621   3.585  10.925 -0.0577 -4.0000 -1.9338
 8591TIP3   OH247187   0.086   5.968  14.397 -0.3170  0.2118  0.2113
 8591TIP3    H147188   0.020   6.019  14.350  0.6745  0.1162 -1.3521
 8591TIP3    H247189   0.056   5.877  14.389 -0.8601  0.3216  0.9588
 8592TIP3   OH247190   0.159   3.281  13.701 -0.4674 -0.1639  0.1507
 8592TIP3    H147191   0.069   3.252  13.720 -0.7385  0.1498 -0.5925
 8592TIP3    H247192   0.212   3.241  13.769 -1.2421  0.0696  0.9134
 8593TIP3   OH247193   4.311   2.031   3.455  0.5186 -0.5668 -0.0140
 8593TIP3    H147194   4.369   1.958   3.432  0.6926 -0.6105  0.5573
 8593TIP3    H247195   4.267   2.053   3.373  1.4111 -0.4666 -0.4764
 8594TIP3   OH247196   0.323   3.528  15.800 -0.7893  0.0773 -0.0113
 8594TIP3    H147197   0.237   3.568  15.805  0.1384  2.0562  1.3504
 8594TIP3    H247198   0.360   3.539  15.888  0.8046 -0.8355 -0.5207
 8595TIP3   OH247199   6.044   4.741   0.304  0.2510  0.0084 -0.5444
 8595TIP3    H147200   5.970   4.762   0.361 -0.2017 -1.3737 -0.6100
 8595TIP3    H247201   6.121   4.769   0.354 -0.1377 -1.1302  0.7571
 8596TIP3   OH247202   4.402   1.627   1.892 -0.0059 -0.2014  0.4891
 8596TIP3    H147203   4.315   1.661   1.873 -0.4875 -1.1998  0.8557
 8596TIP3    H247204   4.428   1.670   1.974  0.0240  0.3949  0.1735
 8597TIP3   OH247205   1.843   6.735  13.249 -0.1150 -0.2138 -0.3652
 8597TIP3    H147206   1.841   6.640  13.234  0.6240 -0.1649 -0.8104
 8597TIP3    H247207   1.903   6.746  13.323  1.0334  0.0206 -1.3159
 8598TIP3   OH247208   3.793   2.649  12.272 -0.4942  0.0574 -0.4445
 8598TIP3    H147209   3.751   2.581  12.218 -0.5927  0.9262 -1.4922
 8598TIP3    H247210   3.730   2.666  12.342 -0.9950 -0.0819 -0.8552
 8599TIP3   OH247211   4.700   6.181   3.306  0.3126 -0.7481  0.1441
 8599TIP3    H147212   4.639   6.186   3.380  1.0931 -0.1196  0.7618
 8599TIP3    H247213   4.654   6.127   3.241 -0.4876 -1.1111  0.9845
 8600TIP3   OH247214   3.154   6.161   0.759  0.4263  0.3218  0.1443
 8600TIP3    H147215   3.074   6.108   0.758  1.7980 -1.8900  0.4723
 8600TIP3    H247216   3.159   6.198   0.671 -1.6728  1.7481  0.5422
 8601TIP3   OH247217   4.292   5.900   4.696  0.5527  0.5890  0.2925
 8601TIP3    H147218   4.365   5.892   4.757  0.7234  0.9745  0.1382
 8601TIP3    H247219   4.318   5.846   4.621 -0.9637 -2.4565  1.7588
 8602TIP3   OH247220   1.982   0.083  16.863  0.1069  0.0400  0.0058
 8602TIP3    H147221   1.971  -0.006  16.829  1.2924 -0.1019 -0.0300
 8602TIP3    H247222   1.937   0.082  16.948  0.7593 -0.8168  0.3577
 8603TIP3   OH247223   3.625   2.108  15.517  0.3801 -0.2003 -0.0408
 8603TIP3    H147224   3.580   2.053  15.581  0.1095  0.7192  0.5756
 8603TIP3    H247225   3.687   2.159  15.568  1.0322 -0.3271 -0.6835
 8604TIP3   OH247226   6.698   6.727   0.204 -0.5915 -0.0471  0.3230
 8604TIP3    H147227   6.657   6.805   0.167 -0.6522  0.2229  0.9402
 8604TIP3    H247228   6.685   6.736   0.298  0.0148 -0.4558  0.4523
 8605TIP3   OH247229   5.630   2.386   1.293 -0.0274  0.3764  0.3167
 8605TIP3    H147230   5.653   2.395   1.385  0.5397 -0.0479  0.2240
 8605TIP3    H247231   5.666   2.465   1.251  1.2055 -0.2332  0.1912
 8606TIP3   OH247232   0.495   3.244  15.393 -0.1301  0.4220  0.0434
 8606TIP3    H147233   0.428   3.312  15.400  1.3510  1.8408  1.0722
 8606TIP3    H247234   0.468   3.178  15.457 -0.5538  0.9579  0.4246
 8607TIP3   OH247235   3.501   0.332   0.181 -0.4664 -0.1437 -0.2377
 8607TIP3    H147236   3.556   0.260   0.151  0.0123  0.3301 -0.5068
 8607TIP3    H247237   3.454   0.297   0.257 -0.4659 -0.8337 -0.5549
 8608TIP3   OH247238   5.293   4.621   1.314  0.0112 -0.0443 -0.6862
 8608TIP3    H147239   5.351   4.581   1.378  0.3809  1.9194  0.2987
 8608TIP3    H247240   5.251   4.547   1.270  1.0444 -1.4773  0.6125
 8609TIP3   OH247241   6.087   0.205   1.658 -0.2632 -0.1331  0.6574
 8609TIP3    H147242   6.065   0.298   1.662 -2.0418 -0.5079  0.2920
 8609TIP3    H247243   6.006   0.162   1.630  0.8296 -1.6777 -0.3062
 8610TIP3   OH247244   0.335   4.946   5.106  0.5852  0.1198 -0.7083
 8610TIP3    H147245   0.337   5.038   5.081  0.6714  0.5987  0.9425
 8610TIP3    H247246   0.367   4.899   5.028  3.0111  1.6618 -0.7453
 8611TIP3   OH247247   2.983   2.233   5.431  0.2090  1.0047  0.0325
 8611TIP3    H147248   2.917   2.284   5.384 -0.6732 -0.4375 -0.3705
 8611TIP3    H247249   3.065   2.252   5.385 -0.6668 -0.6147 -2.4235
 8612TIP3   OH247250   3.875   0.118   3.811 -0.0387 -0.0480 -0.0818
 8612TIP3    H147251   3.816   0.167   3.753 -0.8957 -0.3879  0.4716
 8612TIP3    H247252   3.885   0.032   3.769 -0.0441 -0.0329 -0.1138
 8613TIP3   OH247253   2.587   4.236  14.601 -0.0558 -0.3387  0.3262
 8613TIP3    H147254   2.601   4.179  14.676  0.6562  1.0128  1.2714
 8613TIP3    H247255   2.547   4.180  14.535  1.6656 -2.2260  0.7690
 8614TIP3   OH247256   3.312   0.003  10.548 -0.8793 -0.1683 -0.4346
 8614TIP3    H147257   3.300  -0.092  10.556  0.1168 -0.1843  1.4836
 8614TIP3    H247258   3.226   0.041  10.567 -0.6949 -0.6263  1.4766
 8615TIP3   OH247259   5.119   4.443   3.929  0.1863  0.3119 -0.0811
 8615TIP3    H147260   5.209   4.473   3.921  1.0970 -2.7535 -3.9764
 8615TIP3    H247261   5.069   4.499   3.869  0.1765 -0.2342 -0.5847
 8616TIP3   OH247262   2.947   0.634  13.784  0.0336 -0.5656  0.1621
 8616TIP3    H147263   2.974   0.710  13.732 -1.9790  0.5996  0.6947
 8616TIP3    H247264   2.884   0.588  13.728  0.2076 -1.0714  0.3784
 8617TIP3   OH247265   0.923   6.107  15.413 -0.2621  0.6915 -0.2661
 8617TIP3    H147266   0.998   6.157  15.444  0.8499 -0.5053 -0.9026
 8617TIP3    H247267   0.849   6.139  15.464  0.9973  0.6731  1.6537
 8618TIP3   OH247268   3.715   3.540   2.539  0.0201 -0.4437 -0.3487
 8618TIP3    H147269   3.625   3.554   2.571 -0.6528  1.3888 -2.7277
 8618TIP3    H247270   3.703   3.507   2.449  1.7942 -2.2301 -0.0034
 8619TIP3   OH247271   4.976   5.105  15.790  0.4486  0.5397  0.0001
 8619TIP3    H147272   4.967   5.146  15.876  1.7555 -0.3677  0.5952
 8619TIP3    H247273   5.069   5.112  15.769  0.0197  1.6638 -1.8377
 8620TIP3   OH247274   3.777   4.606   4.044  0.3106  0.0823  0.6427
 8620TIP3    H147275   3.755   4.533   4.102  1.0678 -0.2012  0.5977
 8620TIP3    H247276   3.844   4.569   3.985 -0.3967  0.3752 -0.3722
 8621TIP3   OH247277   6.369   1.849  11.955 -0.0473  0.1239  1.0538
 8621TIP3    H147278   6.418   1.920  11.912  0.3762 -0.6082  0.3141
 8621TIP3    H247279   6.307   1.819  11.888  1.3760 -1.7768  0.5345
 8622TIP3   OH247280   0.608   4.397   4.231 -0.0893  0.3607  0.3976
 8622TIP3    H147281   0.624   4.387   4.324 -1.5756  0.2865  0.6746
 8622TIP3    H247282   0.589   4.491   4.220 -0.3336  0.2979  0.2579
 8623TIP3   OH247283   6.363   6.087  16.829 -0.2426 -0.1180 -0.0949
 8623TIP3    H147284   6.407   6.155  16.880  2.3162 -0.8618 -1.1731
 8623TIP3    H247285   6.314   6.135  16.762  0.2945  0.6974  0.0863
 8624TIP3   OH247286   0.560   6.470   1.333  0.3691 -0.3450 -0.5427
 8624TIP3    H147287   0.649   6.449   1.361  0.9556 -1.2112 -2.8489
 8624TIP3    H247288   0.569   6.548   1.279 -0.1605 -0.7745 -1.2773
 8625TIP3   OH247289   0.485   1.828   0.128  0.1954  0.0059 -0.0405
 8625TIP3    H147290   0.456   1.827   0.037 -1.4574 -1.6879  0.4487
 8625TIP3    H247291   0.489   1.736   0.152  2.9429  0.3118  0.9386
 8626TIP3   OH247292   0.031   3.115  13.931  0.2291 -0.2715  0.2340
 8626TIP3    H147293   0.125   3.099  13.920  0.1638  0.6549 -2.6615
 8626TIP3    H247294  -0.011   3.044  13.882 -0.5863 -0.5081  1.2525
 8627TIP3   OH247295   5.942   6.113   6.316 -0.6425 -0.6341  0.1005
 8627TIP3    H147296   5.932   6.166   6.237 -0.0027 -0.8709 -0.1501
 8627TIP3    H247297   5.879   6.149   6.378  0.0385  0.6569  0.0670
 8628TIP3   OH247298   3.007   5.312   4.561  0.3664  0.2781  1.3720
 8628TIP3    H147299   3.091   5.330   4.602  0.0036 -1.4332  2.9689
 8628TIP3    H247300   2.953   5.274   4.630 -1.3881  0.3423  0.1260
 8629TIP3   OH247301   2.746   5.560  17.099  0.7410 -0.1542 -0.2983
 8629TIP3    H147302   2.757   5.470  17.128 -0.8470 -0.2551  0.0833
 8629TIP3    H247303   2.836   5.593  17.089  1.3468 -1.4208  0.6300
 8630TIP3   OH247304   3.153   1.073  12.070 -0.7248  0.3237 -0.2301
 8630TIP3    H147305   3.216   1.017  12.026  0.5796 -1.2408  3.2887
 8630TIP3    H247306   3.206   1.145  12.105 -1.5131  0.9413 -0.2852
 8631TIP3   OH247307   4.172   0.834  13.237  0.1204  0.2210  0.8533
 8631TIP3    H147308   4.154   0.764  13.299 -0.0050  0.6201  1.2746
 8631TIP3    H247309   4.198   0.789  13.157  0.1087 -0.3032  1.1386
 8632TIP3   OH247310   1.983   3.071   3.548 -0.0959 -0.2453  0.4545
 8632TIP3    H147311   2.019   3.012   3.481  0.0232  0.1287  0.1851
 8632TIP3    H247312   1.892   3.086   3.520  0.6114  1.7954 -0.9661
 8633TIP3   OH247313   2.787   6.232   1.714  0.2967 -0.3302 -0.0055
 8633TIP3    H147314   2.772   6.280   1.795 -0.9291  1.1757 -1.0630
 8633TIP3    H247315   2.877   6.252   1.690 -0.5237  2.6349 -1.0641
 8634TIP3   OH247316   2.883   3.844   3.514 -0.1817  0.2229  0.5744
 8634TIP3    H147317   2.819   3.914   3.499 -0.3973 -0.4114 -1.7652
 8634TIP3    H247318   2.966   3.890   3.526 -0.4316  0.9144 -0.2795
 8635TIP3   OH247319   3.497   5.682   5.778  0.3868 -0.6987 -0.1549
 8635TIP3    H147320   3.445   5.621   5.725  0.0892 -1.4326  0.9660
 8635TIP3    H247321   3.500   5.643   5.865 -0.4868  1.2547  0.8277
 8636TIP3   OH247322   4.815   1.700  14.311  0.0210  0.4292  0.3280
 8636TIP3    H147323   4.813   1.633  14.242 -0.3131  1.2379 -0.4671
 8636TIP3    H247324   4.908   1.715  14.326  0.1092  0.6856 -0.4001
 8637TIP3   OH247325   0.253   1.534  13.958 -0.2184  0.4151  0.0248
 8637TIP3    H147326   0.174   1.587  13.953 -0.2861  0.2775 -0.4234
 8637TIP3    H247327   0.222   1.443  13.956 -0.1507  0.3365  1.5188
 8638TIP3   OH247328   1.118   3.373   1.898  0.4715  0.5188  0.2739
 8638TIP3    H147329   1.054   3.443   1.883  0.4552  0.9548  2.1111
 8638TIP3    H247330   1.191   3.418   1.942  1.0077 -0.4049  0.3382
 8639TIP3   OH247331   0.370   3.201   5.210 -0.4617 -0.0652  0.2920
 8639TIP3    H147332   0.389   3.286   5.170  0.9461 -0.8784 -0.8688
 8639TIP3    H247333   0.320   3.222   5.289 -2.2144  1.7020 -1.1760
 8640TIP3   OH247334   1.880   3.502   4.352  0.6400 -0.2496 -0.1318
 8640TIP3    H147335   1.975   3.503   4.357  0.6354 -1.6024  1.1663
 8640TIP3    H247336   1.860   3.459   4.269  1.1640 -0.4581 -0.1486
 8641TIP3   OH247337   5.642   1.085   5.022  0.2153 -0.4010 -0.3647
 8641TIP3    H147338   5.641   1.022   5.094 -0.0517 -0.9085 -0.8112
 8641TIP3    H247339   5.557   1.076   4.980 -0.9034  2.1122  1.1465
 8642TIP3   OH247340   3.069   1.639  16.510  0.3280 -0.3103  0.2639
 8642TIP3    H147341   3.049   1.586  16.587 -0.1693  0.6969  0.8521
 8642TIP3    H247342   2.994   1.697  16.501  0.7385  0.1125 -0.5190
 8643TIP3   OH247343   1.368   4.827  11.196  0.0385 -0.5970  0.0969
 8643TIP3    H147344   1.417   4.890  11.249  1.1541 -1.6999  0.4305
 8643TIP3    H247345   1.285   4.817  11.243 -1.0856  2.1351 -1.0675
 8644TIP3   OH247346   5.243   1.007  12.556  0.2300 -1.0358 -0.3032
 8644TIP3    H147347   5.167   1.016  12.613  0.7702 -1.0520  0.4445
 8644TIP3    H247348   5.286   1.092  12.559  1.7661 -1.7927  1.5510
 8645TIP3   OH247349   4.145   1.765  11.824  0.6704 -0.1553 -0.2083
 8645TIP3    H147350   4.163   1.834  11.888  0.4857  1.3861 -1.7465
 8645TIP3    H247351   4.049   1.756  11.824  0.7713 -1.5223  1.0682
 8646TIP3   OH247352   2.468   3.836   1.106 -0.2767  0.3167  0.5641
 8646TIP3    H147353   2.525   3.902   1.144  1.6465 -0.6951 -0.4055
 8646TIP3    H247354   2.409   3.811   1.177  0.9833  0.8800  1.8581
 8647TIP3   OH247355   4.190   0.622  12.115 -0.3320 -0.4392 -0.2686
 8647TIP3    H147356   4.269   0.575  12.140 -0.1947  0.3748  0.8877
 8647TIP3    H247357   4.163   0.582  12.033  0.7050 -1.4122 -0.1488
 8648TIP3   OH247358   2.250   5.726  16.589  0.5244  0.6311  0.3865
 8648TIP3    H147359   2.219   5.707  16.500 -0.6751 -0.1460  0.9373
 8648TIP3    H247360   2.187   5.790  16.623  0.0086 -0.2779  1.2061
 8649TIP3   OH247361   4.671   0.671  16.643  0.0067  0.2057 -0.4658
 8649TIP3    H147362   4.707   0.738  16.701  1.5557 -1.3067  0.4165
 8649TIP3    H247363   4.613   0.719  16.584 -0.1614  2.0728  1.1175
 8650TIP3   OH247364   2.976   0.186  13.563  0.0386 -0.1003 -0.0632
 8650TIP3    H147365   2.899   0.130  13.555 -0.6192  0.7485  0.1171
 8650TIP3    H247366   2.995   0.213  13.474 -0.1502  0.0474 -0.0595
 8651TIP3   OH247367   2.480   5.455  15.552 -0.1163 -0.1815  0.1857
 8651TIP3    H147368   2.390   5.430  15.527  0.4537 -1.3389 -0.8343
 8651TIP3    H247369   2.483   5.550  15.540 -1.2113 -0.1182  0.2756
 8652TIP3   OH247370   3.568   4.212   4.391 -0.0027 -0.6254  0.0194
 8652TIP3    H147371   3.664   4.219   4.395 -0.0472 -0.4905  1.4985
 8652TIP3    H247372   3.538   4.301   4.380  0.0566 -0.7461 -1.1852
 8653TIP3   OH247373   3.173   6.427   2.289  0.0947 -0.4609 -0.1402
 8653TIP3    H147374   3.141   6.503   2.240  1.9118 -0.1603 -0.9444
 8653TIP3    H247375   3.187   6.460   2.377  0.9850  0.1988 -0.5121
 8654TIP3   OH247376   0.731   3.236  14.087  0.0920 -0.0176  0.7171
 8654TIP3    H147377   0.784   3.261  14.163  0.3781  2.0791 -0.0942
 8654TIP3    H247378   0.770   3.285  14.014 -1.4612 -0.3544 -0.3752
 8655TIP3   OH247379   3.165   5.478  14.574 -0.4708 -0.0978  0.0171
 8655TIP3    H147380   3.150   5.573  14.571 -0.1028 -0.0527 -2.6299
 8655TIP3    H247381   3.260   5.469  14.568 -0.5723 -0.6309 -0.9530
 8656TIP3   OH247382   0.295   3.848   4.629 -0.2535  0.4500 -0.0594
 8656TIP3    H147383   0.201   3.852   4.640 -0.1575  0.5258  0.7670
 8656TIP3    H247384   0.325   3.939   4.635 -0.1303  0.4350 -0.3862
 8657TIP3   OH247385   6.198   1.317   4.764 -0.4556 -0.0827  0.1113
 8657TIP3    H147386   6.133   1.384   4.744  0.5893  0.9771  0.1877
 8657TIP3    H247387   6.266   1.328   4.697 -0.0074 -0.7095  0.4493
 8658TIP3   OH247388   2.082   4.191   4.796 -0.3226 -0.1313 -0.3657
 8658TIP3    H147389   2.069   4.207   4.703 -1.0253  0.5612 -0.1526
 8658TIP3    H247390   2.081   4.095   4.804  2.2845 -0.3342 -1.4133
 8659TIP3   OH247391   2.931   3.361  16.602  0.0754  0.2004 -0.1252
 8659TIP3    H147392   2.928   3.437  16.545 -1.2744  1.2990  1.2934
 8659TIP3    H247393   2.946   3.286  16.544  1.1641  1.5057 -1.5777
 8660TIP3   OH247394   3.360   6.556  16.770 -0.5017 -0.2535 -0.3584
 8660TIP3    H147395   3.336   6.473  16.728 -1.0242 -0.4024  0.1994
 8660TIP3    H247396   3.452   6.545  16.794 -0.4198 -0.4675 -0.7710
 8661TIP3   OH247397   4.298   6.374  13.504  0.6590 -0.7430 -0.3352
 8661TIP3    H147398   4.320   6.448  13.560  1.2051 -0.8796 -0.3575
 8661TIP3    H247399   4.207   6.354  13.524 -0.0838  1.0735 -1.6365
 8662TIP3   OH247400   6.635   6.579   4.965 -0.0126  0.7018  0.0556
 8662TIP3    H147401   6.611   6.489   4.985  0.9036  0.2413 -0.8348
 8662TIP3    H247402   6.655   6.579   4.871  2.7142  1.1778  0.5636
 8663TIP3   OH247403   2.053   2.257  12.416 -0.0993  0.1857  0.4302
 8663TIP3    H147404   2.031   2.294  12.331 -1.4655  0.8480  1.0391
 8663TIP3    H247405   1.998   2.305  12.478  2.1088  0.9569  1.9233
 8664TIP3   OH247406   4.400   6.359   3.229  0.3569  0.1531 -0.1522
 8664TIP3    H147407   4.409   6.343   3.135 -0.9502  0.3392 -0.3172
 8664TIP3    H247408   4.473   6.311   3.268 -0.0368 -1.3086 -1.1296
 8665TIP3   OH247409   3.652   1.041   3.660  0.0190 -0.1104 -0.4634
 8665TIP3    H147410   3.704   1.097   3.718 -2.0051  0.3342  1.0533
 8665TIP3    H247411   3.588   1.101   3.621 -1.0216 -1.0461 -0.2397
 8666TIP3   OH247412   5.362   1.026   5.031  0.3313 -0.1504  0.5051
 8666TIP3    H147413   5.288   1.023   4.970 -0.8797 -0.7798  1.9418
 8666TIP3    H247414   5.350   0.949   5.087  2.6301 -0.8022  0.1840
 8667TIP3   OH247415   6.529   0.094   4.745  0.1089  0.0082  0.0978
 8667TIP3    H147416   6.615   0.056   4.760 -0.4504 -0.9281  1.1451
 8667TIP3    H247417   6.509   0.073   4.654  1.5235  1.4295 -0.5746
 8668TIP3   OH247418   4.791   2.413  11.625  0.1012  0.1593 -0.1699
 8668TIP3    H147419   4.869   2.459  11.654  0.6711 -0.7030 -0.3045
 8668TIP3    H247420   4.764   2.459  11.546  0.4851  0.4480 -0.1352
 8669TIP3   OH247421   3.978   5.821   2.606 -0.2048  0.2070  0.8755
 8669TIP3    H147422   3.938   5.754   2.662 -0.5291 -0.6989 -0.3817
 8669TIP3    H247423   4.069   5.793   2.596  0.0106  0.7001  1.4316
 8670TIP3   OH247424   1.436   1.766  14.822  0.1381 -0.7145  0.3506
 8670TIP3    H147425   1.371   1.699  14.800  0.7958 -1.5253  0.7828
 8670TIP3    H247426   1.489   1.775  14.743 -1.5106  1.2195 -0.6189
 8671TIP3   OH247427   0.764   0.982   0.596  0.1732 -0.1252  0.1811
 8671TIP3    H147428   0.808   0.961   0.514 -0.1525 -0.0465 -0.0188
 8671TIP3    H247429   0.819   1.049   0.637 -0.4219  0.9303 -0.6795
 8672TIP3   OH247430   1.385   1.877   0.207 -0.7124  0.7756  0.2755
 8672TIP3    H147431   1.357   1.798   0.254  0.2669 -0.0241 -0.4377
 8672TIP3    H247432   1.468   1.901   0.248 -0.1967  0.4717 -0.5572
 8673TIP3   OH247433   5.753   4.819  15.954 -0.1303 -0.1025 -0.0318
 8673TIP3    H147434   5.703   4.876  15.896 -0.3413  0.9913  1.1913
 8673TIP3    H247435   5.839   4.813  15.912 -0.0506  1.2664 -0.1013
 8674TIP3   OH247436   4.239   6.351  13.210 -0.8007  0.1222  0.2424
 8674TIP3    H147437   4.289   6.390  13.138  0.2979 -1.4987  0.0456
 8674TIP3    H247438   4.283   6.381  13.289 -1.0365  0.6569  0.1723
 8675TIP3   OH247439   0.051   6.047  12.137  0.9600  0.0436  0.1416
 8675TIP3    H147440  -0.004   6.059  12.060  1.4194  0.0731 -0.1837
 8675TIP3    H247441   0.003   5.985  12.192 -0.2809  1.4289  0.6997
 8676TIP3   OH247442   6.643   2.329   6.729  0.0189 -0.3623 -0.6959
 8676TIP3    H147443   6.597   2.305   6.809  1.4826 -0.9873 -0.0082
 8676TIP3    H247444   6.656   2.423   6.735  0.4848 -0.4653  0.0144
 8677TIP3   OH247445   1.228   3.885   3.912  0.2570  0.0720 -0.3155
 8677TIP3    H147446   1.226   3.943   3.836  0.9533  1.1253  0.4453
 8677TIP3    H247447   1.169   3.926   3.975  0.8064  0.0061  0.2531
 8678TIP3   OH247448   1.526   1.291  15.201  0.2130 -0.2962 -0.0342
 8678TIP3    H147449   1.460   1.274  15.135  0.4348 -0.6836 -0.1566
 8678TIP3    H247450   1.539   1.207  15.245  2.6235 -0.9788 -1.8324
 8679TIP3   OH247451   2.406   1.498   5.120  0.2312  0.5479 -0.1552
 8679TIP3    H147452   2.464   1.474   5.193 -1.9054 -0.9887  1.1671
 8679TIP3    H247453   2.318   1.496   5.158 -1.0694 -1.2456 -2.9683
 8680TIP3   OH247454   3.862   0.044   5.340  0.5039  0.2859 -0.1996
 8680TIP3    H147455   3.862   0.139   5.352  4.1416  0.6305 -1.7570
 8680TIP3    H247456   3.910   0.029   5.259 -3.9293 -2.8035 -2.6861
 8681TIP3   OH247457   4.740   3.952  15.894  0.0547 -0.4368 -0.3756
 8681TIP3    H147458   4.773   3.988  15.976  0.3897 -0.6662 -0.4080
 8681TIP3    H247459   4.716   3.862  15.914  1.0174 -0.7867 -0.7454
 8682TIP3   OH247460   1.593   1.668  15.034  0.2472 -0.2894 -0.0111
 8682TIP3    H147461   1.587   1.723  15.112 -1.6411  1.8283 -1.4993
 8682TIP3    H247462   1.519   1.695  14.980  1.3693 -1.7716 -2.4801
 8683TIP3   OH247463   2.064   1.863  10.698  0.1746 -0.4468  0.2503
 8683TIP3    H147464   2.089   1.907  10.616 -0.0810  0.0477  0.4317
 8683TIP3    H247465   1.977   1.828  10.680  1.3419 -3.1150 -0.7529
 8684TIP3   OH247466   2.075   6.706  13.406 -0.5124  0.1738  0.2288
 8684TIP3    H147467   2.162   6.724  13.372 -0.5330 -0.2294 -0.0443
 8684TIP3    H247468   2.078   6.738  13.497 -0.4467  1.2142 -0.1200
 8685TIP3   OH247469   4.623   5.123  13.700  0.3489  0.5744  0.2956
 8685TIP3    H147470   4.716   5.103  13.691  0.2554 -0.0567  0.6519
 8685TIP3    H247471   4.579   5.059  13.644  0.2191  2.2644 -1.6387
 8686TIP3   OH247472   0.345   4.914  15.875  0.6485  0.0492  0.3926
 8686TIP3    H147473   0.390   4.930  15.958 -1.2947  1.7750  1.1862
 8686TIP3    H247474   0.258   4.884  15.901  0.3914 -0.5178 -1.0611
 8687TIP3   OH247475   2.761   5.812  15.094  0.4998  0.0855  0.7795
 8687TIP3    H147476   2.823   5.795  15.166  0.1808  0.1956  1.0830
 8687TIP3    H247477   2.678   5.777  15.126  1.1636 -3.8822 -1.2070
 8688TIP3   OH247478   6.623   1.640   2.839  0.3853  0.4346 -0.1517
 8688TIP3    H147479   6.688   1.659   2.907  0.8790 -0.2263 -0.4244
 8688TIP3    H247480   6.595   1.551   2.857  2.2096 -0.6427 -2.0988
 8689TIP3   OH247481   5.073   4.579  11.847 -0.3512  0.0956 -0.3409
 8689TIP3    H147482   5.120   4.566  11.765  1.7002 -3.2974  1.1644
 8689TIP3    H247483   5.136   4.622  11.904 -0.3146 -1.1451  0.5888
 8690TIP3   OH247484   4.095   4.369   4.812  0.5516  0.3281 -0.3457
 8690TIP3    H147485   4.091   4.277   4.785 -1.0184  0.3738 -0.3416
 8690TIP3    H247486   4.162   4.408   4.756  0.9976 -0.7409 -0.5749
 8691TIP3   OH247487   4.602   6.626  16.675 -0.0883  0.4325  0.3068
 8691TIP3    H147488   4.690   6.649  16.705 -0.5775  1.7871  0.8184
 8691TIP3    H247489   4.595   6.532  16.691  1.9331 -0.1080 -1.5812
 8692TIP3   OH247490   5.297   3.677   1.877 -0.1947 -0.1562 -0.2284
 8692TIP3    H147491   5.334   3.752   1.925  0.0313  0.8359 -1.8827
 8692TIP3    H247492   5.349   3.672   1.797 -0.1394 -2.1888 -0.1034
 8693TIP3   OH247493   4.482   1.781   0.225 -0.0397 -0.0705 -0.0319
 8693TIP3    H147494   4.503   1.745   0.311  0.3362 -1.8329 -0.7951
 8693TIP3    H247495   4.552   1.844   0.207  2.3196 -2.6373 -0.6675
 8694TIP3   OH247496   1.104   6.487  11.113  1.1930 -0.3370 -0.3486
 8694TIP3    H147497   1.037   6.440  11.163  0.2659  2.0901  0.8375
 8694TIP3    H247498   1.186   6.444  11.137  0.3981 -1.3863  0.6034
 8695TIP3   OH247499   3.339   1.455   0.013 -0.2271  0.2465 -0.1116
 8695TIP3    H147500   3.264   1.418   0.059 -0.6330  0.1376 -0.8541
 8695TIP3    H247501   3.411   1.396   0.035 -0.4804  0.0204  0.1306
 8696TIP3   OH247502   1.636   6.224  13.730  0.0794  0.2980  0.2908
 8696TIP3    H147503   1.563   6.254  13.677 -0.5381  0.2727  1.1012
 8696TIP3    H247504   1.687   6.304  13.748 -2.6263  1.5049  4.1190
 8697TIP3   OH247505   3.505   3.670  14.172 -0.2565 -0.2157 -0.5382
 8697TIP3    H147506   3.476   3.595  14.223 -0.2345 -0.2984 -0.6459
 8697TIP3    H247507   3.593   3.690  14.206 -0.9741  0.9023  0.7380
 8698TIP3   OH247508   5.254   0.664  17.157  0.1822 -0.1933 -0.3314
 8698TIP3    H147509   5.324   0.610  17.120 -0.6198  1.6884 -5.3091
 8698TIP3    H247510   5.182   0.604  17.172  0.6774 -1.1783 -1.7035
 8699TIP3   OH247511   2.677   2.617  16.451  0.3375  0.6111 -0.0204
 8699TIP3    H147512   2.696   2.636  16.360 -3.0608  2.4089 -0.4830
 8699TIP3    H247513   2.692   2.700  16.497 -0.1433  0.3463  0.6346
 8700TIP3   OH247514   4.217   5.150  14.706 -0.4606  0.1054  0.6940
 8700TIP3    H147515   4.133   5.105  14.719 -1.5082  1.5250 -0.6943
 8700TIP3    H247516   4.204   5.236  14.747  0.4546  0.2274  0.7544
 8701TIP3   OH247517   5.373   2.378  15.724 -0.3312 -0.4794  0.3856
 8701TIP3    H147518   5.344   2.354  15.812  2.0607  1.8062  1.9499
 8701TIP3    H247519   5.344   2.469  15.714  0.0299 -0.4973 -0.9141
 8702TIP3   OH247520   0.246   2.529   3.091  0.0638 -0.2439  0.0311
 8702TIP3    H147521   0.156   2.506   3.068 -0.9158  1.8249  1.4324
 8702TIP3    H247522   0.248   2.522   3.187  0.9029  1.1832  0.1471
 8703TIP3   OH247523   4.479   1.017   5.639  0.2241 -0.3585 -0.3320
 8703TIP3    H147524   4.483   0.935   5.690  1.4260 -0.9289 -1.2909
 8703TIP3    H247525   4.393   1.015   5.598  0.5372 -1.5720 -0.9918
 8704TIP3   OH247526   2.975   6.771   2.047 -0.5059 -0.6182  0.2647
 8704TIP3    H147527   2.965   6.798   2.138  0.4237  0.1330  0.1568
 8704TIP3    H247528   2.937   6.683   2.044  0.3631 -1.0604  1.5973
 8705TIP3   OH247529   3.335   3.806  15.685  0.0709 -0.0228 -0.2027
 8705TIP3    H147530   3.302   3.891  15.714  0.6568  0.0297  0.3471
 8705TIP3    H247531   3.274   3.778  15.617  0.4911  1.3468 -1.1984
 8706TIP3   OH247532   4.054   1.364   0.853 -0.0199 -0.3728 -0.6132
 8706TIP3    H147533   4.011   1.436   0.899 -0.4541 -0.9550 -0.0943
 8706TIP3    H247534   4.147   1.374   0.875 -0.3887 -1.7637  2.0775
 8707TIP3   OH247535   5.871   4.686   4.403  0.4103 -0.0163 -0.0060
 8707TIP3    H147536   5.854   4.593   4.389  0.6292  0.2488 -2.3913
 8707TIP3    H247537   5.904   4.692   4.493 -0.3513 -2.1184  0.4490
 8708TIP3   OH247538   3.942   2.080   0.737  0.0366  0.0673  0.0895
 8708TIP3    H147539   3.889   2.160   0.729  0.0824  0.0945  0.0547
 8708TIP3    H247540   3.997   2.094   0.814  0.1263  0.1171  0.0164
 8709TIP3   OH247541   0.387   5.256   5.606  0.1105  0.3792 -0.4098
 8709TIP3    H147542   0.375   5.207   5.687 -0.6514  0.1173 -0.6727
 8709TIP3    H247543   0.465   5.309   5.621 -0.7420  1.2873  0.9419
 8710TIP3   OH247544   4.832   3.536  15.302  0.7353  0.7509 -0.1325
 8710TIP3    H147545   4.738   3.526  15.286  0.1939  1.3151  2.2514
 8710TIP3    H247546   4.874   3.492  15.228 -1.3951  0.1361 -1.0562
 8711TIP3   OH247547   4.374   1.910   2.326  0.0930 -0.4453  0.3040
 8711TIP3    H147548   4.324   1.859   2.390 -0.2605 -0.6237 -0.1133
 8711TIP3    H247549   4.309   1.945   2.266  0.4823 -0.8453 -0.3579
 8712TIP3   OH247550   5.232   0.343   2.178 -0.5997 -0.3533  0.8754
 8712TIP3    H147551   5.327   0.348   2.190 -0.2346 -2.0370 -0.7885
 8712TIP3    H247552   5.200   0.302   2.259  0.1552 -0.3183  1.2031
 8713TIP3   OH247553   1.774   5.384  10.573  0.0350  0.9343 -0.4362
 8713TIP3    H147554   1.854   5.367  10.524  0.4768 -1.5531  0.9578
 8713TIP3    H247555   1.713   5.315  10.546 -1.3432  2.2436 -0.8059
 8714TIP3   OH247556   1.401   5.008  17.391 -0.1655  0.4621 -0.1326
 8714TIP3    H147557   1.395   5.042  17.302  1.0623 -1.6219 -1.0612
 8714TIP3    H247558   1.421   4.915  17.381  2.3785  0.6212  2.2993
 8715TIP3   OH247559   0.444   6.434  12.576 -0.2630 -0.3939  0.1264
 8715TIP3    H147560   0.463   6.435  12.482 -0.8736 -0.6302 -0.0011
 8715TIP3    H247561   0.450   6.526  12.602  0.8285 -0.4313  0.0514
 8716TIP3   OH247562   3.595   2.893  14.176 -0.5332  0.1934 -0.1642
 8716TIP3    H147563   3.539   2.847  14.239  1.3255 -0.7626  0.9135
 8716TIP3    H247564   3.539   2.911  14.101 -2.4370 -0.0255  1.1508
 8717TIP3   OH247565   0.719   2.374  17.344 -0.1243 -0.1376  0.0849
 8717TIP3    H147566   0.789   2.311  17.329  1.5063  1.9038 -1.5049
 8717TIP3    H247567   0.750   2.428  17.417 -0.6450  0.0066  0.2077
 8718TIP3   OH247568   3.813   5.930  12.724 -0.1642 -0.6120 -0.0175
 8718TIP3    H147569   3.722   5.956  12.711 -0.0634 -0.5355 -0.6173
 8718TIP3    H247570   3.822   5.917  12.819 -0.4254  0.7369  0.2008
 8719TIP3   OH247571   2.175   4.608   4.746  0.3616  0.2897  0.3015
 8719TIP3    H147572   2.149   4.589   4.656  1.5142 -0.2132  0.0647
 8719TIP3    H247573   2.148   4.531   4.796  1.2911 -0.1966  0.0702
 8720TIP3   OH247574   2.246   2.882  12.811  0.7948  0.2934 -0.0833
 8720TIP3    H147575   2.155   2.896  12.836  1.1472  2.1363  0.3249
 8720TIP3    H247576   2.257   2.934  12.731  1.2855 -0.5562 -0.5730
 8721TIP3   OH247577   1.864   3.181  14.812 -0.1727 -0.2315 -0.6042
 8721TIP3    H147578   1.893   3.220  14.895 -0.4209  0.2297 -0.7321
 8721TIP3    H247579   1.934   3.204  14.750  0.2429 -0.9714 -0.4268
 8722TIP3   OH247580   2.008   0.506  14.427 -0.2156  0.3346 -0.4381
 8722TIP3    H147581   1.968   0.570  14.486 -1.2826 -0.4095 -0.3300
 8722TIP3    H247582   2.032   0.433  14.484  1.6824  0.8919 -0.4362
 8723TIP3   OH247583   4.876   5.343  13.598  0.0993  0.3443  0.5984
 8723TIP3    H147584   4.967   5.353  13.568 -0.1531  1.4973  0.1692
 8723TIP3    H247585   4.866   5.249  13.612  0.9549  0.0474 -0.6283
 8724TIP3   OH247586   6.551   6.737   5.180 -1.1235 -0.2220  0.4404
 8724TIP3    H147587   6.608   6.695   5.117  1.1370 -0.2312  2.3492
 8724TIP3    H247588   6.540   6.827   5.148 -0.4880 -0.3812 -0.2289
 8725TIP3   OH247589   6.367   3.383   4.419  0.2766 -0.2601 -0.2103
 8725TIP3    H147590   6.326   3.352   4.500 -2.2037  1.9396 -0.4774
 8725TIP3    H247591   6.428   3.451   4.448 -0.2517  0.1836 -0.1102
 8726TIP3   OH247592   1.538   1.774   4.542 -0.6260 -0.5651  0.8042
 8726TIP3    H147593   1.553   1.735   4.456  0.1530 -2.0647  1.5790
 8726TIP3    H247594   1.467   1.837   4.528 -0.8041 -1.0874 -0.8328
 8727TIP3   OH247595   6.305   3.104   1.980  0.3075  0.2125  0.2993
 8727TIP3    H147596   6.344   3.140   2.060 -0.8460 -1.7535  1.8225
 8727TIP3    H247597   6.310   3.009   1.991 -2.3340 -0.1344 -0.6600
 8728TIP3   OH247598   2.392   3.304   4.211 -0.6692  0.6480  0.0176
 8728TIP3    H147599   2.298   3.285   4.213 -0.7849  0.9996 -1.0925
 8728TIP3    H247600   2.413   3.308   4.118  0.7045 -0.6071  0.2436
 8729TIP3   OH247601   6.773   0.593   5.885  0.4353 -0.3564 -0.1368
 8729TIP3    H147602   6.724   0.629   5.959 -0.3190 -0.0184 -0.7953
 8729TIP3    H247603   6.862   0.626   5.897  0.0972  0.4752  0.1070
 8730TIP3   OH247604   5.397   6.730   1.318  0.9261  0.2534  0.1798
 8730TIP3    H147605   5.385   6.825   1.322  0.2170  0.1685  0.2820
 8730TIP3    H247606   5.335   6.702   1.250  3.0597  0.1562 -1.8599
 8731TIP3   OH247607   2.332   2.203  12.468 -0.0254  0.2961  0.4354
 8731TIP3    H147608   2.366   2.220  12.556 -1.3556  1.5655  0.7430
 8731TIP3    H247609   2.237   2.200  12.479 -0.2314  0.7205 -0.9970
 8732TIP3   OH247610   0.044   1.237   5.123  0.2592  0.7397 -0.4748
 8732TIP3    H147611   0.093   1.314   5.154  0.9607 -0.6090  2.0862
 8732TIP3    H247612   0.103   1.164   5.140 -1.5329 -0.6578  0.0008
 8733TIP3   OH247613   5.394   5.139   2.212  0.1499 -0.8633 -0.6841
 8733TIP3    H147614   5.394   5.212   2.274 -0.0031 -0.6025 -0.9934
 8733TIP3    H247615   5.486   5.126   2.190  0.1368 -0.4958 -0.9490
 8734TIP3   OH247616   1.303   5.658   5.994  0.4015  0.2967 -0.0596
 8734TIP3    H147617   1.341   5.588   6.048  0.8244  1.1453  0.7742
 8734TIP3    H247618   1.210   5.656   6.015  0.6369  0.9755  1.1595
 8735TIP3   OH247619   5.075   2.963   4.319  0.5978  0.4945 -0.1422
 8735TIP3    H147620   5.030   2.933   4.398  0.9824  0.6002  0.1201
 8735TIP3    H247621   5.078   3.058   4.328  0.2553  0.5435 -0.5003
 8736TIP3   OH247622   1.863   6.089  15.648  0.3985  0.0268  0.7310
 8736TIP3    H147623   1.848   6.009  15.698  1.7248 -0.0658  1.0142
 8736TIP3    H247624   1.881   6.059  15.559 -1.1623  0.1462  0.3551
 8737TIP3   OH247625   1.197   4.592   2.070  0.1390  0.5290  0.0493
 8737TIP3    H147626   1.154   4.507   2.081  2.7193 -0.8554  0.4606
 8737TIP3    H247627   1.127   4.656   2.077 -2.2071 -1.5968 -1.8247
 8738TIP3   OH247628   3.135   3.981   4.876  0.0846  0.1059 -0.4224
 8738TIP3    H147629   3.079   3.932   4.815 -2.9810  1.6835  0.8977
 8738TIP3    H247630   3.161   3.917   4.942 -3.0099 -0.0909  0.7328
 8739TIP3   OH247631   4.491   6.043  15.534  0.3151  0.3317 -0.1505
 8739TIP3    H147632   4.405   6.007  15.552  0.2472  0.8543  0.6175
 8739TIP3    H247633   4.552   5.989  15.585  0.6203 -0.9264 -1.7775
 8740TIP3   OH247634   5.687   4.845  16.918 -0.0627  0.1933 -0.6542
 8740TIP3    H147635   5.594   4.828  16.936 -0.4916  1.9710 -1.0049
 8740TIP3    H247636   5.694   4.940  16.920  1.2100  0.2250 -3.2070
 8741TIP3   OH247637   2.994   0.100  16.026  0.0260 -0.4452 -0.0954
 8741TIP3    H147638   3.025   0.045  16.098  1.3208  2.0278  1.3827
 8741TIP3    H247639   2.898   0.098  16.034  0.1261 -0.7772  1.2373
 8742TIP3   OH247640   4.201   5.409  15.567  0.4817  0.1221 -0.1354
 8742TIP3    H147641   4.200   5.328  15.517  1.7580 -0.4751  0.7313
 8742TIP3    H247642   4.270   5.395  15.632  0.2499  1.6426  0.4679
 8743TIP3   OH247643   0.193   2.001  12.914 -0.1279  0.0291  0.2143
 8743TIP3    H147644   0.211   1.954  12.832  0.9725 -1.2526  1.1443
 8743TIP3    H247645   0.260   2.070  12.917  0.5682 -0.6443  0.5570
 8744TIP3   OH247646   2.775   1.696  14.227  0.4600 -0.1660  0.2603
 8744TIP3    H147647   2.733   1.621  14.268 -1.7694 -0.5675 -2.4626
 8744TIP3    H247648   2.726   1.771  14.259 -0.5479 -0.3740 -0.7527
 8745TIP3   OH247649   5.193   0.346  13.044  0.2267  0.1947 -0.2483
 8745TIP3    H147650   5.137   0.421  13.023 -0.0072  0.6657  1.8564
 8745TIP3    H247651   5.137   0.289  13.098  0.5364 -1.3205 -1.4522
 8746TIP3   OH247652   5.918   4.387  14.571 -0.3335 -0.2433  0.0881
 8746TIP3    H147653   5.972   4.450  14.618 -0.8510  0.2515  0.0393
 8746TIP3    H247654   5.925   4.307  14.622 -0.6621  0.2038  0.8632
 8747TIP3   OH247655   6.170   3.423   4.105  0.6730 -0.3378 -0.4442
 8747TIP3    H147656   6.204   3.342   4.141  3.3873  1.5288  1.6332
 8747TIP3    H247657   6.081   3.430   4.141  0.2751 -2.4455 -0.9243
 8748TIP3   OH247658   3.644   4.792   3.142 -0.1833  0.3478  0.7056
 8748TIP3    H147659   3.715   4.728   3.141  0.0341  0.5852  0.9861
 8748TIP3    H247660   3.650   4.835   3.056  0.1219  0.4902  0.7979
 8749TIP3   OH247661   0.959   0.677  17.364 -0.5628  1.1036  0.0069
 8749TIP3    H147662   0.872   0.717  17.374 -1.2987  0.0484 -1.8272
 8749TIP3    H247663   1.000   0.727  17.293 -0.7153 -0.0632 -0.9296
 8750TIP3   OH247664   0.057   3.706   1.762 -0.0324  0.7103  0.0201
 8750TIP3    H147665   0.149   3.706   1.733  0.0917 -0.9789  0.2918
 8750TIP3    H247666   0.011   3.757   1.695  0.8981  0.3743 -0.9184
 8751TIP3   OH247667   6.702   6.517   2.312 -0.4338  0.1709  0.2860
 8751TIP3    H147668   6.751   6.492   2.233 -0.7449  0.0696  0.1219
 8751TIP3    H247669   6.756   6.585   2.353 -0.1666  0.0750  0.0986
 8752TIP3   OH247670   5.874   0.269  15.028  0.5081 -0.1105 -0.3175
 8752TIP3    H147671   5.884   0.279  15.123 -0.1796  1.1323 -0.3521
 8752TIP3    H247672   5.839   0.353  14.999  0.3042 -0.6254 -1.6217
 8753TIP3   OH247673   2.530   1.314   0.838 -0.4672  0.0384  0.1832
 8753TIP3    H147674   2.455   1.272   0.797  0.3379 -0.1374 -1.1776
 8753TIP3    H247675   2.591   1.243   0.857 -0.7706  0.1306  1.6317
 8754TIP3   OH247676   0.230   4.370   1.923 -0.4219 -0.0363 -0.0086
 8754TIP3    H147677   0.160   4.315   1.958  0.2503 -1.3170 -0.5955
 8754TIP3    H247678   0.279   4.398   2.000 -0.0923 -1.2408  0.2561
 8755TIP3   OH247679   6.743   0.640   3.481 -0.5240  0.0156  0.8554
 8755TIP3    H147680   6.728   0.631   3.575  1.5307 -0.8287  1.1735
 8755TIP3    H247681   6.735   0.551   3.447 -0.6468  0.2225  0.3277
 8756TIP3   OH247682   1.917   0.350  10.634 -0.0567 -0.5490  0.2296
 8756TIP3    H147683   1.839   0.343  10.689 -1.3560  1.3122 -1.2315
 8756TIP3    H247684   1.916   0.271  10.580  0.0105 -1.3307  1.3630
 8757TIP3   OH247685   1.116   4.779  14.400 -0.0389  0.0471  0.0048
 8757TIP3    H147686   1.039   4.736  14.363  0.0474  0.2377 -0.3934
 8757TIP3    H247687   1.087   4.869  14.416  0.1355  0.1508 -0.2556
 8758TIP3   OH247688   0.330   5.340  13.674 -0.2204 -0.0768 -0.3676
 8758TIP3    H147689   0.251   5.349  13.621 -1.1758 -0.4376  0.9353
 8758TIP3    H247690   0.298   5.317  13.761  1.2463  1.2877  0.5890
 8759TIP3   OH247691   6.550   0.905   2.981  0.4158  0.2060 -0.3008
 8759TIP3    H147692   6.613   0.905   3.053  0.6037 -0.3211 -0.4570
 8759TIP3    H247693   6.579   0.833   2.924 -0.6252 -0.3945 -0.1025
 8760TIP3   OH247694   2.800   4.260   3.395  0.0658 -0.6444 -0.0756
 8760TIP3    H147695   2.721   4.312   3.380 -0.7732 -1.3964  1.5298
 8760TIP3    H247696   2.779   4.173   3.360  0.2257 -0.8154  0.2536
 8761TIP3   OH247697   0.592   1.822   5.702  0.4872  0.4521 -0.4105
 8761TIP3    H147698   0.569   1.730   5.717  0.1422  0.5838 -0.1090
 8761TIP3    H247699   0.659   1.840   5.767  1.1939  0.1743 -1.0434
 8762TIP3   OH247700   4.922   6.121  11.258  0.5301 -0.9648 -0.2164
 8762TIP3    H147701   4.886   6.034  11.240 -2.0182 -0.1742  0.7355
 8762TIP3    H247702   4.917   6.167  11.174 -0.6835 -0.8850 -0.1064
 8763TIP3   OH247703   2.178   6.327  14.455  0.3033 -0.3491  0.4069
 8763TIP3    H147704   2.114   6.358  14.390  1.2957  0.6795 -0.1152
 8763TIP3    H247705   2.215   6.248  14.417  1.0097  0.3460 -0.3861
 8764TIP3   OH247706   3.230   6.683   4.483  0.2287  0.2660  0.5101
 8764TIP3    H147707   3.181   6.761   4.509  0.7328  0.9919 -0.6575
 8764TIP3    H247708   3.302   6.678   4.545  0.6651  1.2160  0.0890
 8765TIP3   OH247709   5.443   3.632   1.555 -0.0380  0.2181 -0.7416
 8765TIP3    H147710   5.535   3.625   1.531  0.2953 -0.3718  0.5889
 8765TIP3    H247711   5.412   3.542   1.560  0.0239  0.2536  1.2537
 8766TIP3   OH247712   6.541   4.417  10.648 -0.0752  0.0382 -0.2202
 8766TIP3    H147713   6.527   4.475  10.573  0.0225 -1.1959 -1.2323
 8766TIP3    H247714   6.632   4.391  10.641  0.1084  0.3938  0.7071
 8767TIP3   OH247715   2.750   0.407  15.212  0.2940 -0.4464 -0.1594
 8767TIP3    H147716   2.718   0.349  15.281 -0.4191  0.4693  0.2847
 8767TIP3    H247717   2.828   0.449  15.249  1.1359 -1.4850 -0.6744
 8768TIP3   OH247718   3.812   3.164   6.307  0.7393 -0.1464 -0.2976
 8768TIP3    H147719   3.752   3.194   6.376  0.9755 -1.0272  0.3158
 8768TIP3    H247720   3.857   3.089   6.346  1.8013  0.1211 -0.9716
 8769TIP3   OH247721   2.121   3.530   6.225  0.4632  0.1266  0.4446
 8769TIP3    H147722   2.066   3.465   6.269 -0.5764  0.6922  0.0336
 8769TIP3    H247723   2.208   3.517   6.261 -0.1953  0.0341  2.0666
 8770TIP3   OH247724   4.450   5.583   5.587  0.7606 -0.2213 -0.4274
 8770TIP3    H147725   4.502   5.526   5.644  1.0540 -0.8086 -1.2607
 8770TIP3    H247726   4.360   5.558   5.605  0.8089  0.0589  0.2499
 8771TIP3   OH247727   1.811   5.939   3.298 -0.2826  0.1341 -0.1227
 8771TIP3    H147728   1.803   6.034   3.293 -0.0103  0.3364  2.1139
 8771TIP3    H247729   1.904   5.924   3.312 -0.4442 -0.3697  0.4788
 8772TIP3   OH247730   0.933   2.713   0.656 -0.0483  0.3822 -0.8179
 8772TIP3    H147731   0.911   2.766   0.733 -0.1853  0.9887 -1.2678
 8772TIP3    H247732   0.876   2.746   0.587 -0.3330 -0.5451 -1.0459
 8773TIP3   OH247733   0.499   0.041   0.614 -0.0475 -0.3347  0.1497
 8773TIP3    H147734   0.591   0.058   0.597  0.3113 -2.2770 -0.1737
 8773TIP3    H247735   0.499  -0.038   0.668 -1.5134 -0.2988  0.2473
 8774TIP3   OH247736   3.145   5.811   3.617  0.0310 -0.4375  0.0171
 8774TIP3    H147737   3.175   5.899   3.638 -0.2230 -0.5055  0.6823
 8774TIP3    H247738   3.085   5.788   3.688 -0.1081 -1.0468 -0.2858
 8775TIP3   OH247739   0.382   1.182   4.283 -0.6540 -0.3191 -0.0850
 8775TIP3    H147740   0.454   1.121   4.267  1.5927  1.5357  2.2057
 8775TIP3    H247741   0.369   1.180   4.378 -3.6150 -0.4713 -0.3951
 8776TIP3   OH247742   2.892   3.641  12.190 -0.3926  0.5792 -0.0966
 8776TIP3    H147743   2.844   3.628  12.108 -0.0128 -0.7744 -0.1211
 8776TIP3    H247744   2.904   3.736  12.195 -1.1468  0.7583 -1.1836
 8777TIP3   OH247745   2.076   0.123  11.979  0.5712 -0.8525  0.6543
 8777TIP3    H147746   2.077   0.187  11.907  1.3375 -0.6480  0.8385
 8777TIP3    H247747   2.059   0.039  11.935  1.4584 -0.7950  0.1579
 8778TIP3   OH247748   6.719   4.547  14.824  0.1140  0.6813 -0.5354
 8778TIP3    H147749   6.647   4.611  14.822 -0.2709  0.3859  1.4559
 8778TIP3    H247750   6.798   4.600  14.831 -0.2617  1.0030  2.0385
 8779TIP3   OH247751   6.074   2.428   5.436  0.4692 -0.1132  0.3190
 8779TIP3    H147752   6.080   2.341   5.396 -0.4603 -0.5813  1.1364
 8779TIP3    H247753   5.989   2.427   5.481 -0.0722  1.6478 -0.6038
 8780TIP3   OH247754   5.080   3.563   3.329 -0.3435  0.4629  0.5520
 8780TIP3    H147755   5.005   3.592   3.277 -0.2257 -0.3776 -0.1249
 8780TIP3    H247756   5.071   3.467   3.332  1.1380  0.2623 -0.2766
 8781TIP3   OH247757   2.539   1.608   0.835  0.7978 -0.1017 -0.7102
 8781TIP3    H147758   2.543   1.513   0.840  0.5171 -0.1669 -1.5708
 8781TIP3    H247759   2.502   1.626   0.749 -1.2952  0.7479  0.2965
 8782TIP3   OH247760   1.307   4.529   3.951  0.6948 -0.3152 -0.0985
 8782TIP3    H147761   1.400   4.510   3.939  0.5250 -0.5814 -1.0217
 8782TIP3    H247762   1.262   4.471   3.890 -0.0238  0.5307 -0.3877
 8783TIP3   OH247763   2.643   2.156  14.771 -0.2369 -0.3648  1.1985
 8783TIP3    H147764   2.623   2.131  14.861  0.3622  0.3864  1.5525
 8783TIP3    H247765   2.678   2.077  14.731  1.2215 -0.2392  2.1686
 8784TIP3   OH247766   5.345   3.698  16.375 -0.4205  0.1472 -0.0132
 8784TIP3    H147767   5.435   3.668  16.365 -0.1157  0.9851  0.1246
 8784TIP3    H247768   5.336   3.716  16.468 -0.4119  1.0235 -0.1748
 8785TIP3   OH247769   0.018   6.387   4.599 -0.8534 -0.3302  0.5728
 8785TIP3    H147770  -0.029   6.463   4.633  0.0584  0.0475  1.0147
 8785TIP3    H247771   0.105   6.393   4.638 -0.1486 -0.5275 -0.9248
 8786TIP3   OH247772   1.884   5.102  16.147 -0.2638 -0.1449 -0.7632
 8786TIP3    H147773   1.914   5.014  16.124  0.5700  0.4705 -2.1723
 8786TIP3    H247774   1.789   5.094  16.152 -0.0957 -1.6397  1.5936
 8787TIP3   OH247775   1.578   0.330  12.980 -0.7002  0.5130  0.0483
 8787TIP3    H147776   1.607   0.420  12.961 -1.4028  0.6697 -0.3160
 8787TIP3    H247777   1.658   0.284  13.003  0.1814  0.4660 -2.7241
 8788TIP3   OH247778   1.562   3.339   6.014  0.3663  0.2682 -0.0148
 8788TIP3    H147779   1.555   3.251   6.050 -0.0035  0.9224  1.5945
 8788TIP3    H247780   1.641   3.375   6.054  0.1362  0.9114 -0.1345
 8789TIP3   OH247781   3.375   4.043   7.002 -0.0395 -0.7321  0.6462
 8789TIP3    H147782   3.405   4.120   7.050 -0.4683  0.7320 -1.3138
 8789TIP3    H247783   3.456   3.994   6.983  0.9002  1.5989 -1.9466
 8790TIP3   OH247784   5.924   0.152   6.098  0.2469  0.1922 -0.1913
 8790TIP3    H147785   5.858   0.099   6.054  0.3076  0.3144 -0.4316
 8790TIP3    H247786   5.898   0.150   6.190  0.4384 -0.5339 -0.1414
 8791TIP3   OH247787   2.655   1.604   4.249  0.2825  0.5430  0.2296
 8791TIP3    H147788   2.678   1.559   4.168 -0.9223 -0.3112  0.3446
 8791TIP3    H247789   2.634   1.694   4.222  0.3519  0.3930 -0.3249
 8792TIP3   OH247790   3.817   2.527   2.494  0.0878 -0.5493  0.7381
 8792TIP3    H147791   3.878   2.585   2.539  1.6876 -1.2254 -0.4932
 8792TIP3    H247792   3.738   2.530   2.548  0.1311  2.6302  0.8169
 8793TIP3   OH247793   0.856   4.686  13.900 -0.5026  0.2040 -0.0440
 8793TIP3    H147794   0.905   4.758  13.860 -1.6229  0.3323 -1.2624
 8793TIP3    H247795   0.922   4.636  13.949  0.8574  0.3317 -1.6533
 8794TIP3   OH247796   4.743   2.588  14.035 -0.3257 -0.0314  0.0746
 8794TIP3    H147797   4.655   2.614  14.009 -0.9686 -1.5766  0.5615
 8794TIP3    H247798   4.801   2.649  13.990 -1.6242  0.6558 -0.7093
 8795TIP3   OH247799   2.806   1.576  16.722  0.3187 -0.2901  0.1746
 8795TIP3    H147800   2.878   1.520  16.749 -0.3860 -1.0948  0.4146
 8795TIP3    H247801   2.727   1.527  16.744 -0.3397  1.0417  0.9378
 8796TIP3   OH247802   2.743   3.165   0.122 -0.2588 -0.5651 -0.0094
 8796TIP3    H147803   2.705   3.203   0.043  1.3133  1.4684  0.1555
 8796TIP3    H247804   2.706   3.217   0.193  0.6208 -0.4223  0.3542
 8797TIP3   OH247805   1.642   4.026   2.347 -0.0018 -0.0082 -0.2102
 8797TIP3    H147806   1.575   4.095   2.349 -0.7939 -0.7719  1.3004
 8797TIP3    H247807   1.600   3.954   2.299 -0.3607 -0.5514  0.8879
 8798TIP3   OH247808   3.783   5.702  10.737 -0.2466 -0.4446 -0.2974
 8798TIP3    H147809   3.869   5.704  10.694  1.6212 -0.5168  3.1169
 8798TIP3    H247810   3.759   5.610  10.738  0.0657 -0.5293 -0.4829
 8799TIP3   OH247811   3.683   4.677   1.817 -0.3634 -0.1784 -0.1135
 8799TIP3    H147812   3.733   4.596   1.803  0.1069  0.4007 -2.2052
 8799TIP3    H247813   3.592   4.648   1.823 -0.1607 -0.9086 -0.3861
 8800TIP3   OH247814   4.831   5.262  11.610 -0.2636 -0.2045  0.3590
 8800TIP3    H147815   4.890   5.229  11.677 -1.2249 -1.6150  0.5390
 8800TIP3    H247816   4.888   5.279  11.534  0.1151 -4.2227 -0.4491
 8801TIP3   OH247817   3.536   3.011   4.219 -0.1790 -0.5315  0.1981
 8801TIP3    H147818   3.604   3.014   4.153 -0.4584 -1.1531 -0.1268
 8801TIP3    H247819   3.565   2.944   4.281 -0.3770 -0.6336  0.1835
 8802TIP3   OH247820   3.441   4.492  16.166  0.5513  0.1578  0.2045
 8802TIP3    H147821   3.454   4.469  16.258  1.1102  1.0316  0.3513
 8802TIP3    H247822   3.458   4.586  16.162 -2.1876  0.7198 -0.2855
 8803TIP3   OH247823   4.890   2.663   2.025  0.1699 -0.5396 -0.2842
 8803TIP3    H147824   4.848   2.654   1.939  1.0525  1.4092 -0.9768
 8803TIP3    H247825   4.974   2.617   2.015 -0.1781 -1.2129 -0.1217
 8804TIP3   OH247826   3.725   1.239  13.916 -0.3063 -0.1875 -0.6725
 8804TIP3    H147827   3.702   1.185  13.841  2.9754 -2.1202 -0.4783
 8804TIP3    H247828   3.743   1.326  13.879  2.0233 -1.2966 -2.3771
 8805TIP3   OH247829   2.068   0.224   0.288  0.7363  0.0962  0.3363
 8805TIP3    H147830   2.119   0.190   0.362  1.8905  2.2202  0.5830
 8805TIP3    H247831   2.103   0.312   0.273  0.0928 -0.0233 -2.3440
 8806TIP3   OH247832   0.651   5.999   2.066  0.1691 -0.8880  0.2047
 8806TIP3    H147833   0.639   5.979   1.973 -1.0066  2.4818 -0.5027
 8806TIP3    H247834   0.726   6.059   2.069 -0.9581  0.5448  1.1293
 8807TIP3   OH247835   1.967   1.214   4.552 -0.2346  0.3512  0.3268
 8807TIP3    H147836   1.902   1.218   4.622  0.5095  0.8885  1.0084
 8807TIP3    H247837   2.046   1.250   4.591  0.7807 -1.2379 -0.1409
 8808TIP3   OH247838   4.658   6.450   1.977  0.2413  0.0007  0.2375
 8808TIP3    H147839   4.638   6.417   2.065 -1.0744 -0.0457 -0.0639
 8808TIP3    H247840   4.599   6.524   1.966  1.8107  1.2831  0.1498
 8809TIP3   OH247841   5.071   2.706  14.363 -0.1047  0.0386 -0.2981
 8809TIP3    H147842   5.154   2.678  14.323 -0.1484 -0.9964  0.2950
 8809TIP3    H247843   5.052   2.638  14.427 -0.2942  1.4022  1.1473
 8810TIP3   OH247844   4.102   3.629  11.136 -0.2878 -0.2492 -0.2043
 8810TIP3    H147845   4.025   3.578  11.112  0.3923 -0.8662 -1.1548
 8810TIP3    H247846   4.113   3.614  11.229 -2.1443  1.0103  0.2870
 8811TIP3   OH247847   0.348   2.614  12.003  0.1455  0.4437  0.1403
 8811TIP3    H147848   0.298   2.688  12.037  0.9333  1.1160 -0.1355
 8811TIP3    H247849   0.309   2.595  11.918 -0.5944 -0.0072  0.5696
 8812TIP3   OH247850   3.431   3.839   1.866  0.5585 -0.3664  0.6236
 8812TIP3    H147851   3.526   3.827   1.857  0.4927  0.0255 -0.7556
 8812TIP3    H247852   3.419   3.934   1.871  0.2726 -0.4336  1.3836
 8813TIP3   OH247853   1.942   3.072   1.654  0.1331 -0.1094  0.1803
 8813TIP3    H147854   1.875   3.039   1.595 -0.2187 -0.2598  0.6568
 8813TIP3    H247855   1.895   3.127   1.716  0.4087 -0.3992  0.6597
 8814TIP3   OH247856   5.421   2.369   4.338  0.0724  0.4940  0.2651
 8814TIP3    H147857   5.345   2.424   4.361 -0.9808  1.0381 -3.7401
 8814TIP3    H247858   5.386   2.305   4.276  2.6574 -0.1109 -0.6854
 8815TIP3   OH247859   4.566   3.761   1.450 -0.0803 -0.1436 -0.2150
 8815TIP3    H147860   4.605   3.689   1.500  1.3225  2.1920  2.2908
 8815TIP3    H247861   4.640   3.813   1.421 -1.1162  1.5529  0.0603
 8816TIP3   OH247862   2.289   2.259   0.004 -0.1596  0.8372  0.3276
 8816TIP3    H147863   2.339   2.332  -0.033  1.2149  0.2149  0.8771
 8816TIP3    H247864   2.214   2.249  -0.055  0.7548  1.3395 -0.9689
 8817TIP3   OH247865   5.143   2.308  16.226  0.2299 -0.1300 -0.5331
 8817TIP3    H147866   5.052   2.295  16.198  0.6048 -0.7992 -1.4913
 8817TIP3    H247867   5.189   2.333  16.147  1.2801 -1.8399 -0.5059
 8818TIP3   OH247868   4.619   6.505  17.228 -0.1396  0.6730 -0.3014
 8818TIP3    H147869   4.677   6.567  17.273 -0.1137  1.1683 -1.0037
 8818TIP3    H247870   4.563   6.560  17.174  0.2397  0.0504 -1.3516
 8819TIP3   OH247871   4.618   1.825   5.240 -0.2355 -0.1066  0.0027
 8819TIP3    H147872   4.660   1.739   5.234 -1.8928 -0.9335 -0.3135
 8819TIP3    H247873   4.568   1.822   5.321 -1.4640 -0.0097 -0.7312
 8820TIP3   OH247874   1.228   0.030  17.319  0.2389  0.4539  0.0217
 8820TIP3    H147875   1.146   0.080  17.325 -0.2683 -0.3989  0.5244
 8820TIP3    H247876   1.270   0.063  17.240 -0.6233  0.8701 -0.2871
 8821TIP3   OH247877   6.063   6.615   1.331 -0.0081  0.0846 -0.5421
 8821TIP3    H147878   6.088   6.704   1.305  1.5847  0.0879  0.7848
 8821TIP3    H247879   6.134   6.560   1.298  0.4109 -0.3091  0.9285
 8822TIP3   OH247880   5.172   4.293   2.114  0.3711  0.5570 -0.3784
 8822TIP3    H147881   5.236   4.275   2.183  1.4324  2.9524 -0.6446
 8822TIP3    H247882   5.177   4.387   2.101 -0.2657  0.2846 -3.2810
 8823TIP3   OH247883   1.908   0.690   0.551 -0.3228  1.1413  0.5443
 8823TIP3    H147884   1.968   0.670   0.622 -0.8869  0.6969  0.8986
 8823TIP3    H247885   1.922   0.783   0.534  4.5239  0.1679 -3.1176
 8824TIP3   OH247886   1.365   4.498  12.455 -0.3124 -0.6014 -0.2364
 8824TIP3    H147887   1.312   4.567  12.415  1.0867  0.8520  0.2857
 8824TIP3    H247888   1.302   4.432  12.483 -1.8288  0.9645  0.2094
 8825TIP3   OH247889   2.890   5.906   6.399 -0.5337  0.3557 -0.1375
 8825TIP3    H147890   2.834   5.854   6.457 -0.6348  1.6597  0.9831
 8825TIP3    H247891   2.904   5.850   6.323 -2.3658 -0.4986  0.0877
 8826TIP3   OH247892   2.306   1.225   1.658 -0.0045 -0.1019  0.5211
 8826TIP3    H147893   2.310   1.140   1.615 -1.1373 -0.3458  0.8780
 8826TIP3    H247894   2.305   1.288   1.586  0.7881 -0.3807  0.2536
 8827TIP3   OH247895   6.308   3.060  15.697  0.4345  0.2012 -0.3011
 8827TIP3    H147896   6.381   3.081  15.755 -0.8213 -1.0663  1.8686
 8827TIP3    H247897   6.239   3.121  15.722  0.3764  0.7029 -1.6154
 8828TIP3   OH247898   5.560   2.214   3.030 -0.2916 -0.2351  0.1751
 8828TIP3    H147899   5.483   2.215   3.088  0.8640 -0.1006  1.7679
 8828TIP3    H247900   5.617   2.147   3.067  0.6935  0.1944 -0.5340
 8829TIP3   OH247901   1.998   0.410  12.820  0.2661  0.3010 -0.2986
 8829TIP3    H147902   1.969   0.501  12.818 -2.1968 -0.4082 -0.4567
 8829TIP3    H247903   1.983   0.382  12.911 -2.1670 -0.7793 -0.9332
 8830TIP3   OH247904   1.989   4.249   2.258 -0.6054  0.6652 -0.5211
 8830TIP3    H147905   2.018   4.334   2.225 -1.2667  0.6994 -1.0359
 8830TIP3    H247906   2.013   4.250   2.350  2.7485 -0.0469 -1.2526
 8831TIP3   OH247907   5.854   0.324  17.161  0.1031 -0.6063  0.6391
 8831TIP3    H147908   5.886   0.385  17.228 -0.6139 -2.3799  2.6969
 8831TIP3    H247909   5.766   0.355  17.141  0.9261  0.9603 -0.8804
 8832TIP3   OH247910   5.308   2.004  16.860  0.0690  0.3773 -0.3989
 8832TIP3    H147911   5.250   1.954  16.918 -0.7703  0.3400 -1.2408
 8832TIP3    H247912   5.333   1.942  16.792 -0.3183  0.8656 -1.0001
 8833TIP3   OH247913   3.659   0.108  11.756 -0.2784  0.0286 -0.7419
 8833TIP3    H147914   3.580   0.162  11.761 -1.6741 -1.8854 -0.9530
 8833TIP3    H247915   3.686   0.113  11.665 -0.7186 -0.0526 -0.8793
 8834TIP3   OH247916   3.862   0.641   4.197 -0.2630  0.2949 -0.7299
 8834TIP3    H147917   3.893   0.658   4.108 -1.0579 -0.6889 -1.2110
 8834TIP3    H247918   3.936   0.595   4.238 -0.0593  0.3613 -1.0131
 8835TIP3   OH247919   5.050   1.511  16.506 -0.2826 -0.2570  0.5879
 8835TIP3    H147920   5.142   1.506  16.533  0.5839  2.2583 -1.4470
 8835TIP3    H247921   5.013   1.426  16.530  2.3996 -1.1583  1.9900
 8836TIP3   OH247922   5.468   6.105  13.486 -0.1275 -0.3926  0.5835
 8836TIP3    H147923   5.495   6.059  13.565  0.0636  0.9005  1.2883
 8836TIP3    H247924   5.544   6.158  13.462 -0.6106  0.1410  0.2134
 8837TIP3   OH247925   4.333   1.086   1.386  0.5681 -0.4489 -0.2106
 8837TIP3    H147926   4.312   1.018   1.322  1.7197 -0.0814 -1.0112
 8837TIP3    H247927   4.254   1.094   1.439  0.2879 -2.1668 -0.3135
 8838TIP3   OH247928   3.347   6.127   5.959 -0.2556  0.3798 -0.4381
 8838TIP3    H147929   3.424   6.079   5.927  1.2185  1.2143  1.6720
 8838TIP3    H247930   3.280   6.059   5.971  0.3319 -0.4572 -1.6519
 8839TIP3   OH247931   4.657   2.214   1.409  0.2652 -0.6987  0.1133
 8839TIP3    H147932   4.621   2.143   1.357  1.8387 -2.4048  1.2470
 8839TIP3    H247933   4.752   2.199   1.409  0.6653  1.4290  0.3808
 8840TIP3   OH247934   6.687   5.852  13.113  0.2402  0.9034  0.1522
 8840TIP3    H147935   6.762   5.856  13.173 -0.4155  2.4915  0.9248
 8840TIP3    H247936   6.698   5.928  13.056 -0.3512  0.6794 -0.2670
 8841TIP3   OH247937   4.592   1.448   1.795 -0.1328  0.3635  0.2645
 8841TIP3    H147938   4.528   1.513   1.825 -0.4078  1.0926 -1.7138
 8841TIP3    H247939   4.583   1.448   1.700  1.5338 -0.8834  0.0565
 8842TIP3   OH247940   1.574   1.716   2.457  0.2217 -0.1542 -0.2748
 8842TIP3    H147941   1.616   1.630   2.458 -0.8747 -0.7186 -0.5866
 8842TIP3    H247942   1.538   1.727   2.545  0.9667  0.3181 -0.0152
 8843TIP3   OH247943   5.331   2.140   3.701 -0.1356  0.1109 -0.3403
 8843TIP3    H147944   5.253   2.088   3.722 -1.1574  1.5752 -0.4250
 8843TIP3    H247945   5.315   2.172   3.612  1.7665 -1.6655 -1.4203
 8844TIP3   OH247946   4.763   5.624  15.006 -0.0830  0.2344  0.2993
 8844TIP3    H147947   4.857   5.609  15.017 -0.2363 -0.1565  1.1143
 8844TIP3    H247948   4.752   5.638  14.912  0.5260 -1.6503 -0.0801
 8845TIP3   OH247949   2.142   2.069   0.198  0.3155  0.1123 -0.0952
 8845TIP3    H147950   2.219   2.105   0.155  0.2002 -0.5886 -0.9235
 8845TIP3    H247951   2.177   2.006   0.261  0.4422  0.0088 -0.2659
 8846TIP3   OH247952   5.708   3.133   5.884  0.0236  0.0688 -0.9810
 8846TIP3    H147953   5.685   3.041   5.900  0.5307  0.1868  0.6811
 8846TIP3    H247954   5.794   3.143   5.924  0.2236  1.1328 -1.6565
 8847TIP3   OH247955   4.709   0.240   1.204  0.2550 -0.1254  0.3069
 8847TIP3    H147956   4.780   0.201   1.153  2.2347  1.5258  1.6220
 8847TIP3    H247957   4.648   0.274   1.139  1.6479  0.0817 -0.9481
 8848TIP3   OH247958   2.670   3.592   3.613  0.1177 -0.0708  0.0607
 8848TIP3    H147959   2.648   3.613   3.704 -1.7052  0.7324 -0.5397
 8848TIP3    H247960   2.717   3.669   3.581 -0.4979  0.2420 -0.0955
 8849TIP3   OH247961   4.836   1.578   4.892 -0.0454 -0.3335 -0.1350
 8849TIP3    H147962   4.881   1.542   4.968  0.0901 -0.6456 -0.3593
 8849TIP3    H247963   4.893   1.649   4.862 -0.3960  0.1919  0.4062
 8850TIP3   OH247964   0.580   3.122   0.940 -0.0635  0.5021 -0.3368
 8850TIP3    H147965   0.498   3.171   0.945  0.4161  1.2537  0.3910
 8850TIP3    H247966   0.625   3.158   0.863  0.9173  2.2792  0.9711
 8851TIP3   OH247967   4.007   5.759   1.052 -0.1213 -0.6128 -0.8168
 8851TIP3    H147968   4.048   5.837   1.014 -0.8824  0.5874  0.7040
 8851TIP3    H247969   3.917   5.761   1.021 -0.3014 -0.5578 -0.2886
 8852TIP3   OH247970   5.764   6.350  13.997 -0.6731 -0.1234  0.0059
 8852TIP3    H147971   5.752   6.439  13.965 -0.1184 -0.5482 -1.4826
 8852TIP3    H247972   5.701   6.298  13.948 -0.9311 -0.5680  0.7944
 8853TIP3   OH247973   0.521   3.368  11.353 -0.5854  0.0705  0.1159
 8853TIP3    H147974   0.526   3.378  11.257  1.4075 -2.0567 -0.0811
 8853TIP3    H247975   0.573   3.290  11.372 -3.3293 -1.3221  2.6907
 8854TIP3   OH247976   1.377   6.245  16.478  0.0537 -0.3496  0.2529
 8854TIP3    H147977   1.297   6.281  16.441  0.6167  1.2566  0.5206
 8854TIP3    H247978   1.362   6.244  16.572 -0.2122 -1.5313  0.2229
 8855TIP3   OH247979   1.073   3.455  15.188 -0.2747 -0.5485  0.1319
 8855TIP3    H147980   1.007   3.493  15.130  0.4081  0.6955  0.1297
 8855TIP3    H247981   1.148   3.438  15.131  0.8720  1.8504  0.7648
 8856TIP3   OH247982   5.725   4.327  13.261  0.2336 -0.0608  0.3810
 8856TIP3    H147983   5.780   4.402  13.282  0.1320  0.2944 -0.5613
 8856TIP3    H247984   5.782   4.269  13.209  0.0916 -0.2784  0.4673
 8857TIP3   OH247985   3.030   6.686   5.180 -0.0795 -0.2983  0.3350
 8857TIP3    H147986   2.966   6.666   5.248 -0.1304  1.8481  0.9776
 8857TIP3    H247987   2.978   6.689   5.099 -0.2977 -1.2799  0.4288
 8858TIP3   OH247988   4.680   4.106  17.062 -0.0977 -0.0569  0.2788
 8858TIP3    H147989   4.655   4.195  17.088  2.2614  0.2393  1.8062
 8858TIP3    H247990   4.716   4.116  16.974 -1.1759  0.2100 -0.1550
 8859TIP3   OH247991   2.172   6.270  13.579 -0.6040 -0.5144  0.0505
 8859TIP3    H147992   2.211   6.318  13.507 -0.5721 -0.9281 -0.2123
 8859TIP3    H247993   2.106   6.214  13.538  0.3908 -1.8095  0.1462
 8860TIP3   OH247994   2.977   5.587  17.003  0.3195  0.2593 -0.6848
 8860TIP3    H147995   2.968   5.519  16.936  0.8397 -1.0660  0.5281
 8860TIP3    H247996   3.043   5.647  16.967  1.6608 -1.2055 -0.7876
 8861TIP3   OH247997   6.438   0.695  13.698 -0.1183 -0.5390 -0.2485
 8861TIP3    H147998   6.472   0.784  13.706  0.3598 -0.6953 -0.5520
 8861TIP3    H247999   6.446   0.659  13.786  0.4960 -0.5757 -0.3209
 8862TIP3   OH248000   1.304   2.056   3.142 -0.0123  0.2828  0.1835
 8862TIP3    H148001   1.214   2.087   3.144 -0.2498 -0.3627  1.9849
 8862TIP3    H248002   1.299   1.968   3.180  1.3442  0.1312  0.0515
 8863TIP3   OH248003   6.526   6.057  16.503 -0.2172 -0.0324 -0.3531
 8863TIP3    H148004   6.543   6.036  16.595  0.1885 -0.1558 -0.4525
 8863TIP3    H248005   6.543   5.975  16.457 -0.6698 -0.0379 -0.5076
 8864TIP3   OH248006   1.507   3.294   1.911  0.1667  0.0302 -0.0210
 8864TIP3    H148007   1.491   3.387   1.893 -0.5370  0.0298  0.5499
 8864TIP3    H248008   1.474   3.281   2.000 -0.1212 -0.8554 -0.2462
 8865TIP3   OH248009   5.470   1.174   2.852  0.2013 -0.2921  0.7018
 8865TIP3    H148010   5.498   1.103   2.794 -1.7600 -0.2701 -0.3643
 8865TIP3    H248011   5.527   1.166   2.929  3.2366 -0.0609 -1.3354
 8866TIP3   OH248012   5.173   3.598  11.642  0.0319 -0.4847  0.0086
 8866TIP3    H148013   5.235   3.668  11.620 -0.1708  0.1234  1.2993
 8866TIP3    H248014   5.093   3.621  11.595 -0.6079  1.1648  1.7622
 8867TIP3   OH248015   6.413   1.697  15.189  0.3467  0.1322 -0.1147
 8867TIP3    H148016   6.411   1.766  15.256 -1.0514  1.1343 -1.1357
 8867TIP3    H248017   6.491   1.645  15.210  1.4657  2.0365  0.6782
 8868TIP3   OH248018   1.159   3.909  16.632  0.1018  0.0950 -0.0397
 8868TIP3    H148019   1.123   3.937  16.716 -0.7255 -3.4612  0.9676
 8868TIP3    H248020   1.251   3.891  16.650 -0.0367 -0.5079  0.0848
 8869TIP3   OH248021   4.983   4.891   2.044 -0.3531 -0.4631 -0.0367
 8869TIP3    H148022   4.968   4.953   1.973  0.3623 -0.8768 -0.5617
 8869TIP3    H248023   5.075   4.905   2.069 -1.2136  1.3637  2.4576
 8870TIP3   OH248024   5.996   4.164  14.298 -0.2075  0.2530 -0.2600
 8870TIP3    H148025   5.918   4.109  14.309 -0.3547  0.5766  0.3836
 8870TIP3    H248026   6.020   4.189  14.388 -0.5396  1.7879 -0.5848
 8871TIP3   OH248027   2.184   0.652   4.714 -0.0605  0.1140 -0.6008
 8871TIP3    H148028   2.211   0.742   4.735  1.7002 -0.0485 -1.9356
 8871TIP3    H248029   2.116   0.632   4.778  0.2540  2.0241  0.4053
 8872TIP3   OH248030   5.167   2.157   0.561 -0.4070  0.8824 -0.0378
 8872TIP3    H148031   5.098   2.101   0.597  1.1047  0.0608  1.7875
 8872TIP3    H248032   5.248   2.109   0.579  0.6887  2.0634 -1.6164
 8873TIP3   OH248033   2.316   5.596  15.270 -0.0170 -0.0528 -0.2259
 8873TIP3    H148034   2.288   5.582  15.360 -0.1379 -0.2803 -0.2977
 8873TIP3    H248035   2.276   5.524  15.221 -1.3542  1.0052 -0.7468
 8874TIP3   OH248036   0.714   2.552  13.830 -0.2301  0.1330  0.6766
 8874TIP3    H148037   0.770   2.619  13.790  0.1392 -0.7684 -0.3831
 8874TIP3    H248038   0.726   2.563  13.924  1.4331  0.2366  0.4827
 8875TIP3   OH248039   1.805   4.955  14.267 -0.1285 -0.2070 -0.0976
 8875TIP3    H148040   1.751   5.034  14.273 -0.8560 -0.6647 -0.5185
 8875TIP3    H248041   1.757   4.898  14.207  0.4590 -0.9185  0.1054
 8876TIP3   OH248042   4.868   6.203   6.732 -0.1557  0.5012 -0.0903
 8876TIP3    H148043   4.900   6.287   6.766  0.6247  0.0244  0.3744
 8876TIP3    H248044   4.941   6.168   6.681 -0.3095 -0.1243  0.1153
 8877TIP3   OH248045   5.067   6.055  15.393  0.1885  0.1360  0.1659
 8877TIP3    H148046   5.119   5.995  15.447  2.5516  1.5411 -0.4031
 8877TIP3    H248047   5.132   6.103  15.342 -1.7234  1.9803 -0.6477
 8878TIP3   OH248048   5.311   6.561  15.828  0.0198  0.0492  1.1262
 8878TIP3    H148049   5.236   6.502  15.824  0.0236 -0.0295  1.9961
 8878TIP3    H248050   5.384   6.507  15.858  0.8323 -0.2314 -1.1750
 8879TIP3   OH248051   5.049   4.256  14.329  0.0917 -0.2785  0.2722
 8879TIP3    H148052   5.077   4.186  14.388  1.7816  0.4731  0.4359
 8879TIP3    H248053   4.963   4.282  14.361  0.5389 -0.5793  1.8007
 8880TIP3   OH248054   1.477   2.472  13.336  0.6034  0.0164  0.1803
 8880TIP3    H148055   1.531   2.476  13.257  1.1158  1.0309  0.5730
 8880TIP3    H248056   1.529   2.421  13.398  0.5912 -0.0136  0.1661
 8881TIP3   OH248057   6.548   1.103   5.824 -0.5315 -0.6394 -0.1348
 8881TIP3    H148058   6.569   1.197   5.821 -1.2192 -0.4653  0.2820
 8881TIP3    H248059   6.483   1.091   5.755  1.2580 -1.2928 -1.8268
 8882TIP3   OH248060   4.424   3.446   1.262 -0.0886 -0.4587 -0.2066
 8882TIP3    H148061   4.498   3.486   1.218  0.0374 -0.0180  0.4007
 8882TIP3    H248062   4.358   3.436   1.194 -0.1052  0.7391 -0.3820
 8883TIP3   OH248063   1.570   0.119   4.252 -0.0589 -0.0509  0.0397
 8883TIP3    H148064   1.508   0.116   4.179 -0.9546  0.2606  0.7713
 8883TIP3    H248065   1.594   0.027   4.267  0.0804 -0.1231 -0.5917
 8884TIP3   OH248066   5.696   3.354  11.867  0.4460  0.1627  0.2445
 8884TIP3    H148067   5.771   3.354  11.926  0.3088 -0.2602  0.4244
 8884TIP3    H248068   5.733   3.379  11.782  1.0573 -1.4041  0.0137
 8885TIP3   OH248069   5.727   1.804   5.397  0.0515  0.0478  0.6478
 8885TIP3    H148070   5.708   1.884   5.349 -1.4731 -1.2019 -0.9561
 8885TIP3    H248071   5.822   1.793   5.389  0.0034  0.5698 -0.9877
 8886TIP3   OH248072   4.504   2.204  16.936 -0.1875 -0.4207  0.0174
 8886TIP3    H148073   4.551   2.125  16.907 -0.3229  0.0434 -1.5654
 8886TIP3    H248074   4.573   2.265  16.961 -0.0298 -0.5332 -0.1405
 8887TIP3   OH248075   0.104   5.768   4.501 -0.3857 -0.0883 -0.1022
 8887TIP3    H148076   0.054   5.708   4.557 -0.3209 -0.3405 -0.3135
 8887TIP3    H248077   0.047   5.785   4.426 -0.0640 -0.5638 -0.4586
 8888TIP3   OH248078   3.077   2.795   2.519  1.0055 -0.2153  0.0143
 8888TIP3    H148079   2.998   2.777   2.469  0.4305 -0.3793  0.9710
 8888TIP3    H248080   3.134   2.841   2.457  0.1866 -0.1304 -0.6928
 8889TIP3   OH248081   5.149   5.529  14.202 -0.0132  0.2780 -0.4497
 8889TIP3    H148082   5.216   5.474  14.162  1.5529  2.2200 -0.7206
 8889TIP3    H248083   5.194   5.571  14.276 -1.8102 -0.5212  1.1915
 8890TIP3   OH248084   4.969   1.395  15.792  0.3373  0.6527  0.1499
 8890TIP3    H148085   4.964   1.488  15.770 -0.7322  0.7646  0.8244
 8890TIP3    H248086   4.971   1.393  15.887 -0.9098 -0.0538  0.1752
 8891TIP3   OH248087   4.146   1.741   3.461 -0.2871  0.5068 -0.2050
 8891TIP3    H148088   4.239   1.757   3.478  0.5527 -2.5953 -1.1584
 8891TIP3    H248089   4.142   1.720   3.368 -1.6733 -0.7526  0.0945
 8892TIP3   OH248090   0.941   4.726  11.585 -0.3427  0.0599 -0.4119
 8892TIP3    H148091   0.859   4.701  11.628 -0.2236 -0.2287 -0.3535
 8892TIP3    H248092   0.949   4.820  11.602 -0.2177 -0.0782  0.3272
 8893TIP3   OH248093   4.774   3.249  16.998 -0.2266  0.4006  0.3890
 8893TIP3    H148094   4.713   3.307  16.952 -2.0434 -0.5596  1.4864
 8893TIP3    H248095   4.831   3.308  17.047 -1.5182  1.3126  0.8523
 8894TIP3   OH248096   2.071   0.375  15.511 -0.4192  0.3794 -0.4453
 8894TIP3    H148097   2.165   0.390  15.501 -0.2130 -0.7623 -0.2852
 8894TIP3    H248098   2.042   0.342  15.426 -0.4004 -0.5948 -0.0885
 8895TIP3   OH248099   3.743   1.606   1.142  0.3489 -0.4937  0.8074
 8895TIP3    H148100   3.683   1.635   1.073  0.2407  0.9558  1.4514
 8895TIP3    H248101   3.687   1.559   1.204 -0.2202  0.9831  1.4821
 8896TIP3   OH248102   3.139   4.895  14.681 -0.3994 -0.0362 -0.0789
 8896TIP3    H148103   3.153   4.977  14.729  3.7839 -1.0805  0.8204
 8896TIP3    H248104   3.149   4.919  14.589  0.8333  0.4952  0.1756
 8897TIP3   OH248105   2.797   1.832  16.484 -0.4597  0.2593  0.4259
 8897TIP3    H148106   2.718   1.779  16.485 -0.4990  0.3150  0.3342
 8897TIP3    H248107   2.789   1.885  16.404 -0.0401 -0.1736  0.0903
 8898TIP3   OH248108   2.198   0.626   1.668  0.1013  0.6496  0.2946
 8898TIP3    H148109   2.247   0.574   1.733  0.4000  2.6159  1.7278
 8898TIP3    H248110   2.259   0.635   1.595  0.6569  0.3462  0.7046
 8899TIP3   OH248111   0.149   0.160  15.954  0.1547  0.5530  0.1851
 8899TIP3    H148112   0.081   0.226  15.964  0.0943  0.3237  1.4320
 8899TIP3    H248113   0.130   0.095  16.021  1.9550  0.7947  0.9940
 8900TIP3   OH248114   1.107   4.077  17.048  0.0464  0.0441 -0.0118
 8900TIP3    H148115   1.102   4.005  16.985  1.1346 -0.3537  0.3421
 8900TIP3    H248116   1.025   4.071  17.097 -0.3994 -0.2133 -0.7694
 8901TIP3   OH248117   4.643   0.334   6.048 -0.0730  0.1615 -0.2103
 8901TIP3    H148118   4.668   0.346   6.140 -0.6607 -1.5907  0.2259
 8901TIP3    H248119   4.547   0.332   6.049 -0.0977 -2.6693 -0.3665
 8902TIP3   OH248120   3.645   5.677  15.266 -0.3909  0.1564  0.1081
 8902TIP3    H148121   3.726   5.699  15.220 -0.2815  2.3261  1.2116
 8902TIP3    H248122   3.580   5.667  15.197  0.6388 -0.9653 -0.7502
 8903TIP3   OH248123   6.193   0.210   2.779 -0.4774 -0.3478  0.1839
 8903TIP3    H148124   6.172   0.223   2.687 -1.1325 -1.4489  0.1703
 8903TIP3    H248125   6.109   0.200   2.822 -0.1646 -0.0910  0.8714
 8904TIP3   OH248126   3.086   4.109  13.145  0.1628  0.3588 -0.1510
 8904TIP3    H148127   3.026   4.102  13.219 -0.5692  0.0861 -0.7700
 8904TIP3    H248128   3.120   4.199  13.151 -0.8665  0.7665 -0.2254
 8905TIP3   OH248129   0.150   2.294   1.709  0.1571 -0.2265 -0.4099
 8905TIP3    H148130   0.136   2.210   1.753  1.8065 -0.9629 -1.1948
 8905TIP3    H248131   0.151   2.359   1.779 -2.4221 -0.6403  0.1092
 8906TIP3   OH248132   2.790   5.960   2.799 -0.6544  0.2862 -0.0548
 8906TIP3    H148133   2.874   5.956   2.753  0.8852 -0.5169  2.5928
 8906TIP3    H248134   2.812   5.940   2.890 -3.5886  1.1568  0.9488
 8907TIP3   OH248135   6.057   0.614  14.157  0.1957 -0.3525  0.6288
 8907TIP3    H148136   6.109   0.669  14.099  2.0307  1.2874  3.6154
 8907TIP3    H248137   6.117   0.547  14.188 -1.3627 -2.6426 -0.9865
 8908TIP3   OH248138   2.956   4.621   0.025  0.2263 -0.8153 -0.7680
 8908TIP3    H148139   3.030   4.682   0.025 -1.1460  0.9601  0.4903
 8908TIP3    H248140   2.931   4.614   0.117 -1.5400 -0.8552 -1.2175
 8909TIP3   OH248141   2.175   1.968   4.868  0.6020 -0.4892  0.0437
 8909TIP3    H148142   2.144   1.886   4.832 -0.1367 -1.7388  3.1741
 8909TIP3    H248143   2.263   1.978   4.832 -0.8909 -0.1636 -3.9715
 8910TIP3   OH248144   3.197   2.134   2.630 -0.3310 -0.3231  0.3007
 8910TIP3    H148145   3.210   2.056   2.575 -0.3396 -0.6293  0.7297
 8910TIP3    H248146   3.284   2.152   2.666 -0.7326 -1.4209  1.9077
 8911TIP3   OH248147   0.947   0.652  16.854 -0.4860 -0.5282  0.1479
 8911TIP3    H148148   0.996   0.720  16.809  0.4505 -0.9016  0.5731
 8911TIP3    H248149   0.857   0.664  16.825 -0.0597 -0.1789 -1.0866
 8912TIP3   OH248150   0.176   4.229  11.922 -0.1587 -0.2536 -0.1835
 8912TIP3    H148151   0.235   4.235  11.997 -1.3018 -2.8863  1.0315
 8912TIP3    H248152   0.115   4.301  11.933  0.7072  0.3970  0.4685
 8913TIP3   OH248153   3.180   5.335   0.200  0.4430  0.3242 -0.3340
 8913TIP3    H148154   3.189   5.339   0.295  0.4452  1.1777 -0.3637
 8913TIP3    H248155   3.105   5.277   0.186  1.0420 -0.5892  0.1486
 8914TIP3   OH248156   3.579   4.134  17.216  0.2042 -0.3986  0.0835
 8914TIP3    H148157   3.540   4.200  17.272 -0.4647 -1.4344  0.8796
 8914TIP3    H248158   3.507   4.103  17.161  1.1185  1.6252 -2.4990
 8915TIP3   OH248159   1.882   6.314  15.884 -0.0570 -0.0190 -0.2283
 8915TIP3    H148160   1.876   6.396  15.836  0.2979  0.0994 -0.0797
 8915TIP3    H248161   1.968   6.278  15.859 -1.6801 -2.2458 -3.2722
 8916TIP3   OH248162   3.646   4.203  15.992 -0.3042  0.4271  0.0340
 8916TIP3    H148163   3.684   4.291  15.981 -0.5725  0.6827  1.0340
 8916TIP3    H248164   3.650   4.164  15.905  0.9926  0.9639 -0.1755
 8917TIP3   OH248165   3.410   4.467  12.778  0.0768 -0.3949  0.2645
 8917TIP3    H148166   3.483   4.412  12.749 -1.6172 -1.2844 -2.6892
 8917TIP3    H248167   3.334   4.410  12.776 -1.3725  1.4499 -0.6750
 8918TIP3   OH248168   4.188   4.715  17.162 -0.3429  0.3696 -0.2085
 8918TIP3    H148169   4.142   4.633  17.142 -0.3635  0.2213  0.4471
 8918TIP3    H248170   4.136   4.756  17.231  0.6217  0.0826  0.7133
 8919TIP3   OH248171   4.556   6.136   2.098 -0.1127  0.8635  0.1338
 8919TIP3    H148172   4.630   6.184   2.061  0.6657 -1.2880 -1.2473
 8919TIP3    H248173   4.482   6.158   2.040  0.1718  0.6166 -0.3266
 8920TIP3   OH248174   0.479   1.758  16.044  0.5034 -0.1062 -0.4055
 8920TIP3    H148175   0.546   1.713  16.095  0.5811 -0.0622 -0.4700
 8920TIP3    H248176   0.404   1.699  16.046  0.1479  0.3439  0.6418
 8921TIP3   OH248177   5.602   3.485   4.191  0.2451 -0.1360  0.3590
 8921TIP3    H148178   5.577   3.577   4.203 -0.3907 -0.1135 -0.9539
 8921TIP3    H248179   5.679   3.489   4.134 -0.2991 -0.4353 -0.4137
 8922TIP3   OH248180   3.588   1.837  16.968  0.2807 -0.3335  0.3649
 8922TIP3    H148181   3.668   1.795  16.935  0.4659  0.5041 -0.2662
 8922TIP3    H248182   3.540   1.765  17.011  0.3384 -1.3361 -1.1613
 8923TIP3   OH248183   4.053   3.203  11.660 -0.1429 -0.2613 -0.2289
 8923TIP3    H148184   4.074   3.114  11.689 -1.5716  0.2015  2.6572
 8923TIP3    H248185   3.961   3.198  11.632  0.1971  0.0510 -1.4585
 8924TIP3   OH248186   1.401   1.002  13.927  0.7609 -0.0292 -0.3006
 8924TIP3    H148187   1.306   0.991  13.931  0.8368 -1.7798 -1.9776
 8924TIP3    H248188   1.414   1.072  13.863  0.5840  2.6387  2.3957
 8925TIP3   OH248189   5.141   2.675   2.302 -0.8374 -0.0206  0.1006
 8925TIP3    H148190   5.234   2.697   2.297 -0.9991  0.4335 -2.9867
 8925TIP3    H248191   5.139   2.580   2.287 -0.8991  0.2183 -1.6213
 8926TIP3   OH248192   2.628   3.453   5.562  0.5261 -0.0288  0.4164
 8926TIP3    H148193   2.666   3.540   5.567 -0.0329  0.3445 -1.1610
 8926TIP3    H248194   2.587   3.450   5.476  2.7157 -2.7381 -0.6783
 8927TIP3   OH248195   4.221   1.209   0.110 -0.1937  0.0531  0.2437
 8927TIP3    H148196   4.300   1.169   0.073 -1.2754 -1.5377 -0.4761
 8927TIP3    H248197   4.184   1.141   0.166 -1.3417  0.5655  0.1322
 8928TIP3   OH248198   2.625   2.266  13.204 -0.0049 -0.6610  0.0914
 8928TIP3    H148199   2.656   2.188  13.157  0.5462 -0.6279  0.3881
 8928TIP3    H248200   2.647   2.249  13.295 -1.8294 -1.1012  0.4914
 8929TIP3   OH248201   2.157   5.286   0.515  0.1157  0.3678 -0.7987
 8929TIP3    H148202   2.185   5.195   0.507 -2.4240 -0.4894 -0.8670
 8929TIP3    H248203   2.214   5.334   0.455  1.2700 -1.2082 -1.0462
 8930TIP3   OH248204   2.766   6.222   1.997 -0.1613 -0.3417  0.2486
 8930TIP3    H148205   2.801   6.271   2.071  1.0831  0.4710 -0.8302
 8930TIP3    H248206   2.748   6.135   2.031  3.1697 -0.9046  0.8689
 8931TIP3   OH248207   4.848   2.189   2.995 -0.1360 -0.1513 -0.0277
 8931TIP3    H148208   4.941   2.173   2.981 -0.1574  0.4115 -0.9139
 8931TIP3    H248209   4.808   2.173   2.909 -0.6982  0.7113  0.0588
 8932TIP3   OH248210   3.539   5.877   3.632  0.0963 -0.2203  0.6793
 8932TIP3    H148211   3.482   5.814   3.587 -0.2324  0.8935 -0.5391
 8932TIP3    H248212   3.572   5.830   3.708  0.9909 -2.3661 -0.9196
 8933TIP3   OH248213   1.612   2.664  14.391 -0.2055  0.1251 -0.5610
 8933TIP3    H148214   1.653   2.731  14.445  0.6126 -1.6221  1.0926
 8933TIP3    H248215   1.518   2.682  14.398  0.0045  1.1994 -0.3137
 8934TIP3   OH248216   3.857   3.457   6.321 -0.2698  0.0607 -0.2848
 8934TIP3    H148217   3.929   3.469   6.381 -0.7078 -0.0057  0.2610
 8934TIP3    H248218   3.857   3.363   6.302  0.9991  0.3267 -1.8396
 8935TIP3   OH248219   3.213   0.541  16.989  0.6681  0.6439 -0.0937
 8935TIP3    H148220   3.234   0.537  17.082 -0.4817 -0.0527  0.1506
 8935TIP3    H248221   3.289   0.503  16.945  0.6402 -0.2831  0.6507
 8936TIP3   OH248222   6.396   0.143   4.043  0.4947  0.4300  0.2319
 8936TIP3    H148223   6.474   0.097   4.077 -0.7615 -0.0944  2.5891
 8936TIP3    H248224   6.415   0.235   4.058 -0.0894  0.2181  2.7591
 8937TIP3   OH248225   5.880   4.537  13.298  0.6899  0.1519  0.4248
 8937TIP3    H148226   5.890   4.593  13.221  1.6058 -2.2116 -1.3127
 8937TIP3    H248227   5.970   4.509  13.319  0.2806 -0.6504  1.2148
 8938TIP3   OH248228   2.863   3.712   2.586 -0.0133  0.2022 -0.1785
 8938TIP3    H148229   2.838   3.658   2.511  3.0330 -1.6762 -0.0097
 8938TIP3    H248230   2.849   3.655   2.662 -0.7729  1.2152  0.4633
 8939TIP3   OH248231   2.815   0.367  12.733 -0.1671 -0.3071 -0.4423
 8939TIP3    H148232   2.737   0.315  12.713 -1.9145  1.9644  0.0509
 8939TIP3    H248233   2.784   0.432  12.796  2.4334 -0.0199  0.6408
 8940TIP3   OH248234   5.026   4.447   5.726 -0.1218 -0.1097  0.2240
 8940TIP3    H148235   4.954   4.386   5.713  0.3323 -0.4392 -0.8480
 8940TIP3    H248236   5.093   4.418   5.665 -0.2234  1.9628 -0.9653
 8941TIP3   OH248237   6.609   4.756  16.250  0.1741 -0.5419 -0.5809
 8941TIP3    H148238   6.687   4.701  16.240 -0.8043 -1.9477 -0.7514
 8941TIP3    H248239   6.596   4.762  16.345  1.4352  1.1242 -0.4772
 8942TIP3   OH248240   6.543   5.434   6.047  0.1954  0.3623  0.5225
 8942TIP3    H148241   6.458   5.417   6.006 -0.0229 -0.2327  1.2100
 8942TIP3    H248242   6.570   5.518   6.010 -0.9171  0.7941  0.6462
 8943TIP3   OH248243   4.535   0.528   3.316 -0.3968 -0.0296 -0.4585
 8943TIP3    H148244   4.459   0.514   3.372 -0.5994  1.0601 -0.4469
 8943TIP3    H248245   4.553   0.441   3.279 -2.5699 -0.0201 -1.6812
 8944TIP3   OH248246   4.240   2.373   4.685 -0.5615  0.3431 -0.4827
 8944TIP3    H148247   4.204   2.340   4.603  0.1434 -1.1593 -0.2193
 8944TIP3    H248248   4.334   2.381   4.669 -0.4907  0.5443  0.0094
 8945TIP3   OH248249   5.732   5.933   0.615  0.0917 -0.3615 -0.5588
 8945TIP3    H148250   5.696   5.849   0.587  1.2593 -1.1239  0.1690
 8945TIP3    H248251   5.808   5.946   0.559  0.1999 -0.0285 -0.3363
 8946TIP3   OH248252   2.819   2.791   3.805  0.3585  0.3004  0.5292
 8946TIP3    H148253   2.892   2.843   3.769  0.3107  0.5319  0.7630
 8946TIP3    H248254   2.743   2.816   3.752  1.0613 -2.5133 -2.1107
 8947TIP3   OH248255   5.419   4.131   1.327  0.0018  0.7121 -0.0370
 8947TIP3    H148256   5.503   4.086   1.320  0.8126  2.0097  1.0359
 8947TIP3    H248257   5.392   4.146   1.236 -0.3111 -1.8657 -0.4464
 8948TIP3   OH248258   2.212   0.756  10.270  0.1087  0.2488 -0.2677
 8948TIP3    H148259   2.118   0.766  10.257 -0.1039 -1.4229 -0.1993
 8948TIP3    H248260   2.244   0.845  10.284 -1.6001  0.7677  0.5976
 8949TIP3   OH248261   5.762   1.825  13.571  0.0029 -0.1265 -0.3181
 8949TIP3    H148262   5.720   1.778  13.642 -0.9698  1.0505 -0.0952
 8949TIP3    H248263   5.847   1.782  13.561 -1.5541 -3.2197 -1.4439
 8950TIP3   OH248264   4.513   4.311  12.721 -0.6294 -0.1479 -0.0221
 8950TIP3    H148265   4.536   4.341  12.809 -2.1684  1.2210 -0.0320
 8950TIP3    H248266   4.489   4.219  12.733 -1.2276  0.1285  1.0845
 8951TIP3   OH248267   3.136   2.396  15.668  0.4028  0.0315  0.1192
 8951TIP3    H148268   3.177   2.311  15.655  2.0212  0.7322  0.5113
 8951TIP3    H248269   3.078   2.384  15.744  2.1016 -0.2274  1.4164
 8952TIP3   OH248270   4.645   5.147  14.129 -0.0904 -0.2484  0.1551
 8952TIP3    H148271   4.643   5.077  14.194 -1.5822  0.1103  0.5337
 8952TIP3    H248272   4.662   5.226  14.180 -0.1154 -0.1132 -0.0471
 8953TIP3   OH248273   4.723   3.496   3.667 -0.1998 -0.8363  0.3156
 8953TIP3    H148274   4.662   3.506   3.740 -2.1434 -3.9479 -0.6728
 8953TIP3    H248275   4.798   3.449   3.704 -1.1964 -2.4438  0.4343
 8954TIP3   OH248276   4.075   0.960   0.198 -0.5896  0.0190 -0.3365
 8954TIP3    H148277   4.035   1.013   0.267 -1.1069 -0.2016 -0.4691
 8954TIP3    H248278   4.069   0.870   0.229 -1.9176 -0.2194 -1.1845
 8955TIP3   OH248279   5.407   2.222   6.095 -0.0600 -0.2927  0.1319
 8955TIP3    H148280   5.333   2.280   6.116  0.5197  0.9709 -1.1304
 8955TIP3    H248281   5.381   2.179   6.013  0.6471  0.2823 -0.4067
 8956TIP3   OH248282   6.265   2.816   1.609  0.1895 -0.2377 -0.4619
 8956TIP3    H148283   6.329   2.877   1.645  0.5923 -0.1991 -1.2239
 8956TIP3    H248284   6.301   2.789   1.524 -1.4864  0.9510 -1.6300
 8957TIP3   OH248285   0.450   1.959  12.057  0.2413  0.2153 -0.0539
 8957TIP3    H148286   0.493   1.984  12.139  0.1094 -1.2583  0.4823
 8957TIP3    H248287   0.475   2.028  11.996 -1.6009  2.7321  1.7816
 8958TIP3   OH248288   4.218   5.645   5.861  1.1025  0.5507 -0.4485
 8958TIP3    H148289   4.239   5.625   5.953  0.1808  0.8179 -0.1701
 8958TIP3    H248290   4.211   5.740   5.858  1.0564  0.5380 -0.7854
 8959TIP3   OH248291   4.706   1.078  14.172  0.4730  0.0569  0.3137
 8959TIP3    H148292   4.653   1.081  14.251 -1.3276 -2.8633 -0.6514
 8959TIP3    H248293   4.689   0.992  14.134 -0.4569  1.9761 -4.3701
 8960TIP3   OH248294   6.090   5.957   4.607 -0.1369 -0.1931 -0.1050
 8960TIP3    H148295   6.169   5.904   4.616  0.3359  0.6401  0.8707
 8960TIP3    H248296   6.023   5.895   4.577  0.5601 -1.1999  0.3450
 8961TIP3   OH248297   0.242   0.445   4.722 -0.1798  0.3264 -0.1618
 8961TIP3    H148298   0.199   0.529   4.736 -1.1449 -0.3977  1.6438
 8961TIP3    H248299   0.313   0.463   4.661  1.7051  3.1206  2.5509
 8962TIP3   OH248300   3.881   6.636  11.305 -0.2329  0.5434  0.6281
 8962TIP3    H148301   3.809   6.640  11.241 -1.0435 -1.5443  1.3232
 8962TIP3    H248302   3.959   6.657  11.254 -1.0522  0.5542 -0.6924
 8963TIP3   OH248303   0.291   4.003   0.992 -0.1622  0.2996  0.3287
 8963TIP3    H148304   0.336   4.086   1.009 -0.4010  0.4465  0.2441
 8963TIP3    H248305   0.344   3.938   1.038 -0.9529  0.7236  1.9017
 8964TIP3   OH248306   5.324   3.743   4.439  0.1170  0.0905 -0.0813
 8964TIP3    H148307   5.346   3.662   4.394  2.5806  1.2358 -1.1291
 8964TIP3    H248308   5.235   3.763   4.411 -1.3848 -3.2398  1.8424
 8965TIP3   OH248309   4.182   3.483   4.026 -0.0721 -0.3496  0.3617
 8965TIP3    H148310   4.200   3.476   3.932 -0.3344  1.0543  0.1934
 8965TIP3    H248311   4.268   3.490   4.066  0.0145 -0.3325  0.1753
 8966TIP3   OH248312   5.490   2.323  11.051 -0.5476 -0.1732 -0.6752
 8966TIP3    H148313   5.465   2.409  11.085  0.3243 -0.0561 -0.3064
 8966TIP3    H248314   5.535   2.342  10.969  2.7347  0.0473  1.0305
 8967TIP3   OH248315   6.375   1.175  12.317 -0.4796  0.4579 -0.0536
 8967TIP3    H148316   6.393   1.266  12.340  0.5003  0.0432  0.9135
 8967TIP3    H248317   6.333   1.180  12.231  1.9077  1.6931 -1.2574
 8968TIP3   OH248318   2.090   4.280  16.130  0.4167 -0.5427  0.3924
 8968TIP3    H148319   2.117   4.192  16.104  0.1234 -0.5955  0.2708
 8968TIP3    H248320   1.995   4.279  16.124  0.4808  0.9220 -3.2866
 8969TIP3   OH248321   4.529   6.383  12.184 -0.0170  0.0523  0.1254
 8969TIP3    H148322   4.590   6.454  12.164  0.1309 -0.2694 -0.5979
 8969TIP3    H248323   4.472   6.377  12.108 -0.5654 -0.0587  0.5371
 8970TIP3   OH248324   5.510   3.140   0.008 -0.0564 -0.4993 -0.3686
 8970TIP3    H148325   5.473   3.093  -0.066  0.7530 -1.2438 -0.2993
 8970TIP3    H248326   5.434   3.160   0.063 -0.6133 -0.2653 -1.2005
 8971TIP3   OH248327   4.047   3.459  16.024 -0.6283  0.2962  0.1816
 8971TIP3    H148328   3.991   3.536  16.032 -0.9611 -0.0989  2.2730
 8971TIP3    H248329   4.034   3.412  16.107 -1.8986 -2.9774 -1.6815
 8972TIP3   OH248330   6.307   0.473  14.255 -0.4006 -0.0654  0.0355
 8972TIP3    H148331   6.385   0.522  14.280 -1.2634  1.0987  0.5080
 8972TIP3    H248332   6.339   0.407  14.193  0.6410  1.7863 -1.4984
 8973TIP3   OH248333   2.816   0.580  16.844  0.1972  0.0067  0.4465
 8973TIP3    H148334   2.813   0.665  16.888 -1.3535  1.1078 -1.5809
 8973TIP3    H248335   2.783   0.518  16.908  1.3013  0.9259  1.9597
 8974TIP3   OH248336   3.751   3.052   1.466 -0.1223  0.3918  0.1479
 8974TIP3    H148337   3.687   3.117   1.438 -0.1833  0.7448  1.0623
 8974TIP3    H248338   3.699   2.976   1.492 -0.1706  0.6244  0.7484
 8975TIP3   OH248339   6.248   3.041   2.427  0.3439  0.3938 -0.1705
 8975TIP3    H148340   6.198   3.123   2.434 -0.9627 -0.4791  1.0671
 8975TIP3    H248341   6.188   2.979   2.388  1.9510  0.4475 -3.0263
 8976TIP3   OH248342   2.187   0.157  15.692  0.5255  0.6031 -0.6603
 8976TIP3    H148343   2.194   0.120  15.604  0.9707  2.1452 -1.3158
 8976TIP3    H248344   2.172   0.250  15.678 -1.8155  0.5747  0.8961
 8977TIP3   OH248345   6.409   2.124   3.071  0.3051 -0.4253 -0.3545
 8977TIP3    H148346   6.459   2.055   3.027  1.7755 -1.6793  2.9643
 8977TIP3    H248347   6.465   2.201   3.065  0.4816 -0.5734 -0.6728
 8978TIP3   OH248348   2.634   0.639  11.899  0.5450  0.1571  0.0514
 8978TIP3    H148349   2.605   0.728  11.879 -0.7292 -0.7147 -2.2790
 8978TIP3    H248350   2.661   0.603  11.814 -0.7390 -2.2827  0.6063
 8979TIP3   OH248351   2.533   4.668   3.398  0.4083 -0.2494 -0.3669
 8979TIP3    H148352   2.496   4.646   3.313  1.7878  2.6230 -1.8829
 8979TIP3    H248353   2.627   4.655   3.388  0.4624 -1.6512  1.3993
 8980TIP3   OH248354   5.549   3.921   4.124 -0.4039  0.3361 -0.3298
 8980TIP3    H148355   5.512   3.837   4.152  0.8472 -0.4238 -0.8786
 8980TIP3    H248356   5.530   3.980   4.197  0.7249 -1.0128  1.1353
 8981TIP3   OH248357   4.042   3.269  13.539  0.2724 -0.2430  0.2018
 8981TIP3    H148358   3.973   3.215  13.576  0.5000 -1.7292 -1.4211
 8981TIP3    H248359   4.123   3.229  13.571  0.4279 -0.3073 -0.2704
 8982TIP3   OH248360   0.754   5.101   0.565 -0.1457  0.0681  0.8750
 8982TIP3    H148361   0.829   5.062   0.520  0.5582  0.9060  1.2885
 8982TIP3    H248362   0.786   5.119   0.654 -0.4234  1.5512  0.7060
 8983TIP3   OH248363   6.439   2.358  12.029  0.0386  0.3178 -0.6728
 8983TIP3    H148364   6.486   2.409  12.095  1.2866 -0.6000 -0.8032
 8983TIP3    H248365   6.347   2.383  12.039  0.2284  0.3652  1.2757
 8984TIP3   OH248366   5.265   0.886   3.831  0.9810  0.4473 -0.6145
 8984TIP3    H148367   5.277   0.890   3.926 -1.1159  2.4067 -0.3421
 8984TIP3    H248368   5.287   0.795   3.808  1.4881 -0.0985  1.7294
 8985TIP3   OH248369   3.560   0.817   0.436  0.0737 -0.1125 -0.7769
 8985TIP3    H148370   3.496   0.871   0.481  0.9776  1.3097 -1.1491
 8985TIP3    H248371   3.510   0.772   0.368 -0.6642  0.3989 -0.5850
 8986TIP3   OH248372   5.147   4.191  17.034 -0.4553 -0.9121  0.0546
 8986TIP3    H148373   5.188   4.274  17.058  1.6213 -1.7804 -0.2794
 8986TIP3    H248374   5.075   4.215  16.976  0.9597  0.6089 -1.1403
 8987TIP3   OH248375   4.722   4.267  12.222 -1.3397  0.1449 -0.0556
 8987TIP3    H148376   4.697   4.252  12.131 -1.4409  0.5874 -0.1010
 8987TIP3    H248377   4.654   4.223  12.273 -1.5893  0.3678 -0.1916
 8988TIP3   OH248378   0.116   2.627  17.012 -0.0518 -0.5776 -0.2694
 8988TIP3    H148379   0.047   2.692  17.031 -0.6667 -0.5433 -2.3405
 8988TIP3    H248380   0.104   2.559  17.078 -2.1859 -0.6296 -0.6454
 8989TIP3   OH248381   0.387   4.043  12.204 -0.2112  0.0436 -0.0195
 8989TIP3    H148382   0.346   4.128  12.217  0.1215  0.2003  0.0022
 8989TIP3    H248383   0.468   4.047  12.256 -0.4579 -0.4779  0.4197
 8990TIP3   OH248384   4.315   3.983  14.643 -0.3030 -0.0931 -0.9579
 8990TIP3    H148385   4.377   3.940  14.585  0.1104 -2.0557  0.8225
 8990TIP3    H248386   4.288   3.915  14.705 -1.0205  1.7619  0.9078
 8991TIP3   OH248387   5.281   4.002   1.064 -0.5283 -0.4391 -0.1204
 8991TIP3    H148388   5.266   3.928   1.122  0.5497 -0.9246 -0.4304
 8991TIP3    H248389   5.363   3.981   1.019 -0.8156  0.3921 -1.0781
 8992TIP3   OH248390   1.582   1.996   0.685 -0.1134  0.2400 -0.2128
 8992TIP3    H148391   1.667   2.041   0.679  0.8888 -1.5782 -0.5332
 8992TIP3    H248392   1.588   1.925   0.621 -1.8184 -0.0428 -0.0974
 8993TIP3   OH248393   2.800   3.602   6.059 -0.3715  0.3307  0.2408
 8993TIP3    H148394   2.888   3.565   6.065  0.5631  1.3118 -3.8595
 8993TIP3    H248395   2.786   3.647   6.142  1.9686 -1.7904  1.9363
 8994TIP3   OH248396   2.678   1.327   4.155 -0.5017  0.0581  0.4125
 8994TIP3    H148397   2.707   1.265   4.088  0.0019 -0.3098  0.9564
 8994TIP3    H248398   2.602   1.285   4.195  0.8320 -1.0305  1.9178
 8995TIP3   OH248399   2.175   0.875   0.253  0.0080 -0.2722  0.5823
 8995TIP3    H148400   2.125   0.892   0.333  0.9959 -1.6473  1.5206
 8995TIP3    H248401   2.109   0.847   0.189 -0.6722 -0.0603  1.1772
 8996TIP3   OH248402   4.895   3.751  15.716  0.5370  0.2039  0.1324
 8996TIP3    H148403   4.865   3.762  15.807  1.4474 -0.7404  0.5597
 8996TIP3    H248404   4.885   3.838  15.678 -2.5318  0.0378  0.2875
 8997TIP3   OH248405   1.506   6.773   5.499 -0.1225 -0.5503  0.4052
 8997TIP3    H148406   1.517   6.678   5.499  0.0612 -0.5279  0.4601
 8997TIP3    H248407   1.445   6.789   5.571  0.5569 -0.5416  0.9873
 8998TIP3   OH248408   5.246   5.182   0.053  0.3091 -0.3800 -0.2979
 8998TIP3    H148409   5.328   5.160   0.010  1.6143  3.1230  0.0599
 8998TIP3    H248410   5.268   5.257   0.110 -3.1202  0.7968 -0.2875
 8999TIP3   OH248411   1.441   6.653   3.486 -0.3009 -0.2807 -0.3118
 8999TIP3    H148412   1.487   6.726   3.445  1.4983 -0.9217  0.4423
 8999TIP3    H248413   1.464   6.577   3.433  1.1302 -0.9254  1.1278
 9000TIP3   OH248414   4.268   2.379  16.757  0.1667 -0.2944 -0.2715
 9000TIP3    H148415   4.310   2.385  16.843  0.5898 -2.4296 -0.2717
 9000TIP3    H248416   4.175   2.385  16.775  0.3042  0.6999  0.1619
 9001TIP3   OH248417   0.270   4.380  13.932  0.8470 -0.2248 -0.5023
 9001TIP3    H148418   0.223   4.298  13.951 -0.6169  0.6508 -0.1504
 9001TIP3    H248419   0.362   4.354  13.925  0.3796 -1.9426 -0.7207
 9002TIP3   OH248420   6.627   0.115  11.801  0.6047 -0.0486 -0.4601
 9002TIP3    H148421   6.562   0.148  11.863  1.5549 -0.3133  0.7396
 9002TIP3    H248422   6.675   0.048  11.851  2.6386  1.0496 -0.8231
 9003TIP3   OH248423   4.515   6.350   5.613 -0.2987 -0.4150  0.2685
 9003TIP3    H148424   4.432   6.382   5.646  0.4217  0.9729  0.8001
 9003TIP3    H248425   4.553   6.301   5.685 -0.3265 -0.4241  0.2770
 9004TIP3   OH248426   0.078   6.497   5.242  0.1626  0.1978  0.5377
 9004TIP3    H148427   0.080   6.586   5.279  0.8869  0.2865  0.3183
 9004TIP3    H248428   0.058   6.511   5.149  1.7505  0.2762  0.1762
 9005TIP3   OH248429   4.832   0.314  16.061  0.0562 -0.4994  0.3112
 9005TIP3    H148430   4.893   0.370  16.013 -0.2671 -0.0124  0.4614
 9005TIP3    H248431   4.768   0.286  15.995  0.2889 -0.7936  0.2096
 9006TIP3   OH248432   2.621   6.072   0.662 -0.4223  0.0317 -0.2521
 9006TIP3    H148433   2.656   6.105   0.579 -0.7776  1.3369  0.0875
 9006TIP3    H248434   2.619   5.977   0.651  0.5761  0.1056 -1.3206
 9007TIP3   OH248435   3.741   2.947   0.159  0.2876 -0.5702  0.1082
 9007TIP3    H148436   3.722   2.933   0.066  1.4220  0.3367 -0.2853
 9007TIP3    H248437   3.749   3.042   0.167  1.6205 -0.7216  0.8272
 9008TIP3   OH248438   2.539   0.637  12.555  0.1467 -0.2728 -0.0736
 9008TIP3    H148439   2.476   0.632  12.627 -0.0767 -0.6957 -0.2934
 9008TIP3    H248440   2.485   0.630  12.476  0.1631  2.1863 -0.3724
 9009TIP3   OH248441   0.692   2.177   5.005 -0.1258 -0.4116  0.2286
 9009TIP3    H148442   0.662   2.157   5.094 -3.2598  0.6094 -0.4928
 9009TIP3    H248443   0.613   2.199   4.957  1.8447  3.3368 -1.7550
 9010TIP3   OH248444   1.571   2.815  16.242  0.2250 -0.4739  0.4348
 9010TIP3    H148445   1.574   2.803  16.147 -3.2333 -1.2604  0.2965
 9010TIP3    H248446   1.543   2.729  16.275  1.7546 -0.3264  2.2585
 9011TIP3   OH248447   1.918   6.578  16.790 -0.0934 -0.1881  0.5098
 9011TIP3    H148448   1.864   6.512  16.831  1.1349  0.3469  3.1769
 9011TIP3    H248449   1.971   6.529  16.726  0.2104 -1.6576  1.8326
 9012TIP3   OH248450   4.755   5.725   4.972  0.1883 -0.7132 -0.7092
 9012TIP3    H148451   4.804   5.793   4.926 -0.2194 -0.1161 -0.2681
 9012TIP3    H248452   4.727   5.766   5.053  0.7802 -1.7104  0.0265
 9013TIP3   OH248453   2.330   3.474   3.922  0.0720  0.2422 -0.1472
 9013TIP3    H148454   2.404   3.528   3.950  0.0062 -0.4334  1.4150
 9013TIP3    H248455   2.256   3.504   3.975 -0.5350  0.1871 -0.9344
 9014TIP3   OH248456   5.960   1.488  15.472 -0.4205 -0.4625 -0.1767
 9014TIP3    H148457   6.036   1.430  15.467 -0.4194 -0.4621 -0.1596
 9014TIP3    H248458   5.984   1.554  15.538 -1.4719 -2.0034  1.8704
 9015TIP3   OH248459   2.920   0.524   2.400  0.2278  0.1376 -0.2315
 9015TIP3    H148460   2.999   0.481   2.369 -0.2023 -0.7050 -0.2065
 9015TIP3    H248461   2.932   0.532   2.495  0.8091  1.1617 -0.3735
 9016TIP3   OH248462   2.316   0.386   3.802 -0.3560 -0.4167 -0.0883
 9016TIP3    H148463   2.349   0.340   3.879  0.7223  0.4902  0.0101
 9016TIP3    H248464   2.272   0.318   3.751  0.3891 -1.3727  0.4983
 9017TIP3   OH248465   4.429   6.028  14.511  0.3182  0.6819 -0.5436
 9017TIP3    H148466   4.426   6.104  14.570  0.8025  1.2361 -1.2191
 9017TIP3    H248467   4.358   6.044  14.448  0.0082  0.2504 -0.3104
 9018TIP3   OH248468   6.475   0.655  11.889 -0.5450  0.2663  0.2878
 9018TIP3    H148469   6.499   0.643  11.797 -0.3666  2.9911 -0.1076
 9018TIP3    H248470   6.397   0.602  11.900  0.7877 -2.0826 -0.7145
 9019TIP3   OH248471   1.448   0.277  13.795 -0.1912 -0.0860 -0.2168
 9019TIP3    H148472   1.384   0.328  13.746  1.0023 -0.4529 -2.2790
 9019TIP3    H248473   1.527   0.332  13.796  0.1814 -0.6104  0.1987
 9020TIP3   OH248474   1.399   0.824  10.889 -0.5442  0.3327  0.0935
 9020TIP3    H148475   1.309   0.839  10.860 -0.2113  0.9068 -0.6700
 9020TIP3    H248476   1.449   0.814  10.808 -0.4446 -3.5075  0.4596
 9021TIP3   OH248477   6.719   3.421  12.207 -0.0928  0.3242  0.4285
 9021TIP3    H148478   6.670   3.443  12.127  1.2790  2.5893  0.1413
 9021TIP3    H248479   6.675   3.343  12.240 -1.2601 -0.1779 -2.0570
 9022TIP3   OH248480   2.083   3.212   4.545 -0.3471 -0.6615  0.5627
 9022TIP3    H148481   2.148   3.234   4.612 -0.1263 -0.8950  0.4284
 9022TIP3    H248482   2.096   3.118   4.530  0.1795 -0.4339 -0.4230
 9023TIP3   OH248483   4.481   0.654   5.388  0.0395 -0.3039  0.1312
 9023TIP3    H148484   4.561   0.602   5.386 -0.2162 -0.7223 -1.9995
 9023TIP3    H248485   4.450   0.648   5.478  1.6361 -1.3250  0.6397
 9024TIP3   OH248486   5.359   0.368  11.478  0.1089 -0.0493  0.0898
 9024TIP3    H148487   5.416   0.429  11.432  2.0271 -2.1030 -0.4922
 9024TIP3    H248488   5.298   0.336  11.412 -0.4169  0.6579  0.2229
 9025TIP3   OH248489   1.591   5.802   3.419  0.3689 -0.4952 -0.3505
 9025TIP3    H148490   1.581   5.842   3.506 -0.1632  0.2888 -0.7642
 9025TIP3    H248491   1.671   5.841   3.384 -0.5031  0.7328 -1.0204
 9026TIP3   OH248492   3.216   1.839   4.540  0.2129 -0.2932 -0.2509
 9026TIP3    H148493   3.144   1.895   4.569 -0.8020 -1.9000  0.4655
 9026TIP3    H248494   3.173   1.767   4.495  1.5461 -0.0754 -1.9780
 9027TIP3   OH248495   3.160   0.359   4.744  0.1387 -0.4472 -0.2006
 9027TIP3    H148496   3.191   0.337   4.832  2.5055 -1.1318 -1.1178
 9027TIP3    H248497   3.236   0.398   4.702  0.3339 -3.4533 -3.0594
 9028TIP3   OH248498   4.780   4.669  15.554  0.1930  0.2211 -0.1985
 9028TIP3    H148499   4.685   4.678  15.554  0.1030 -0.3767 -1.7224
 9028TIP3    H248500   4.796   4.581  15.518  1.3022 -0.3370  1.5032
 9029TIP3   OH248501   3.416   2.987   3.356  0.2446  0.0033 -0.7450
 9029TIP3    H148502   3.356   2.913   3.352 -0.7527  0.8467 -1.9517
 9029TIP3    H248503   3.494   2.957   3.309  1.0244 -1.2660  1.2420
 9030TIP3   OH248504   6.262   4.568   0.211 -0.7604  0.8501  0.2501
 9030TIP3    H148505   6.195   4.582   0.277 -0.6476  0.0298  0.5552
 9030TIP3    H248506   6.329   4.516   0.255 -0.7761  0.1092 -0.5514
 9031TIP3   OH248507   4.200   6.109   5.065  0.6501 -0.0131  0.4008
 9031TIP3    H148508   4.216   6.136   4.975  1.6821 -0.1416  0.5367
 9031TIP3    H248509   4.165   6.021   5.058 -0.7544  0.5500  0.0596
 9032TIP3   OH248510   5.812   1.493   3.181 -0.6021 -0.2501  0.2817
 9032TIP3    H148511   5.778   1.489   3.091 -0.5396 -1.3629  0.2889
 9032TIP3    H248512   5.875   1.421   3.185  0.4692  0.6937  0.7960
 9033TIP3   OH248513   6.627   0.336  14.995  0.4699 -0.3090 -0.3611
 9033TIP3    H148514   6.686   0.395  15.041  0.0293 -0.0013 -0.1819
 9033TIP3    H248515   6.550   0.389  14.976  0.1457 -0.7757 -0.3649
 9034TIP3   OH248516   1.289   5.142  11.829 -0.2980 -0.2410 -0.4057
 9034TIP3    H148517   1.328   5.213  11.879  0.2334 -0.0335 -1.0997
 9034TIP3    H248518   1.265   5.181  11.745 -2.3175 -0.2942  0.1173
 9035TIP3   OH248519   4.229   5.795   5.506  0.2718 -0.2214 -0.2144
 9035TIP3    H148520   4.236   5.705   5.539 -1.3474 -0.0339  0.7339
 9035TIP3    H248521   4.135   5.813   5.504  0.5128  1.1134 -1.3768
 9036TIP3   OH248522   1.519   6.639   2.610 -0.3937 -1.2853 -0.1903
 9036TIP3    H148523   1.473   6.722   2.600 -1.7381 -1.9882 -0.1320
 9036TIP3    H248524   1.611   6.659   2.591 -1.2076 -0.5645 -4.0926
 9037TIP3   OH248525   1.002   1.050   1.751  0.1996  0.6209  0.3896
 9037TIP3    H148526   0.980   0.966   1.711  0.6693  1.2238 -1.2363
 9037TIP3    H248527   0.934   1.110   1.718  0.5401  1.1146  0.5713
 9038TIP3   OH248528   3.925   6.492   4.615  0.5439  0.0248 -0.3401
 9038TIP3    H148529   3.978   6.553   4.665  0.4538  0.2314 -0.4949
 9038TIP3    H248530   3.910   6.536   4.531 -0.6695  0.3753  0.0506
 9039TIP3   OH248531   1.037   1.783   4.264 -0.4491 -0.4289  0.4644
 9039TIP3    H148532   1.039   1.878   4.260  1.3000 -0.4665 -0.5575
 9039TIP3    H248533   0.958   1.759   4.215  0.7964  0.4568 -2.1909
 9040TIP3   OH248534   5.897   5.332   1.594  0.5616  0.4373  0.4216
 9040TIP3    H148535   5.811   5.295   1.616 -1.1245  2.5746 -2.0878
 9040TIP3    H248536   5.915   5.394   1.665 -0.4105  0.6285  0.5120
 9041TIP3   OH248537   5.994   1.000   0.723  0.1691  0.5741  0.2227
 9041TIP3    H148538   5.936   1.054   0.671  1.6771  1.5683 -0.4994
 9041TIP3    H248539   6.079   1.044   0.718  0.8560 -0.4917  1.7346
 9042TIP3   OH248540   3.071   2.498  13.826 -0.2784 -0.0192 -0.1763
 9042TIP3    H148541   3.014   2.435  13.871 -0.5860 -0.2570 -0.8826
 9042TIP3    H248542   3.077   2.465  13.737  1.0904 -0.0761 -0.0883
 9043TIP3   OH248543   2.962   0.824  16.443  0.6651 -0.3614 -0.4008
 9043TIP3    H148544   3.040   0.821  16.497 -0.1151  0.9608  0.8745
 9043TIP3    H248545   2.959   0.913  16.409 -0.5749 -0.1967  0.0693
 9044TIP3   OH248546   0.999   5.978   0.701 -0.0572  0.1143  0.3767
 9044TIP3    H148547   1.092   5.991   0.685 -0.1736  0.1355 -0.3072
 9044TIP3    H248548   0.993   5.892   0.742  0.2644  0.1522  0.5092
 9045TIP3   OH248549   2.603   1.829   4.111  0.4824  0.1822 -0.5092
 9045TIP3    H148550   2.667   1.800   4.045  1.5085  2.9380 -0.8505
 9045TIP3    H248551   2.567   1.910   4.075 -0.6492  0.5206  1.2949
 9046TIP3   OH248552   1.066   1.425  16.265  0.3682 -0.8667  0.3080
 9046TIP3    H148553   0.993   1.481  16.240  1.7725  0.9670  0.1421
 9046TIP3    H248554   1.031   1.336  16.256 -1.4690 -0.0978 -0.9045
 9047TIP3   OH248555   1.027   1.926   4.801  0.5006 -0.6785  0.4520
 9047TIP3    H148556   1.044   1.896   4.890 -0.8813 -1.0411  0.6258
 9047TIP3    H248557   1.105   1.902   4.751  1.2990 -0.4429  1.5632
 9048TIP3   OH248558   6.036   4.378   1.345 -0.2779  0.6000  0.3649
 9048TIP3    H148559   6.114   4.368   1.399 -0.4758 -1.0187  0.4026
 9048TIP3    H248560   6.043   4.308   1.279 -0.9827  1.3465 -0.5388
 9049TIP3   OH248561   4.961   2.178   0.366  0.1181 -0.5618 -0.4811
 9049TIP3    H148562   4.869   2.154   0.376  0.3310 -1.1689  0.1413
 9049TIP3    H248563   4.987   2.209   0.453  0.6118 -0.8239 -0.5302
 9050TIP3   OH248564   0.255   2.914   6.459  0.1620 -0.1894 -0.1723
 9050TIP3    H148565   0.215   2.995   6.425  0.3392 -0.8040 -1.9448
 9050TIP3    H248566   0.287   2.938   6.546  0.4966  1.7501 -0.7813
 9051TIP3   OH248567   5.959   5.480   1.367 -0.5984  0.2699 -0.0906
 9051TIP3    H148568   5.922   5.544   1.429 -1.5096 -1.7943  1.6306
 9051TIP3    H248569   5.918   5.397   1.391  1.1434 -1.1492 -1.7117
 9052TIP3   OH248570   6.427   1.578  14.927  0.4270 -0.3894  0.0510
 9052TIP3    H148571   6.477   1.657  14.907 -1.9742  0.8583 -1.4268
 9052TIP3    H248572   6.384   1.597  15.010 -2.9371  1.5153 -1.8897
 9053TIP3   OH248573   1.709   4.565   5.294  0.4547 -0.3743  0.3416
 9053TIP3    H148574   1.630   4.517   5.269  1.6519 -1.9923 -0.5180
 9053TIP3    H248575   1.771   4.548   5.222  1.0978  2.1463  0.1895
 9054TIP3   OH248576   6.658   1.129   3.428 -0.0348  0.4129  0.4631
 9054TIP3    H148577   6.622   1.049   3.467  0.3556  0.1813  0.3413
 9054TIP3    H248578   6.714   1.166   3.497 -0.6856  0.9059  0.7454
 9055TIP3   OH248579   6.623   2.255  16.651 -0.2062 -0.5368  0.1469
 9055TIP3    H148580   6.603   2.201  16.728 -4.1278 -0.3191 -0.5267
 9055TIP3    H248581   6.609   2.345  16.681 -4.6463 -0.5185 -1.2362
 9056TIP3   OH248582   5.091   2.433  11.718  0.1020  0.0305  0.1145
 9056TIP3    H148583   5.107   2.396  11.805  1.7646  0.7713  0.1523
 9056TIP3    H248584   5.174   2.423  11.672 -0.6857 -0.1180 -1.3237
 9057TIP3   OH248585   4.160   3.401  16.369 -0.2255 -0.1013 -0.1182
 9057TIP3    H148586   4.124   3.415  16.457  1.6074  1.0221  0.5120
 9057TIP3    H248587   4.097   3.343  16.326 -1.9388  0.5307  1.4110
 9058TIP3   OH248588   3.241   4.008   2.666 -0.3883 -0.3236 -0.2630
 9058TIP3    H148589   3.268   4.079   2.723 -0.5237 -1.5717  1.4295
 9058TIP3    H248590   3.145   4.009   2.669 -0.5096  1.0987 -2.4497
 9059TIP3   OH248591   6.599   0.414  13.045 -0.7886  0.4305 -0.1106
 9059TIP3    H148592   6.671   0.354  13.024 -0.6925  0.2314  0.7527
 9059TIP3    H248593   6.541   0.408  12.969  0.3997  1.0713 -1.1081
 9060TIP3   OH248594   4.377   2.906   4.045 -0.5710  0.7082 -0.5039
 9060TIP3    H148595   4.377   2.873   4.135  0.5579  1.0541 -0.3698
 9060TIP3    H248596   4.335   2.836   3.994  0.9523 -0.5623 -0.0918
 9061TIP3   OH248597   5.732   5.676   2.931  0.6717  1.0111 -0.1088
 9061TIP3    H148598   5.657   5.638   2.886 -0.3270  0.7083  1.7065
 9061TIP3    H248599   5.792   5.701   2.861 -0.9623  0.9570 -1.5998
 9062TIP3   OH248600   1.614   1.633  13.475  0.4963 -0.3851 -0.5282
 9062TIP3    H148601   1.675   1.645  13.547 -0.3858 -1.9083  0.5333
 9062TIP3    H248602   1.528   1.651  13.513  0.0769 -0.5962 -1.3573
 9063TIP3   OH248603   2.675   5.385  16.002 -0.0127  0.1920  0.7530
 9063TIP3    H148604   2.720   5.440  15.938  0.1627  0.2937  0.9665
 9063TIP3    H248605   2.670   5.299  15.960  1.4180 -0.1298  1.2037
 9064TIP3   OH248606   0.838   0.443  14.998 -0.1274  0.1536  0.0569
 9064TIP3    H148607   0.812   0.519  15.051  2.2284  0.2036  1.2742
 9064TIP3    H248608   0.891   0.481  14.927 -1.6078 -0.1063 -1.2349
 9065TIP3   OH248609   4.102   4.766  11.302 -0.2079 -0.0527  0.2703
 9065TIP3    H148610   4.054   4.781  11.384  0.2406 -0.3976  0.6033
 9065TIP3    H248611   4.034   4.745  11.238 -0.6979  1.5629  0.2140
 9066TIP3   OH248612   5.405   5.892  10.917  0.1780 -0.1887 -0.3358
 9066TIP3    H148613   5.470   5.946  10.872 -0.4813 -1.3081 -2.8285
 9066TIP3    H248614   5.441   5.803  10.913 -0.5812 -0.5199  0.0594
 9067TIP3   OH248615   3.108   4.195   5.802 -0.6993 -0.2904  0.4695
 9067TIP3    H148616   3.075   4.285   5.800  1.7272  0.6971 -1.7493
 9067TIP3    H248617   3.049   4.147   5.744  0.5137  1.0367 -2.0488
 9068TIP3   OH248618   2.420   1.976   6.012 -0.0363  0.3480 -0.7701
 9068TIP3    H148619   2.374   1.896   6.037  1.0033 -0.0445 -0.0470
 9068TIP3    H248620   2.387   2.042   6.073  1.7015 -0.3645  1.0304
 9069TIP3   OH248621   5.049   1.451  12.025  0.1014 -0.4283  0.3273
 9069TIP3    H148622   4.983   1.439  12.093  0.7861  1.6312  1.4202
 9069TIP3    H248623   5.100   1.526  12.054  1.7541 -0.8023 -1.4308
 9070TIP3   OH248624   5.249   6.071  12.429 -0.3615  0.2318  0.3507
 9070TIP3    H148625   5.210   6.071  12.342  1.6666 -0.6755 -0.6411
 9070TIP3    H248626   5.177   6.051  12.489 -1.3897 -1.4755 -1.3621
 9071TIP3   OH248627   1.714   1.120  13.548  0.0637  0.2600  0.2992
 9071TIP3    H148628   1.622   1.093  13.547  0.5621 -1.5518 -0.6720
 9071TIP3    H248629   1.724   1.176  13.471 -0.1050  0.0249  0.1069
 9072TIP3   OH248630   1.733   0.895   2.547 -0.0938  0.2708  0.2539
 9072TIP3    H148631   1.795   0.857   2.609  0.1457 -0.1274 -0.2249
 9072TIP3    H248632   1.787   0.923   2.473 -0.3133  1.2078  0.4352
 9073TIP3   OH248633   1.457   0.977   3.988  0.1483 -0.0502  0.3407
 9073TIP3    H148634   1.527   0.999   4.050 -0.6713  0.2152  1.2027
 9073TIP3    H248635   1.394   0.926   4.040 -1.0100  0.9679 -0.0101
 9074TIP3   OH248636   4.776   3.796   2.667 -0.4056  0.3743 -0.3753
 9074TIP3    H148637   4.714   3.859   2.632  0.4827  0.9041 -1.0530
 9074TIP3    H248638   4.731   3.754   2.740 -0.6180  2.6087  0.8315
 9075TIP3   OH248639   3.799   4.830   0.808 -0.0973 -0.3932  0.1156
 9075TIP3    H148640   3.748   4.910   0.815 -1.4902 -1.2478  0.1327
 9075TIP3    H248641   3.881   4.849   0.853 -0.2119  1.1549 -0.2786
 9076TIP3   OH248642   2.730   6.037   5.069  0.3464  0.0364 -0.7374
 9076TIP3    H148643   2.784   6.112   5.096  1.2252 -0.1131 -2.0012
 9076TIP3    H248644   2.642   6.073   5.061  0.5285  0.6439 -0.1294
 9077TIP3   OH248645   5.297   2.788  15.646 -0.2824  0.9088 -0.3870
 9077TIP3    H148646   5.349   2.825  15.717 -1.6497  2.1132  0.0304
 9077TIP3    H248647   5.211   2.772  15.684 -0.1245 -1.5751 -0.9144
 9078TIP3   OH248648   6.370   4.607  12.672  0.0382 -0.1450 -0.0544
 9078TIP3    H148649   6.433   4.602  12.744 -0.3831 -1.0452  0.2650
 9078TIP3    H248650   6.316   4.529  12.682 -0.9140  0.4378 -0.5233
 9079TIP3   OH248651   1.758   1.024  15.121 -0.3242 -0.3400 -0.8906
 9079TIP3    H148652   1.828   0.967  15.154 -0.5500 -0.1344 -0.0419
 9079TIP3    H248653   1.679   0.969  15.124 -0.4990 -0.0587 -0.2903
 9080TIP3   OH248654   4.032   5.869   1.399  0.5484  0.2380 -0.5994
 9080TIP3    H148655   3.982   5.847   1.320 -0.9014  0.9600  0.0931
 9080TIP3    H248656   3.979   5.837   1.472  0.7212  1.6918  0.1923
 9081TIP3   OH248657   4.436   3.070   4.904  0.5961  0.3788 -0.1366
 9081TIP3    H148658   4.367   3.137   4.896 -0.4929 -0.9234 -3.2941
 9081TIP3    H248659   4.403   3.009   4.970  0.3778  1.5507  0.8660
 9082TIP3   OH248660   0.436   4.747   2.893 -0.6358 -0.2110 -0.3928
 9082TIP3    H148661   0.373   4.818   2.897  0.2022  0.7334 -2.4473
 9082TIP3    H248662   0.407   4.693   2.819 -0.7088 -1.4925  0.5289
 9083TIP3   OH248663   3.693   0.491   5.429  0.4264 -0.4500 -0.3209
 9083TIP3    H148664   3.771   0.441   5.406  0.1079  0.0874 -3.0050
 9083TIP3    H248665   3.626   0.425   5.448 -0.0856 -1.2775 -4.1280
 9084TIP3   OH248666   2.669   5.609   5.247  0.6433 -0.0613 -0.8622
 9084TIP3    H148667   2.758   5.641   5.262 -0.0770  0.9179  1.7138
 9084TIP3    H248668   2.613   5.686   5.257 -0.6506 -1.0083 -0.5737
 9085TIP3   OH248669   0.275   3.707  11.671 -0.1525 -0.0484 -0.2488
 9085TIP3    H148670   0.326   3.635  11.632  0.3265  0.5481 -0.7412
 9085TIP3    H248671   0.334   3.782  11.669 -0.8580  0.5191 -0.3119
 9086TIP3   OH248672   0.656   3.779  13.592 -0.2394 -0.1959 -0.0332
 9086TIP3    H148673   0.581   3.731  13.625 -0.5515  0.2449 -0.0849
 9086TIP3    H248674   0.639   3.790  13.498  1.3000 -2.6484 -0.6832
 9087TIP3   OH248675   3.684   4.118  16.665  0.0378 -0.1749  0.1982
 9087TIP3    H148676   3.744   4.189  16.643  1.6816 -1.2293  0.9992
 9087TIP3    H248677   3.684   4.062  16.587 -0.0211 -0.0948  0.1408
 9088TIP3   OH248678   5.311   1.531   3.931  0.2107 -0.0518 -0.3559
 9088TIP3    H148679   5.317   1.617   3.889 -1.2858 -0.2846 -1.0955
 9088TIP3    H248680   5.356   1.543   4.015  1.2696  1.0515 -1.0508
 9089TIP3   OH248681   0.157   5.273  16.237 -0.0348  0.3068  0.4393
 9089TIP3    H148682   0.093   5.244  16.171 -0.6269 -0.8757  1.4962
 9089TIP3    H248683   0.219   5.200  16.243 -0.4136  0.0635  1.7091
 9090TIP3   OH248684   1.284   3.511   5.493  0.1744  0.1293 -0.2483
 9090TIP3    H148685   1.375   3.505   5.465  0.4360  1.9452  0.0597
 9090TIP3    H248686   1.288   3.502   5.589 -0.1525 -1.1182 -0.3286
 9091TIP3   OH248687   5.532   0.473   4.185 -0.4089  0.0715 -0.6920
 9091TIP3    H148688   5.506   0.415   4.258 -0.1807 -0.5983 -1.1384
 9091TIP3    H248689   5.532   0.416   4.108 -1.4144  0.9424 -1.3665
 9092TIP3   OH248690   3.021   2.716  12.930 -0.2817 -0.4098 -0.0518
 9092TIP3    H148691   3.047   2.627  12.950  0.9751 -0.0594 -0.0724
 9092TIP3    H248692   3.103   2.762  12.912 -0.7346  1.1741  1.6733
 9093TIP3   OH248693   3.088   4.527  15.047  0.0015 -0.5034  0.4837
 9093TIP3    H148694   3.077   4.616  15.082  0.1498  0.0851 -0.9137
 9093TIP3    H248695   3.036   4.526  14.967  0.2162 -1.5973  0.3474
 9094TIP3   OH248696   2.494   4.362   4.641 -0.3996  0.8485  0.5024
 9094TIP3    H148697   2.452   4.298   4.583 -0.7289  1.9245 -0.4838
 9094TIP3    H248698   2.573   4.389   4.593  0.8491 -0.2823  1.8136
 9095TIP3   OH248699   4.804   1.389  12.502 -0.2365 -0.0541 -0.3684
 9095TIP3    H148700   4.889   1.421  12.530  0.4365  0.8629 -3.1382
 9095TIP3    H248701   4.746   1.465  12.508 -0.1439  0.0866 -1.1510
 9096TIP3   OH248702   5.122   2.846  13.724  0.3074  0.2449 -0.1546
 9096TIP3    H148703   5.139   2.921  13.667  1.4328  0.2504  0.1659
 9096TIP3    H248704   5.204   2.797  13.725  0.5232  0.5445  1.8924
 9097TIP3   OH248705   6.567   3.418   5.289  0.8271 -0.3015  0.3561
 9097TIP3    H148706   6.571   3.394   5.382 -0.4757  1.6831  0.9596
 9097TIP3    H248707   6.503   3.357   5.252  0.9102 -0.7156  0.8666
 9098TIP3   OH248708   1.589   6.120  12.046  0.0058 -0.5556 -0.2034
 9098TIP3    H148709   1.547   6.043  12.007 -0.1540  0.4920 -2.2215
 9098TIP3    H248710   1.625   6.168  11.971 -2.2364  2.7489  0.6318
 9099TIP3   OH248711   1.847   3.483   1.048 -0.1713  0.7731 -0.3993
 9099TIP3    H148712   1.896   3.444   0.976  1.4997  3.0437 -0.5951
 9099TIP3    H248713   1.790   3.548   1.006  0.3132  1.6259  0.2217
 9100TIP3   OH248714   0.866   2.718  15.450  0.0842  0.2507  0.2832
 9100TIP3    H148715   0.961   2.728  15.453  0.0295  0.7134  0.7153
 9100TIP3    H248716   0.850   2.662  15.375  0.7900 -0.9767  1.0116
 9101TIP3   OH248717   0.999   4.370   1.002  0.1157 -0.5476  0.2727
 9101TIP3    H148718   0.972   4.455   1.038  1.0156 -0.6745  1.3036
 9101TIP3    H248719   0.994   4.381   0.907 -0.1756  0.5268  0.4009
 9102TIP3   OH248720   5.779   3.224  12.747 -0.1230 -0.0201  0.0823
 9102TIP3    H148721   5.702   3.249  12.697 -0.2494 -0.0332  0.2708
 9102TIP3    H248722   5.745   3.200  12.833 -0.1482 -1.9175 -0.4029
 9103TIP3   OH248723   3.726   0.577   4.409 -0.4566 -0.0711 -0.0942
 9103TIP3    H148724   3.686   0.490   4.403  0.0225 -0.3282  0.3954
 9103TIP3    H248725   3.761   0.594   4.322 -0.3534 -0.4617 -0.1273
 9104TIP3   OH248726   3.163   5.749  16.865  0.4833  0.3922  0.2572
 9104TIP3    H148727   3.229   5.727  16.800 -1.1330 -0.4798 -1.1799
 9104TIP3    H248728   3.088   5.781  16.814 -1.0232 -0.7865  1.6125
 9105TIP3   OH248729   0.730   3.536   2.895 -0.5218 -0.5952 -0.2431
 9105TIP3    H148730   0.812   3.537   2.846  0.8948  0.9897  1.9592
 9105TIP3    H248731   0.706   3.628   2.904 -0.2044 -0.6946  2.6690
 9106TIP3   OH248732   2.918   3.632  15.577  0.7032  0.3521  0.3867
 9106TIP3    H148733   2.963   3.571  15.635 -0.0042 -0.2398  0.3321
 9106TIP3    H248734   2.935   3.598  15.489 -1.8762 -1.3514  0.4692
 9107TIP3   OH248735   3.770   6.616  15.247 -0.5868  0.1712  0.4879
 9107TIP3    H148736   3.691   6.642  15.295 -0.5457 -0.7778  1.0895
 9107TIP3    H248737   3.842   6.636  15.306 -0.6142 -2.2175  1.4212
 9108TIP3   OH248738   2.744   2.593   3.968  0.2886 -0.5587 -0.1489
 9108TIP3    H148739   2.784   2.632   3.890  2.6625 -2.8029 -0.1937
 9108TIP3    H248740   2.792   2.633   4.041 -0.9927  0.5160  0.1487
 9109TIP3   OH248741   2.885   1.782   2.975 -0.1442  0.0305 -0.2300
 9109TIP3    H148742   2.935   1.822   2.904  0.1573  0.1412  0.0417
 9109TIP3    H248743   2.916   1.691   2.978 -0.8224 -0.2282 -0.8414
 9110TIP3   OH248744   6.605   0.608   3.737  0.0386 -0.4206  0.4180
 9110TIP3    H148745   6.512   0.586   3.746 -0.0950 -0.1703 -0.3255
 9110TIP3    H248746   6.616   0.687   3.790 -0.1459 -0.5228  0.6099
 9111TIP3   OH248747   1.381   3.528   3.515 -0.1144  0.2051 -0.2011
 9111TIP3    H148748   1.466   3.485   3.506 -0.1673  0.2988 -1.1979
 9111TIP3    H248749   1.319   3.469   3.471 -0.2671  1.0416 -1.1304
 9112TIP3   OH248750   2.313   0.953   3.716  0.5299 -0.3801  0.2357
 9112TIP3    H148751   2.337   0.910   3.634  0.3372 -1.7992  0.8994
 9112TIP3    H248752   2.218   0.944   3.721  0.4780  0.1919  0.3679
 9113TIP3   OH248753   4.898   5.318  16.423 -0.4401 -0.4942  0.2471
 9113TIP3    H148754   4.854   5.237  16.446  0.6262 -0.4616  2.6103
 9113TIP3    H248755   4.843   5.387  16.461 -0.9028 -0.1239 -1.0335
 9114TIP3   OH248756   5.174   0.059  11.957  0.3999  0.4469 -0.2142
 9114TIP3    H148757   5.149  -0.027  11.991  2.8761  0.0552  0.7965
 9114TIP3    H248758   5.212   0.041  11.871 -1.7583  0.9484 -1.3620
 9115TIP3   OH248759   5.525   3.776  12.994 -0.2395  1.0928  0.0309
 9115TIP3    H148760   5.541   3.856  12.944 -0.1644  1.8491  1.2379
 9115TIP3    H248761   5.487   3.806  13.076  1.4575  0.0332  1.2656
 9116TIP3   OH248762   3.533   5.670  14.190  0.2859 -0.1441  0.3995
 9116TIP3    H148763   3.439   5.659  14.178  0.6548 -1.1434 -2.0817
 9116TIP3    H248764   3.547   5.765  14.181 -0.5466  0.1635  1.8733
 9117TIP3   OH248765   2.254   1.360  15.271 -0.2944  0.3613  0.0177
 9117TIP3    H148766   2.322   1.410  15.227  0.3822 -1.1251 -0.7107
 9117TIP3    H248767   2.297   1.279  15.298 -2.2454 -1.7389 -2.6291
 9118TIP3   OH248768   2.285   4.102   2.788 -0.1376  0.1885  0.0654
 9118TIP3    H148769   2.358   4.040   2.787 -0.4380 -0.1625 -0.0709
 9118TIP3    H248770   2.225   4.069   2.721 -0.6156  0.2504  0.4649
 9119TIP3   OH248771   6.433   2.796  14.348  0.9415  0.0100 -0.0114
 9119TIP3    H148772   6.436   2.743  14.428 -0.5782 -0.7001 -0.4016
 9119TIP3    H248773   6.358   2.763  14.299  1.8080  0.4555 -1.7372
 9120TIP3   OH248774   6.526   6.070  16.073  0.0813 -0.4099  0.0233
 9120TIP3    H148775   6.548   6.163  16.076  0.2598 -0.4752  2.0750
 9120TIP3    H248776   6.436   6.068  16.041 -1.0062  0.7587  2.6612
 9121TIP3   OH248777   2.514   3.878  15.863 -0.0453 -0.2002  0.7947
 9121TIP3    H148778   2.487   3.970  15.868 -0.7404 -0.4121  1.0186
 9121TIP3    H248779   2.432   3.829  15.856  0.3629 -0.7454 -0.3051
 9122TIP3   OH248780   2.316   4.321  10.788 -0.2375 -0.8205  0.4360
 9122TIP3    H148781   2.294   4.361  10.872 -0.4718  0.0970 -0.0526
 9122TIP3    H248782   2.336   4.395  10.730 -1.4024 -1.3489 -0.7060
 9123TIP3   OH248783   4.552   3.365   0.736  0.0647  0.0729 -0.2993
 9123TIP3    H148784   4.498   3.293   0.702 -0.2195 -0.4609  1.2144
 9123TIP3    H248785   4.602   3.326   0.807  1.6493  0.8412 -0.9417
 9124TIP3   OH248786   3.452   1.711   0.078 -0.2770  0.0472  0.4194
 9124TIP3    H148787   3.410   1.633   0.043  1.0845 -0.0115 -1.2213
 9124TIP3    H248788   3.387   1.749   0.137 -1.0486 -2.1731  1.0743
 9125TIP3   OH248789   4.473   1.964   2.904  0.2766  0.2882 -0.3898
 9125TIP3    H148790   4.439   1.913   2.830  0.4784  0.7192 -0.7822
 9125TIP3    H248791   4.409   1.949   2.974  1.4747 -2.3536  0.2785
 9126TIP3   OH248792   3.448   2.749   1.265 -0.7239  0.3079  0.5815
 9126TIP3    H148793   3.461   2.708   1.180 -0.9906 -0.1440  0.7549
 9126TIP3    H248794   3.481   2.838   1.255 -0.1219  0.0416  0.2054
 9127TIP3   OH248795   1.950   3.119  11.425 -0.5147 -0.1014  0.6594
 9127TIP3    H148796   2.004   3.198  11.435 -0.2597 -0.3021  0.8527
 9127TIP3    H248797   1.889   3.142  11.354  1.2488 -0.6461 -1.1155
 9128TIP3   OH248798   3.516   1.233   2.563  0.3864  0.2389  0.2395
 9128TIP3    H148799   3.422   1.249   2.549  0.1642  0.1534  1.5340
 9128TIP3    H248800   3.534   1.268   2.650  2.0970  2.3395 -0.8638
 9129TIP3   OH248801   0.724   0.688  15.577  0.3305 -0.2004 -0.6350
 9129TIP3    H148802   0.676   0.688  15.494 -0.9730 -0.6610  0.0890
 9129TIP3    H248803   0.680   0.623  15.630  0.8108  0.4651  0.6231
 9130TIP3   OH248804   0.120   4.386   1.521 -0.1904  0.1713  0.1439
 9130TIP3    H148805   0.195   4.429   1.563 -1.5079  0.5281  2.2801
 9130TIP3    H248806   0.143   4.294   1.520  0.8294  0.4123 -0.4840
 9131TIP3   OH248807   1.964   0.128  12.491 -0.4074  0.0252 -0.3911
 9131TIP3    H148808   2.055   0.158  12.496 -0.8115  1.1704  0.7266
 9131TIP3    H248809   1.913   0.200  12.528 -1.6980 -0.9638 -0.1722
 9132TIP3   OH248810   1.067   5.280  12.019  0.3116  0.0400 -0.1070
 9132TIP3    H148811   1.083   5.330  11.938  2.3582 -0.3031  0.0574
 9132TIP3    H248812   1.024   5.200  11.989  2.0114 -0.5788 -1.0325
 9133TIP3   OH248813   1.513   1.269  14.366  0.3869 -0.1032 -0.0666
 9133TIP3    H148814   1.472   1.291  14.283  0.2560 -0.4425 -0.0950
 9133TIP3    H248815   1.516   1.351  14.415  0.9748  0.2139 -0.6253
 9134TIP3   OH248816   3.064   6.099   2.026 -0.0676  0.3077  0.4442
 9134TIP3    H148817   3.016   6.181   2.039 -0.3115  0.1077  0.8185
 9134TIP3    H248818   3.114   6.114   1.946 -1.1278  0.3451 -0.2400
 9135TIP3   OH248819   1.630   1.574   4.330 -0.5497 -0.4634 -0.2971
 9135TIP3    H148820   1.547   1.531   4.351 -1.0816 -0.2875 -1.9291
 9135TIP3    H248821   1.697   1.518   4.371 -1.4722 -0.1279  1.7947
 9136TIP3   OH248822   1.509   0.714  11.459 -0.6019  0.1870  0.1765
 9136TIP3    H148823   1.443   0.671  11.404  1.6977 -2.0900 -1.0457
 9136TIP3    H248824   1.471   0.713  11.547 -2.1027 -1.2620 -0.4251
 9137TIP3   OH248825   3.785   4.671  12.053  0.0446  0.0734  0.5647
 9137TIP3    H148826   3.881   4.670  12.052  0.0396 -0.3029  0.5558
 9137TIP3    H248827   3.760   4.669  11.961  0.0247 -0.2298  0.5744
 9138TIP3   OH248828   4.447   3.456   4.171 -0.3662 -0.1361 -0.1650
 9138TIP3    H148829   4.419   3.369   4.199  2.9912 -0.7766  1.7184
 9138TIP3    H248830   4.456   3.506   4.252 -1.4376  1.8048 -1.1459
 9139TIP3   OH248831   1.455   3.366   4.715 -0.1916  0.1490 -0.4702
 9139TIP3    H148832   1.504   3.337   4.638 -0.8753 -2.2772 -0.0777
 9139TIP3    H248833   1.381   3.305   4.720 -0.3574  0.4785  1.8949
 9140TIP3   OH248834   2.259   0.899   0.620 -0.0213  0.3124 -0.4066
 9140TIP3    H148835   2.176   0.937   0.589  0.7333  0.7494 -2.0309
 9140TIP3    H248836   2.233   0.822   0.669 -1.4660  1.2737  0.4249
 9141TIP3   OH248837   1.597   0.080  12.500 -0.1135  0.0150  0.3548
 9141TIP3    H148838   1.677   0.029  12.487  0.3230  0.4189  1.4101
 9141TIP3    H248839   1.531   0.015  12.525  0.3972 -0.0676  1.5216
 9142TIP3   OH248840   2.742   3.922  17.207 -0.4946 -0.2377 -0.1899
 9142TIP3    H148841   2.713   3.958  17.123 -0.8397 -0.6756 -0.2590
 9142TIP3    H248842   2.829   3.887  17.189 -0.0379  0.7992 -0.0562
 9143TIP3   OH248843   1.272   6.153   4.537  0.0216 -0.1227 -0.6519
 9143TIP3    H148844   1.276   6.058   4.527 -0.5445 -0.0224 -1.9606
 9143TIP3    H248845   1.218   6.167   4.615  0.3772 -0.8627 -0.2627
 9144TIP3   OH248846   1.319   2.743   4.947 -0.4420 -0.0914 -0.3482
 9144TIP3    H148847   1.264   2.789   4.882 -3.0788 -1.1126  1.0151
 9144TIP3    H248848   1.260   2.680   4.987  0.8099  0.9909  3.6045
 9145TIP3   OH248849   5.847   3.564   0.687  0.4513  0.1369  0.3591
 9145TIP3    H148850   5.901   3.628   0.642 -1.4650  0.7883 -1.1477
 9145TIP3    H248851   5.864   3.481   0.642  0.6198  0.2087  0.2906
 9146TIP3   OH248852   5.079   3.585  14.078  0.5754 -0.0432 -0.2647
 9146TIP3    H148853   5.167   3.612  14.103  0.5711 -0.7664  0.5942
 9146TIP3    H248854   5.043   3.660  14.032  0.5598  1.4442  2.0148
 9147TIP3   OH248855   5.099   3.999  14.482  0.0904 -0.5146  0.1078
 9147TIP3    H148856   5.136   3.915  14.456  0.5372 -1.0785  2.3336
 9147TIP3    H248857   5.021   4.010  14.427  0.8625 -1.6437 -1.2547
 9148TIP3   OH248858   5.283   4.141  12.977 -0.4083 -0.6056 -0.3495
 9148TIP3    H148859   5.334   4.206  13.025 -0.8064 -1.0210  0.6646
 9148TIP3    H248860   5.197   4.143  13.018 -0.8096 -0.8501 -1.1682
 9149TIP3   OH248861   2.095   2.834  11.071  0.1727 -0.4078  0.4294
 9149TIP3    H148862   2.025   2.780  11.034 -0.6144  0.0795  1.1700
 9149TIP3    H248863   2.084   2.826  11.165  1.6629 -1.0083  0.5786
 9150TIP3   OH248864   4.374   3.120  12.670 -0.0772 -0.2437 -0.4199
 9150TIP3    H148865   4.279   3.120  12.656 -0.0540  0.0161 -0.5820
 9150TIP3    H248866   4.386   3.070  12.751 -0.3432 -0.3674 -0.4547
 9151TIP3   OH248867   5.465   5.402  17.183 -0.7095  0.2852  0.4061
 9151TIP3    H148868   5.534   5.346  17.147 -0.2418 -0.6122  2.5942
 9151TIP3    H248869   5.432   5.450  17.107  3.8259  2.4726 -0.5167
 9152TIP3   OH248870   2.467   4.399  14.183 -0.3981  0.0201 -0.3531
 9152TIP3    H148871   2.481   4.483  14.139 -0.6137 -0.4315 -1.2978
 9152TIP3    H248872   2.373   4.395  14.199 -0.0683  1.4081  2.6966
 9153TIP3   OH248873   1.590   4.017  17.369 -0.5700 -0.1890  0.4801
 9153TIP3    H148874   1.607   4.029  17.463  0.3892  0.0522  0.2885
 9153TIP3    H248875   1.676   4.029  17.328 -1.1622  0.7104 -0.5213
 9154TIP3   OH248876   1.660   6.471  12.366 -0.1738  0.4598  0.0749
 9154TIP3    H148877   1.669   6.478  12.271  1.4954 -2.0813 -0.0533
 9154TIP3    H248878   1.677   6.560  12.398  1.8016  0.8746 -1.8851
 9155TIP3   OH248879   3.343   6.516   4.193  0.1245  0.3542  0.4539
 9155TIP3    H148880   3.337   6.425   4.165  1.5070  0.2788  0.3312
 9155TIP3    H248881   3.426   6.522   4.240  1.0608  1.9526 -1.2319
 9156TIP3   OH248882   5.825   5.029  13.792  0.2761  0.1883  0.2955
 9156TIP3    H148883   5.832   5.104  13.733 -0.1061 -0.1661 -0.2155
 9156TIP3    H248884   5.731   5.021  13.810  0.0067 -1.4944 -1.4595
 9157TIP3   OH248885   6.307   6.107   0.875 -0.4068 -0.4278 -0.2227
 9157TIP3    H148886   6.360   6.062   0.940  1.0015 -0.5936 -1.4418
 9157TIP3    H248887   6.304   6.198   0.904 -2.1984 -0.9894  1.5699
 9158TIP3   OH248888   0.739   3.575  11.482 -0.6318  0.4715 -0.0472
 9158TIP3    H148889   0.774   3.558  11.394 -0.1998  0.3244  0.1498
 9158TIP3    H248890   0.742   3.490  11.525 -0.0844  0.7004  0.3739
 9159TIP3   OH248891   1.740   4.730   5.798  0.3723 -0.2367 -0.2605
 9159TIP3    H148892   1.714   4.646   5.836  0.9483 -0.5758 -0.6069
 9159TIP3    H248893   1.710   4.725   5.707  0.2665  0.0039 -0.2414
 9160TIP3   OH248894   4.842   4.804  11.619 -0.0969 -0.3632 -0.0678
 9160TIP3    H148895   4.850   4.846  11.534  1.8687 -1.6989 -0.5937
 9160TIP3    H248896   4.834   4.877  11.681 -1.4017  0.6223 -1.3185
 9161TIP3   OH248897   5.041   1.566  13.478 -0.3104  0.0194 -0.0016
 9161TIP3    H148898   4.984   1.556  13.403  0.3333  2.0244 -0.8393
 9161TIP3    H248899   5.103   1.494  13.471  0.2723  0.6475 -1.9339
 9162TIP3   OH248900   1.884   6.215  12.173 -0.5992 -0.8342  0.0428
 9162TIP3    H148901   1.911   6.301  12.141  1.7337 -1.3871  0.3368
 9162TIP3    H248902   1.902   6.155  12.101  1.1756 -1.5437  1.0020
 9163TIP3   OH248903   0.158   1.636   5.553 -0.3940 -0.4704 -0.1421
 9163TIP3    H148904   0.076   1.686   5.548  0.0639  0.2942 -0.2100
 9163TIP3    H248905   0.133   1.552   5.591 -1.0316  0.1592  0.8648
 9164TIP3   OH248906   1.613   4.782  11.053  0.1157 -0.3973 -0.2853
 9164TIP3    H148907   1.612   4.771  10.958 -1.0432 -0.4649 -0.2842
 9164TIP3    H248908   1.523   4.808  11.075  0.6972  0.9713  0.6398
 9165TIP3   OH248909   1.822   0.071  10.750 -0.4145 -0.4213 -0.3425
 9165TIP3    H148910   1.728   0.067  10.729 -0.0032 -0.9861 -2.3270
 9165TIP3    H248911   1.863   0.099  10.668  1.0021  1.7786  1.0330
 9166TIP3   OH248912   3.101   5.797   5.540 -0.3379 -0.7705  0.5096
 9166TIP3    H148913   3.125   5.796   5.632  1.7850 -0.8937 -0.0006
 9166TIP3    H248914   3.138   5.716   5.504  0.9243  0.3618 -0.8931
 9167TIP3   OH248915   1.639   3.210  13.286 -0.6016 -0.4965 -0.4419
 9167TIP3    H148916   1.554   3.251  13.276 -1.1533 -0.5731  2.9273
 9167TIP3    H248917   1.634   3.131  13.231 -3.0837 -0.9974  0.3880
 9168TIP3   OH248918   3.999   4.964  12.898  0.4401  0.1838  0.4102
 9168TIP3    H148919   3.970   5.013  12.976  0.8308 -0.0044  0.6748
 9168TIP3    H248920   3.999   5.030  12.828 -0.0294  0.3280  0.5386
 9169TIP3   OH248921   3.924   1.594   2.655  0.7539 -0.4553  0.2785
 9169TIP3    H148922   3.832   1.570   2.665  0.2640  1.4366  0.9027
 9169TIP3    H248923   3.927   1.640   2.571  1.1726 -0.6987  0.1619
 9170TIP3   OH248924   1.647   3.866  12.230 -0.2001 -0.1751  0.0919
 9170TIP3    H148925   1.717   3.923  12.263 -0.7050 -0.1546  1.1669
 9170TIP3    H248926   1.595   3.923  12.173 -0.4350  0.3332  0.7939
 9171TIP3   OH248927   6.398   2.163  12.961  0.9679 -0.4031 -0.0729
 9171TIP3    H148928   6.383   2.145  12.868  2.3831  1.9367 -0.8552
 9171TIP3    H248929   6.474   2.221  12.962  0.2002  0.6994  2.4530
 9172TIP3   OH248930   4.014   0.300   1.539  0.6886  0.3587  0.4630
 9172TIP3    H148931   4.071   0.353   1.484  1.0722  0.2734  0.7700
 9172TIP3    H248932   4.072   0.267   1.608  0.5121 -0.6276  0.1567
 9173TIP3   OH248933   3.667   1.042   4.898  0.2691  0.0877 -0.0996
 9173TIP3    H148934   3.738   0.999   4.851  0.8345 -0.8730  1.5648
 9173TIP3    H248935   3.700   1.131   4.914  0.5752  0.0283 -0.3882
 9174TIP3   OH248936   0.482   5.999   3.892 -0.1821  0.3167 -0.0473
 9174TIP3    H148937   0.396   6.036   3.909 -1.3903 -2.0488 -0.6841
 9174TIP3    H248938   0.533   6.018   3.971 -1.2772  1.6945  0.3533
 9175TIP3   OH248939   0.628   2.381   1.434 -0.0152  0.4372 -0.3347
 9175TIP3    H148940   0.560   2.368   1.368 -1.8431 -0.0386  1.5293
 9175TIP3    H248941   0.590   2.345   1.514  2.1391  0.9201  0.9753
 9176TIP3   OH248942   5.881   2.481   1.748 -0.1491 -0.2840  0.1508
 9176TIP3    H148943   5.896   2.417   1.818 -1.4738 -0.0464  0.6793
 9176TIP3    H248944   5.963   2.529   1.741  0.3980 -1.1145  0.7083
 9177TIP3   OH248945   6.280   1.469  13.973  0.1294  0.1157 -1.0622
 9177TIP3    H148946   6.267   1.374  13.976 -0.4097  0.2083 -0.3637
 9177TIP3    H248947   6.230   1.498  13.897  0.3566 -0.1627 -1.3214
 9178TIP3   OH248948   2.636   5.712  16.851 -0.0443  0.1049 -0.1139
 9178TIP3    H148949   2.544   5.685  16.840  0.3939 -2.4132  1.5513
 9178TIP3    H248950   2.663   5.670  16.933  2.6755  0.5936 -0.6799
 9179TIP3   OH248951   2.567   3.908   4.408  0.3503  0.0706 -0.7214
 9179TIP3    H148952   2.483   3.864   4.398 -0.0136 -0.6557  3.4138
 9179TIP3    H248953   2.632   3.844   4.377 -0.4683 -1.1514  0.0042
 9180TIP3   OH248954   2.657   2.375  15.410  0.4748 -0.2141  0.2538
 9180TIP3    H148955   2.716   2.381  15.334  1.2182 -1.3890  0.7271
 9180TIP3    H248956   2.632   2.283  15.414 -2.3719  0.4189 -0.6239
 9181TIP3   OH248957   5.847   1.674   1.617 -0.2637 -0.6186  0.1887
 9181TIP3    H148958   5.873   1.624   1.695  0.3631 -1.3604 -0.4788
 9181TIP3    H248959   5.869   1.617   1.544  0.4344  0.6283 -0.6076
 9182TIP3   OH248960   3.659   4.729   5.614 -0.3603 -0.0999  0.5573
 9182TIP3    H148961   3.571   4.699   5.638 -0.0320 -0.5999  1.1599
 9182TIP3    H248962   3.662   4.720   5.519  0.4508 -4.1454  0.7849
 9183TIP3   OH248963   2.073   0.549  16.085 -0.5781  0.1802  0.1737
 9183TIP3    H148964   2.063   0.607  16.010  0.5012 -2.1294 -1.8842
 9183TIP3    H248965   1.985   0.517  16.103 -0.5808 -1.0466 -1.7225
 9184TIP3   OH248966   2.947   0.781   4.360 -0.2927 -0.3245 -0.4736
 9184TIP3    H148967   2.911   0.853   4.307  0.2062 -0.0993 -0.5149
 9184TIP3    H248968   3.031   0.761   4.319  0.5048  0.4331  0.7146
 9185TIP3   OH248969   3.203   3.749   2.353 -0.5569  0.0077 -0.0118
 9185TIP3    H148970   3.230   3.740   2.261  0.0051 -1.1548  0.2563
 9185TIP3    H248971   3.108   3.732   2.352 -0.4471 -0.6225 -0.2977
 9186TIP3   OH248972   0.902   5.714  16.438 -0.2469  0.3821 -0.3952
 9186TIP3    H148973   0.865   5.720  16.526  1.2089  2.6868  0.1584
 9186TIP3    H248974   0.912   5.620  16.421  0.0747 -0.1117  2.1947
 9187TIP3   OH248975   5.751   0.078   5.873  0.3597  0.6408  0.1401
 9187TIP3    H148976   5.755   0.168   5.906 -1.4809  1.7894 -2.4637
 9187TIP3    H248977   5.658   0.061   5.860  0.8135 -0.7949 -1.5712
 9188TIP3   OH248978   4.066   6.165  17.000 -0.2615 -0.0696  0.4332
 9188TIP3    H148979   3.999   6.099  17.013 -0.0094 -0.3507  0.3115
 9188TIP3    H248980   4.076   6.172  16.905 -0.2413  0.0947  0.4454
 9189TIP3   OH248981   4.240   1.057   4.940  0.2222 -0.4067 -0.3361
 9189TIP3    H148982   4.188   1.131   4.909  0.3642 -0.1477  0.0348
 9189TIP3    H248983   4.224   0.988   4.876 -0.3808 -0.2497 -0.3597
 9190TIP3   OH248984   1.920   5.800   1.411  0.5673 -0.1198 -0.3292
 9190TIP3    H148985   1.941   5.892   1.423  0.7517 -0.1860 -0.1389
 9190TIP3    H248986   1.922   5.787   1.316 -2.0592  0.6844 -0.5786
 9191TIP3   OH248987   6.519   5.440   4.136 -0.4136 -0.4492 -0.3656
 9191TIP3    H148988   6.575   5.362   4.132  0.9180  0.5137 -2.0649
 9191TIP3    H248989   6.498   5.450   4.229  0.8412 -1.8310  0.1019
 9192TIP3   OH248990   5.918   0.749  12.798 -0.0656  0.4487 -0.0552
 9192TIP3    H148991   5.954   0.740  12.887 -1.6148  2.0150  0.7999
 9192TIP3    H248992   5.995   0.752  12.741  1.0097  0.3427  1.3411
 9193TIP3   OH248993   6.648   0.672   2.860 -0.3315  0.2650 -0.3271
 9193TIP3    H148994   6.716   0.615   2.825 -0.4315 -1.4908  2.0577
 9193TIP3    H248995   6.582   0.677   2.791  0.6266 -0.8703 -1.3582
 9194TIP3   OH248996   1.404   5.249   5.503  0.1002 -0.8381 -0.3336
 9194TIP3    H148997   1.446   5.163   5.508 -0.3216 -0.9929  1.3442
 9194TIP3    H248998   1.430   5.292   5.585  0.1624  0.5671 -1.0705
 9195TIP3   OH248999   1.254   6.741  13.555 -0.5126 -0.1854  0.1916
 9195TIP3    H149000   1.216   6.757  13.641  0.7401  0.8208  0.5891
 9195TIP3    H249001   1.346   6.720  13.572  0.4259  2.5055 -0.9960
 9196TIP3   OH249002   6.663   0.192   3.852  0.3144  0.6546  0.0956
 9196TIP3    H149003   6.632   0.273   3.892  2.4961  1.5166  0.1793
 9196TIP3    H249004   6.710   0.147   3.922  1.8890  0.9062 -0.7627
 9197TIP3   OH249005   3.186   4.453  11.345 -0.0286 -0.4318 -0.5741
 9197TIP3    H149006   3.270   4.434  11.387  0.4458 -0.5668 -1.5480
 9197TIP3    H249007   3.183   4.393  11.270 -0.9465 -0.3493 -0.6168
 9198TIP3   OH249008   4.399   6.541   5.980 -0.2888  0.7014  0.1695
 9198TIP3    H149009   4.349   6.613   6.019  0.6026  2.1198 -1.1727
 9198TIP3    H249010   4.486   6.579   5.965 -0.1289 -0.2932 -1.6282
 9199TIP3   OH249011   2.793   6.346  15.384 -0.1659  0.3607 -0.1161
 9199TIP3    H149012   2.702   6.320  15.367  0.0329  0.5336 -1.5388
 9199TIP3    H249013   2.839   6.263  15.398 -0.4285  0.2371  0.0266
 9200TIP3   OH249014   0.379   3.004   6.843 -0.0345  0.8708 -0.0066
 9200TIP3    H149015   0.392   2.927   6.787  1.5029  0.7532  0.4510
 9200TIP3    H249016   0.331   2.971   6.918  1.9419 -0.0515  0.9340
 9201TIP3   OH249017   5.385   4.901   3.362  0.4939 -0.0828  0.0110
 9201TIP3    H149018   5.425   4.927   3.445  1.8592  0.4865 -0.7963
 9201TIP3    H249019   5.361   4.984   3.320 -0.6540 -0.3853  0.0332
 9202TIP3   OH249020   3.836   4.862  16.718  0.0262 -0.0693 -0.3684
 9202TIP3    H149021   3.827   4.769  16.739  1.3412  0.2076  1.7995
 9202TIP3    H249022   3.873   4.901  16.798 -0.1008  2.2489 -1.3560
 9203TIP3   OH249023   6.372   3.549  16.443  0.2806  0.6216 -0.2408
 9203TIP3    H149024   6.336   3.611  16.379 -1.3512  0.7794  0.7745
 9203TIP3    H249025   6.405   3.603  16.513  1.0679  0.4106 -0.4445
 9204TIP3   OH249026   0.329   4.566  14.568 -0.3421 -0.3431  0.4652
 9204TIP3    H149027   0.276   4.499  14.611 -0.9433 -0.5506 -0.5746
 9204TIP3    H249028   0.354   4.626  14.639 -0.8587 -0.9681  1.1888
 9205TIP3   OH249029   6.267   2.131   4.049 -0.1390 -0.4030  0.7158
 9205TIP3    H149030   6.291   2.222   4.031 -1.8462 -0.4666 -2.7097
 9205TIP3    H249031   6.346   2.092   4.085  2.6362  1.0824 -3.1363
 9206TIP3   OH249032   4.111   6.087  10.378  0.2819  0.3988  0.0060
 9206TIP3    H149033   4.180   6.087  10.445 -0.2306  1.5183  0.5592
 9206TIP3    H249034   4.051   6.156  10.406  0.5096  1.5118 -2.0656
 9207TIP3   OH249035   3.378   5.709  13.354 -0.0298 -0.1942 -0.4524
 9207TIP3    H149036   3.339   5.774  13.295  1.3903  1.0263 -0.1230
 9207TIP3    H249037   3.420   5.761  13.422  1.4495 -1.4296 -0.3611
 9208TIP3   OH249038   5.089   4.217   4.507  0.4178 -0.1098  0.4221
 9208TIP3    H149039   5.054   4.217   4.418  1.1904  2.3749  0.0523
 9208TIP3    H249040   5.070   4.305   4.540  1.0339 -0.6659  2.3736
 9209TIP3   OH249041   1.983   2.392   6.280  0.2016 -0.6023 -0.4009
 9209TIP3    H149042   1.903   2.445   6.285  0.2321 -0.6586  1.3793
 9209TIP3    H249043   2.052   2.451   6.310  0.9799 -0.3537 -2.5242
 9210TIP3   OH249044   6.772   5.615   5.148 -0.1451 -0.1950 -0.6590
 9210TIP3    H149045   6.798   5.591   5.058  0.2042 -1.1263 -0.3252
 9210TIP3    H249046   6.683   5.647   5.140 -0.7320 -1.8412 -1.1318
 9211TIP3   OH249047   4.929   0.765   0.579  0.1872  0.0453 -1.0198
 9211TIP3    H149048   4.967   0.685   0.543  1.4419  0.3801 -0.4954
 9211TIP3    H249049   5.004   0.815   0.611 -0.8090 -0.3078  2.2476
 9212TIP3   OH249050   2.399   2.128   2.123 -0.0147  0.1961  0.5965
 9212TIP3    H149051   2.390   2.165   2.035 -0.4543  0.4677  0.7517
 9212TIP3    H249052   2.322   2.161   2.171 -1.9876 -3.1429 -0.0045
 9213TIP3   OH249053   4.395   1.289   5.013 -0.3267  0.7879  0.0253
 9213TIP3    H149054   4.398   1.265   5.106  1.3766 -1.9175 -0.6123
 9213TIP3    H249055   4.398   1.205   4.967  0.4952  2.1095 -2.5019
 9214TIP3   OH249056   3.913   6.188  14.173  0.5957  0.0939 -0.1255
 9214TIP3    H149057   3.818   6.188  14.187  0.6906  1.0127  0.6315
 9214TIP3    H249058   3.931   6.104  14.131 -0.5025 -0.2785  0.1092
 9215TIP3   OH249059   4.798   5.591  11.239 -0.0212 -0.3707 -0.0455
 9215TIP3    H149060   4.706   5.567  11.227  0.2182 -0.9466 -0.7997
 9215TIP3    H249061   4.799   5.686  11.236 -0.4660 -0.3912 -1.0407
 9216TIP3   OH249062   5.227   2.473   1.708 -0.2776  0.6143 -0.1380
 9216TIP3    H149063   5.266   2.525   1.777  0.3456  0.1996 -0.1627
 9216TIP3    H249064   5.249   2.520   1.627  1.4032 -0.3078 -0.2745
 9217TIP3   OH249065   3.472   1.542   1.534  0.4737  0.3935 -0.2032
 9217TIP3    H149066   3.549   1.530   1.591  1.3401  2.4836 -0.8462
 9217TIP3    H249067   3.509   1.550   1.446 -0.5953  0.2785 -0.6710
 9218TIP3   OH249068   4.203   2.055   4.446 -0.2917 -0.2930 -0.1290
 9218TIP3    H149069   4.252   2.106   4.382  0.5176  0.7236  1.2419
 9218TIP3    H249070   4.116   2.046   4.409  0.0638  0.5657 -1.2148
 9219TIP3   OH249071   5.128   6.576  16.904  0.2762  0.6946  0.0427
 9219TIP3    H149072   5.074   6.549  16.830 -0.8540  2.6255  0.0845
 9219TIP3    H249073   5.067   6.582  16.977  1.3251 -0.8791  1.1119
 9220TIP3   OH249074   1.207   3.733  13.782 -0.0902 -0.0628  0.1165
 9220TIP3    H149075   1.120   3.734  13.741  0.5494  0.9426 -1.2807
 9220TIP3    H249076   1.256   3.669  13.730  0.2212 -0.0752  0.4296
 9221TIP3   OH249077   3.887   2.363   2.697 -0.0823  0.5183  0.0344
 9221TIP3    H149078   3.820   2.295   2.690  0.7199 -0.1382 -1.9609
 9221TIP3    H249079   3.896   2.398   2.608  2.3232  0.4470  0.1811
 9222TIP3   OH249080   5.147   1.959  16.269  0.1539  0.0669  0.2875
 9222TIP3    H149081   5.121   2.040  16.225 -0.0232 -0.4346 -0.5600
 9222TIP3    H249082   5.067   1.907  16.275  0.3095 -0.1462  0.6215
 9223TIP3   OH249083   6.064   5.527   6.084 -0.1871 -0.6380  0.5035
 9223TIP3    H149084   5.979   5.543   6.041  0.9234  0.4822 -1.4069
 9223TIP3    H249085   6.083   5.608   6.131 -0.0664 -0.8127  0.7592
 9224TIP3   OH249086   3.335   0.457  15.565 -0.2283  0.0704 -0.7948
 9224TIP3    H149087   3.282   0.394  15.615  0.0421 -0.3511 -1.0335
 9224TIP3    H249088   3.335   0.422  15.476 -0.8204  0.8910 -1.1306
 9225TIP3   OH249089   1.330   1.975   5.438 -0.4760 -0.8757  0.3044
 9225TIP3    H149090   1.269   1.985   5.366  1.6274 -3.0755 -2.0019
 9225TIP3    H249091   1.336   2.062   5.477 -2.5296  0.1552 -1.4766
 9226TIP3   OH249092   4.587   2.020   1.249 -0.0841  0.4430 -0.1625
 9226TIP3    H149093   4.509   1.981   1.211  0.5643 -0.3500 -0.6997
 9226TIP3    H249094   4.626   1.951   1.302 -0.2308  1.1157  0.8450
 9227TIP3   OH249095   1.230   2.439  13.456 -0.2067 -0.3388  0.3866
 9227TIP3    H149096   1.244   2.455  13.549 -0.9953 -2.8614  1.0304
 9227TIP3    H249097   1.314   2.458  13.415  0.1640  0.7830  1.5999
 9228TIP3   OH249098   4.820   5.871   0.416 -0.1711 -0.2198  0.2989
 9228TIP3    H149099   4.793   5.790   0.373 -0.3673  0.8339 -1.6818
 9228TIP3    H249100   4.915   5.862   0.426 -0.1103 -0.4499 -0.4537
 9229TIP3   OH249101   4.620   1.739  11.566  0.0921 -0.0381 -0.2522
 9229TIP3    H149102   4.597   1.730  11.474  0.9563 -0.2505 -0.4557
 9229TIP3    H249103   4.711   1.769  11.565 -0.6087  2.3505  0.4977
 9230TIP3   OH249104   4.577   4.840  15.309  0.6269 -0.5478  0.2710
 9230TIP3    H149105   4.664   4.801  15.296  1.0520  0.4294  0.1076
 9230TIP3    H249106   4.542   4.852  15.221 -0.1364 -1.9178  0.3643
 9231TIP3   OH249107   0.970   5.414  13.418  0.2740 -0.2278  0.0811
 9231TIP3    H149108   0.895   5.372  13.376  0.6607 -0.7994 -0.0533
 9231TIP3    H249109   0.985   5.362  13.497  0.5097 -0.1074  0.1172
 9232TIP3   OH249110   2.824   3.955   5.014  0.1322 -0.3400  0.3097
 9232TIP3    H149111   2.854   3.929   4.926 -1.4436 -0.7865 -0.1162
 9232TIP3    H249112   2.870   4.037   5.031  0.3254 -0.1452 -1.0123
 9233TIP3   OH249113   4.645   4.816   1.895  0.0475  0.1584 -0.0608
 9233TIP3    H149114   4.587   4.890   1.874 -0.9406 -0.2312  1.1875
 9233TIP3    H249115   4.734   4.854   1.891 -0.4053  1.2745  0.0112
 9234TIP3   OH249116   1.844   1.827   6.195 -0.1740  0.4673 -0.1493
 9234TIP3    H149117   1.765   1.878   6.209  0.7059  1.5319  1.1890
 9234TIP3    H249118   1.916   1.890   6.206  0.8766 -0.4583 -1.3352
 9235TIP3   OH249119   3.915   1.368  15.086  0.0306 -0.4566 -0.1877
 9235TIP3    H149120   3.914   1.343  15.179 -0.1580  0.8585  0.1766
 9235TIP3    H249121   3.972   1.444  15.082  0.0361 -0.5071 -1.1607
 9236TIP3   OH249122   0.500   0.249   2.846  0.2439  0.4540  0.1343
 9236TIP3    H149123   0.417   0.232   2.890  0.3194 -1.1615 -0.2759
 9236TIP3    H249124   0.500   0.188   2.772  1.4326  1.0137 -0.3461
 9237TIP3   OH249125   2.663   1.872   4.890  0.7042 -0.5816  0.1388
 9237TIP3    H149126   2.737   1.925   4.921  0.8022 -0.7799  0.2416
 9237TIP3    H249127   2.625   1.835   4.970 -1.1515  1.6468  0.3993
 9238TIP3   OH249128   6.649   1.718  16.947 -0.4358  0.5450 -0.4159
 9238TIP3    H149129   6.567   1.669  16.942 -0.7993  1.0103  0.7272
 9238TIP3    H249130   6.686   1.710  16.859 -1.5166  0.0132 -0.8501
 9239TIP3   OH249131   0.041   6.656  13.377  0.0032 -0.3326 -0.6044
 9239TIP3    H149132   0.071   6.724  13.438  1.7990 -1.2876 -0.3568
 9239TIP3    H249133   0.077   6.683  13.293  1.1343 -1.1904 -0.4157
 9240TIP3   OH249134   5.358   1.093  14.968 -0.1080 -0.0797  0.1798
 9240TIP3    H149135   5.342   1.036  15.043  2.3295 -1.1345 -0.0430
 9240TIP3    H249136   5.313   1.050  14.895  0.8251 -1.1899  0.2370
 9241TIP3   OH249137   0.433   2.032   2.928  0.5254  0.4686  0.1300
 9241TIP3    H149138   0.342   2.012   2.906  0.8988 -1.6559  0.2204
 9241TIP3    H249139   0.428   2.101   2.993 -1.0988 -0.4529  1.0529
 9242TIP3   OH249140   5.589   1.326   3.837  0.5087 -0.1609 -0.4213
 9242TIP3    H149141   5.583   1.233   3.858 -3.5322 -0.2159 -1.0375
 9242TIP3    H249142   5.573   1.370   3.921  1.1443 -0.0200 -0.3694
 9243TIP3   OH249143   3.631   6.616  13.207  0.0233  0.1489  0.3900
 9243TIP3    H149144   3.610   6.708  13.193  1.9130  0.7811  1.4072
 9243TIP3    H249145   3.566   6.568  13.155 -0.2530  2.0543 -1.1126
 9244TIP3   OH249146   4.776   1.762  15.583  0.7487 -0.1997  0.4926
 9244TIP3    H149147   4.682   1.764  15.604  0.7025  0.6250  0.2416
 9244TIP3    H249148   4.816   1.717  15.657 -0.1495 -3.1574 -0.6717
 9245TIP3   OH249149   2.316   1.270   2.194 -0.2393 -0.7039  0.1900
 9245TIP3    H149150   2.372   1.211   2.145  0.3631 -0.1315  0.1751
 9245TIP3    H249151   2.231   1.264   2.151 -0.0012 -1.0425 -0.2336
 9246TIP3   OH249152   3.751   4.496   0.683 -0.1292  0.3357 -0.3513
 9246TIP3    H149153   3.733   4.557   0.754  0.7130  1.2586 -0.9099
 9246TIP3    H249154   3.712   4.537   0.605  0.3061  0.0818 -0.7086
 9247TIP3   OH249155   2.688   3.917   0.076  0.0223  0.6729 -0.4236
 9247TIP3    H149156   2.773   3.929   0.120 -1.2291  0.7630  2.1788
 9247TIP3    H249157   2.710   3.895  -0.014  2.8151  0.0134  0.3348
 9248TIP3   OH249158   3.706   3.711   4.759 -0.0268 -0.3558  0.1833
 9248TIP3    H149159   3.663   3.791   4.788 -0.7686 -0.6680 -0.0370
 9248TIP3    H249160   3.643   3.669   4.701  1.2087 -0.0450 -1.4442
 9249TIP3   OH249161   4.919   6.423  13.728  0.2721  0.3762  0.1896
 9249TIP3    H149162   4.957   6.427  13.640  1.5901  0.4122  0.7349
 9249TIP3    H249163   4.886   6.333  13.736  1.0369  0.0635 -0.0092
 9250TIP3   OH249164   4.991   0.620   5.395  0.2279  0.0013 -0.2000
 9250TIP3    H149165   4.920   0.674   5.429 -0.6130 -0.5006 -1.0896
 9250TIP3    H249166   5.071   0.665   5.422 -0.4401  1.6002 -0.7705
 9251TIP3   OH249167   3.388   4.922   6.060  0.0099  0.2379  0.0869
 9251TIP3    H149168   3.392   4.827   6.049 -0.3628  0.3476 -1.2619
 9251TIP3    H249169   3.327   4.935   6.132 -0.5268 -0.5447 -0.2008
 9252TIP3   OH249170   4.332   4.433   2.745 -0.4015  0.3108  0.1755
 9252TIP3    H149171   4.297   4.503   2.690  0.4151 -0.2292 -1.0691
 9252TIP3    H249172   4.377   4.479   2.816 -2.5811  1.0131  1.1987
 9253TIP3   OH249173   3.151   6.316   1.452  0.3556  0.4197 -0.2902
 9253TIP3    H149174   3.227   6.259   1.442 -0.6869 -0.7164 -2.3275
 9253TIP3    H249175   3.139   6.356   1.366 -3.1329 -1.8823 -1.1002
 9254TIP3   OH249176   1.951   2.695   1.731 -0.4784  1.0925 -0.4750
 9254TIP3    H149177   1.921   2.605   1.729 -0.4570  1.0863 -0.5270
 9254TIP3    H249178   2.019   2.699   1.664  1.6208  0.4293  1.5034
 9255TIP3   OH249179   0.784   3.096   4.722  0.2894 -0.0230  0.0724
 9255TIP3    H149180   0.801   3.080   4.815  0.2263  0.4027  0.1604
 9255TIP3    H249181   0.866   3.133   4.689  1.3712 -2.8860 -0.7338
 9256TIP3   OH249182   6.693   3.999  11.013  0.1454  0.5121  0.6009
 9256TIP3    H149183   6.618   4.019  11.069 -0.9030 -0.8587 -0.2499
 9256TIP3    H249184   6.720   3.911  11.039  0.1003  0.1425 -0.5324
 9257TIP3   OH249185   5.928   4.772  11.018 -0.1343  0.1000 -0.4842
 9257TIP3    H149186   5.832   4.782  11.016 -0.1547  0.0126 -0.0680
 9257TIP3    H249187   5.949   4.725  10.937 -0.4933 -0.3096 -0.3412
 9258TIP3   OH249188   6.392   3.811  11.350 -0.0447 -0.0186  0.4228
 9258TIP3    H149189   6.472   3.776  11.390  0.0902  1.9848  2.0324
 9258TIP3    H249190   6.369   3.746  11.283  2.0460 -1.4211  0.9622
 9259TIP3   OH249191   1.226   0.190   3.719  0.2369  0.4488  0.0211
 9259TIP3    H149192   1.189   0.113   3.676  0.9647 -1.2126  2.1611
 9259TIP3    H249193   1.318   0.166   3.736  0.7412  2.1721 -0.1005
 9260TIP3   OH249194   5.193   6.070  11.369 -0.1139  0.3933  0.4666
 9260TIP3    H149195   5.195   5.982  11.333  0.6545  0.6161 -0.0791
 9260TIP3    H249196   5.108   6.105  11.342  1.0654  1.1486 -2.7208
 9261TIP3   OH249197   1.203   1.164  15.870 -0.0848  0.0276  0.5117
 9261TIP3    H149198   1.195   1.170  15.965 -0.1722  0.5634  0.4787
 9261TIP3    H249199   1.139   1.228  15.837 -0.1238 -0.2229  0.0928
 9262TIP3   OH249200   2.884   0.653  14.904 -0.1530  0.0183 -0.2163
 9262TIP3    H149201   2.845   0.568  14.926  0.6002 -0.2674  0.0381
 9262TIP3    H249202   2.918   0.641  14.815  0.4743 -0.1381  0.0400
 9263TIP3   OH249203   1.306   3.117   5.640  0.5591 -0.0312  0.5058
 9263TIP3    H149204   1.219   3.149   5.667  0.8128  0.6369  0.5454
 9263TIP3    H249205   1.356   3.197   5.621  0.6426 -0.4492 -1.1673
 9264TIP3   OH249206   5.567   4.073   4.848  0.9928  0.0480  0.0771
 9264TIP3    H149207   5.476   4.102   4.854  1.0128  0.3028 -0.6664
 9264TIP3    H249208   5.617   4.141   4.893  1.0311  1.2148 -1.5979
 9265TIP3   OH249209   1.809   5.188   2.907  0.0738 -0.1038  0.0873
 9265TIP3    H149210   1.764   5.203   2.824  1.7485 -0.2505 -0.8911
 9265TIP3    H249211   1.902   5.202   2.887  0.5511 -0.4597  1.8638
 9266TIP3   OH249212   0.477   0.004   1.179 -0.6813  0.1931 -0.1290
 9266TIP3    H149213   0.512   0.024   1.092 -0.3489  1.6543  0.3124
 9266TIP3    H249214   0.443   0.087   1.211 -3.3099 -0.8558  0.0657
 9267TIP3   OH249215   0.471   4.695   4.229  0.2800 -0.3327  0.3390
 9267TIP3    H149216   0.501   4.740   4.307  0.5445  0.6071 -0.2912
 9267TIP3    H249217   0.379   4.674   4.247 -0.0963  1.2013  0.3296
 9268TIP3   OH249218   0.687   2.676   3.489  0.1693  0.7616 -0.2332
 9268TIP3    H149219   0.667   2.718   3.573 -2.5364 -0.0519 -0.3839
 9268TIP3    H249220   0.637   2.726   3.424  0.3821 -0.0321 -1.0301
 9269TIP3   OH249221   3.376   0.177   3.419 -0.0763  0.1857  0.5645
 9269TIP3    H149222   3.365   0.268   3.390  0.3670  0.4466  1.1912
 9269TIP3    H249223   3.290   0.137   3.406  0.1220  0.2623 -1.1716
 9270TIP3   OH249224   3.613   1.180   3.075  0.6770  0.2218  0.2588
 9270TIP3    H149225   3.684   1.117   3.061 -0.3520 -0.8219 -0.4129
 9270TIP3    H249226   3.547   1.131   3.124 -0.7497  0.2922 -1.4730
 9271TIP3   OH249227   5.474   3.943  12.785  0.1638  0.0891 -0.8769
 9271TIP3    H149228   5.390   3.897  12.781  0.8554 -1.5462  1.4833
 9271TIP3    H249229   5.450   4.036  12.778 -1.8126 -0.3238 -0.3805
 9272TIP3   OH249230   5.920   2.989  12.049 -0.1533 -0.2512  0.5894
 9272TIP3    H149231   5.946   3.031  12.131 -1.3079  1.5943  0.0651
 9272TIP3    H249232   5.945   2.897  12.061  3.3668  0.6450  1.4245
 9273TIP3   OH249233   6.190   0.350   6.485 -0.2341  0.5118  0.3864
 9273TIP3    H149234   6.150   0.431   6.517 -2.3287 -0.3998  0.2337
 9273TIP3    H249235   6.119   0.286   6.487  1.3721 -1.3404  0.5031
 9274TIP3   OH249236   6.746   6.666   3.475  0.2991  0.1612  0.0671
 9274TIP3    H149237   6.737   6.678   3.570  0.2449  0.2673  0.0489
 9274TIP3    H249238   6.823   6.610   3.466  1.8448  2.1329  0.0982
 9275TIP3   OH249239   2.942   1.184   2.243 -0.9372 -0.1409  0.0977
 9275TIP3    H149240   2.893   1.225   2.172  1.8949 -0.3308 -2.1415
 9275TIP3    H249241   2.969   1.258   2.298  1.5515  0.8764 -2.2370
 9276TIP3   OH249242   1.216   5.779   1.454 -0.1237  0.4524 -0.2081
 9276TIP3    H149243   1.260   5.705   1.412  0.7783  0.5905  0.4799
 9276TIP3    H249244   1.279   5.850   1.452 -1.2485  1.4734 -1.5302
 9277TIP3   OH249245   1.645   2.798   4.069  0.0424 -0.2555  0.2710
 9277TIP3    H149246   1.661   2.717   4.019  0.6206  0.2608 -0.4028
 9277TIP3    H249247   1.728   2.817   4.112 -0.4524 -0.7005  1.4786
 9278TIP3   OH249248   3.996   4.018  13.921  0.1079 -0.6349  0.2903
 9278TIP3    H149249   4.012   3.949  13.857  0.2210  1.0446 -1.6176
 9278TIP3    H249250   4.069   4.079  13.910 -0.3175  0.1199  1.4426
 9279TIP3   OH249251   4.930   2.417   5.141  0.0640  0.5327  1.0615
 9279TIP3    H149252   4.906   2.454   5.056  0.5940 -1.8775 -0.2144
 9279TIP3    H249253   4.846   2.402   5.184 -0.2399  1.2750  0.7415
 9280TIP3   OH249254   5.869   0.607  16.479  0.1883 -0.4465  0.1211
 9280TIP3    H149255   5.921   0.653  16.414  0.6868 -1.0676  0.0753
 9280TIP3    H249256   5.786   0.590  16.435  0.0327  0.3205  0.1084
 9281TIP3   OH249257   0.648   0.730  11.400  0.2765  0.1091  0.3852
 9281TIP3    H149258   0.633   0.770  11.314  0.3928  0.6590  0.6137
 9281TIP3    H249259   0.616   0.795  11.463  1.2361  0.2215  0.7897
 9282TIP3   OH249260   4.607   6.221  14.085 -0.0308 -0.1955 -0.0809
 9282TIP3    H149261   4.517   6.221  14.052  0.1762 -2.7282 -0.8518
 9282TIP3    H249262   4.613   6.140  14.136  1.9738 -0.3477 -0.5000
 9283TIP3   OH249263   3.336   3.063  12.319  0.1602  0.2108  0.4742
 9283TIP3    H149264   3.244   3.067  12.295  0.3686  2.4129 -0.2081
 9283TIP3    H249265   3.341   3.107  12.404  0.7959  2.0651 -0.4568
 9284TIP3   OH249266   3.242   1.503   2.725  0.2338  0.4763 -0.0264
 9284TIP3    H149267   3.212   1.552   2.648 -2.3042  2.2765  1.9034
 9284TIP3    H249268   3.173   1.439   2.739  1.6700 -1.1948 -0.3096
 9285TIP3   OH249269   4.885   2.744   3.914 -0.5526  0.0778 -0.1432
 9285TIP3    H149270   4.811   2.799   3.940  1.3386  2.1303  1.2398
 9285TIP3    H249271   4.914   2.781   3.831 -2.0995 -1.9085 -1.6897
 9286TIP3   OH249272   1.297   2.473   3.786 -0.2634 -0.5401 -0.3380
 9286TIP3    H149273   1.343   2.464   3.703  3.2081  1.6601  1.1628
 9286TIP3    H249274   1.291   2.567   3.801 -1.8363 -0.8517  1.4444
 9287TIP3   OH249275   0.065   4.630   3.703 -0.7295  0.0020 -0.6739
 9287TIP3    H149276  -0.005   4.567   3.717  0.2538 -0.6832  1.7395
 9287TIP3    H249277   0.144   4.585   3.735 -0.2012  2.8790  2.6769
 9288TIP3   OH249278   4.862   0.224  16.850  0.0419  0.1832  0.0758
 9288TIP3    H149279   4.909   0.203  16.770  0.3538 -0.6060  0.4630
 9288TIP3    H249280   4.930   0.232  16.917 -0.3055 -0.2800  0.4939
 9289TIP3   OH249281   0.786   0.367   3.900  0.2432 -0.1616  0.3099
 9289TIP3    H149282   0.700   0.334   3.874 -0.2900  1.3520  0.0641
 9289TIP3    H249283   0.842   0.353   3.823  0.1953 -0.9825  0.4098
 9290TIP3   OH249284   2.409   4.048  15.022  0.1301  0.1865 -0.2254
 9290TIP3    H149285   2.322   4.017  15.048  0.5193  0.5016  1.5961
 9290TIP3    H249286   2.392   4.122  14.964 -0.8633  0.8327  0.8312
 9291TIP3   OH249287   0.218   4.102   1.419 -0.1870  0.1597  0.0725
 9291TIP3    H149288   0.303   4.068   1.446  0.1356 -0.0244 -1.1350
 9291TIP3    H249289   0.206   4.071   1.329 -1.5303  0.1842  0.2165
 9292TIP3   OH249290   0.627   2.298  16.884 -0.3798  0.1362  0.0375
 9292TIP3    H149291   0.556   2.239  16.909  0.9848 -1.9921 -0.8064
 9292TIP3    H249292   0.592   2.348  16.810 -1.5442  0.3906  0.7325
 9293TIP3   OH249293   2.009   1.322  13.299  0.1986  0.2439  0.7325
 9293TIP3    H149294   2.046   1.246  13.344 -0.1003  0.4544  1.3507
 9293TIP3    H249295   1.969   1.286  13.220 -0.9831 -0.4398  1.5872
 9294TIP3   OH249296   5.146   4.649   6.172  0.4388 -0.3828  0.2777
 9294TIP3    H149297   5.239   4.672   6.162  0.4148  0.2366  1.2979
 9294TIP3    H249298   5.131   4.581   6.107  1.7012 -0.7439  0.3354
 9295TIP3   OH249299   5.742   2.368  11.346  0.0323  0.2372  0.2903
 9295TIP3    H149300   5.782   2.445  11.306  2.7930 -1.4564 -0.4333
 9295TIP3    H249301   5.735   2.304  11.275 -0.6913 -0.7732  1.2310
 9296TIP3   OH249302   2.167   3.186  11.965  0.0488 -0.2765 -0.5767
 9296TIP3    H149303   2.077   3.183  11.932 -0.1691 -0.0635 -0.0032
 9296TIP3    H249304   2.173   3.111  12.024  0.6532 -1.0759 -1.6125
 9297TIP3   OH249305   2.525   5.660  14.852  0.0344  0.3411  0.0033
 9297TIP3    H149306   2.600   5.615  14.892  0.7254  1.5031  0.0688
 9297TIP3    H249307   2.449   5.612  14.884  0.7115 -0.3779  0.5928
 9298TIP3   OH249308   2.646   5.963   0.202 -0.2525  0.1802 -0.1586
 9298TIP3    H149309   2.728   5.985   0.157  0.5005 -1.7757  0.1516
 9298TIP3    H249310   2.670   5.891   0.260 -2.5646 -1.6671 -1.3717
 9299TIP3   OH249311   0.886   5.200  14.658 -0.1295  0.0309 -0.2794
 9299TIP3    H149312   0.865   5.290  14.631 -1.6137 -0.1366  0.2094
 9299TIP3    H249313   0.843   5.146  14.591  2.4474 -0.3571 -1.7515
 9300TIP3   OH249314   5.359   6.550  13.556  0.1603 -0.0816 -0.1461
 9300TIP3    H149315   5.347   6.644  13.562 -0.7250 -0.0420 -1.8988
 9300TIP3    H249316   5.345   6.529  13.463  1.5201 -1.7844 -0.0294
 9301TIP3   OH249317   1.991   1.754  13.147  0.0582  0.0435  0.2878
 9301TIP3    H149318   2.083   1.742  13.122 -0.2019  1.2036 -1.4141
 9301TIP3    H249319   1.950   1.670  13.126  0.3851  0.1313 -0.7452
 9302TIP3   OH249320   2.415   1.135   0.157  0.1458 -0.1068  0.0317
 9302TIP3    H149321   2.345   1.118   0.220  1.2064  0.9641  1.5730
 9302TIP3    H249322   2.411   1.230   0.142 -0.5726 -0.4237 -2.1756
 9303TIP3   OH249323   5.769   3.009  12.547  0.1146 -0.0431 -0.3768
 9303TIP3    H149324   5.769   3.080  12.611  0.6560 -0.1478 -0.2607
 9303TIP3    H249325   5.698   3.031  12.487 -0.4018  0.0525  0.2602
 9304TIP3   OH249326   3.972   0.373   3.595 -0.0929  0.2051  0.0021
 9304TIP3    H149327   3.995   0.382   3.688  1.4677 -1.0304 -0.2148
 9304TIP3    H249328   4.035   0.429   3.550 -0.2187  0.0532 -0.3629
 9305TIP3   OH249329   0.468   4.980  12.366 -0.7079  0.0681 -0.1417
 9305TIP3    H149330   0.546   5.009  12.412  0.1286  0.5259 -1.7892
 9305TIP3    H249331   0.500   4.919  12.300 -2.0266 -1.6445  0.7012
 9306TIP3   OH249332   1.941   4.373  17.249  0.0659 -0.1293 -0.1219
 9306TIP3    H149333   2.004   4.382  17.321 -0.5545  1.8857  0.2256
 9306TIP3    H249334   1.995   4.348  17.174  1.6557  3.0392 -0.2245
 9307TIP3   OH249335   1.904   3.862  15.888 -0.2933 -0.2100  0.6453
 9307TIP3    H149336   1.845   3.885  15.960 -0.2070 -0.4797  0.8015
 9307TIP3    H249337   1.903   3.767  15.884  0.6448 -0.2476  1.0810
 9308TIP3   OH249338   4.233   2.911   6.388  0.1586  0.3959  0.4965
 9308TIP3    H149339   4.148   2.888   6.426 -0.0147 -2.0199 -1.1196
 9308TIP3    H249340   4.289   2.836   6.406  1.5143  1.3033  0.2232
 9309TIP3   OH249341   2.052   3.718   2.063 -0.1157  0.0950 -0.5072
 9309TIP3    H149342   2.035   3.657   2.134  0.4399  0.3319 -0.1631
 9309TIP3    H249343   2.123   3.774   2.096 -1.2449  1.5352 -0.4463
 9310TIP3   OH249344   2.001   0.802  13.960  1.0715  0.7621  0.3287
 9310TIP3    H149345   1.976   0.763  14.043 -1.4633 -0.2364 -0.7944
 9310TIP3    H249346   1.998   0.897  13.976  0.5211  0.5865  1.3470
 9311TIP3   OH249347   5.675   1.317  15.292  0.2126  0.2135 -0.2651
 9311TIP3    H149348   5.588   1.323  15.331  0.4323  0.6569  0.1715
 9311TIP3    H249349   5.700   1.408  15.276  0.3803  0.0651 -0.8894
 9312TIP3   OH249350   3.485   3.181  13.798  0.2140 -0.5277 -0.6642
 9312TIP3    H149351   3.534   3.263  13.789  0.3266 -0.3740  1.0575
 9312TIP3    H249352   3.395   3.204  13.774 -0.2484  0.7198  1.9022
 9313TIP3   OH249353   5.959   4.072  14.567 -0.2202 -0.3804 -0.0393
 9313TIP3    H149354   5.885   4.062  14.626  0.2522  0.6320  0.7609
 9313TIP3    H249355   6.031   4.102  14.623  0.5718 -0.5734 -0.9272
 9314TIP3   OH249356   4.332   6.752  12.080 -0.1674 -0.4109 -0.6855
 9314TIP3    H149357   4.417   6.709  12.086 -0.3089 -0.6928 -0.6819
 9314TIP3    H249358   4.351   6.845  12.092  0.2254 -0.4001 -1.3888
 9315TIP3   OH249359   4.450   5.051  16.959  0.3991  0.2253  0.1252
 9315TIP3    H149360   4.532   5.039  17.008  0.1976  0.8492  0.6152
 9315TIP3    H249361   4.381   5.027  17.021  0.2493 -2.2750 -0.8820
 9316TIP3   OH249362   5.306   1.896   3.035  0.4244  0.1503  0.4112
 9316TIP3    H149363   5.289   1.964   3.100  0.2705  2.0712 -1.5437
 9316TIP3    H249364   5.340   1.943   2.959  1.9383 -2.1622 -0.4575
 9317TIP3   OH249365   4.782   0.078   5.639 -0.5046  0.1449 -1.0538
 9317TIP3    H149366   4.839   0.130   5.583  1.8571 -2.3345 -1.1537
 9317TIP3    H249367   4.787   0.120   5.725 -0.9045  1.6525 -1.7555
 9318TIP3   OH249368   0.006   0.156   6.088 -0.5611 -0.4781 -0.1227
 9318TIP3    H149369  -0.050   0.227   6.057  0.3904  0.9718  1.2978
 9318TIP3    H249370  -0.023   0.140   6.178 -0.8328 -2.0224 -0.4402
 9319TIP3   OH249371   1.259   4.737   2.327  0.2991  0.5569 -0.1194
 9319TIP3    H149372   1.164   4.734   2.317  0.2217 -0.4717  0.7489
 9319TIP3    H249373   1.293   4.707   2.243 -0.1266  1.1238 -0.5042
 9320TIP3   OH249374   2.826   6.226   4.047  0.2061  0.2387  0.0085
 9320TIP3    H149375   2.839   6.276   3.967 -1.4840  0.3283 -0.2445
 9320TIP3    H249376   2.863   6.281   4.116  0.2867  0.8682 -0.5279
 9321TIP3   OH249377   6.709   5.723   3.445  0.2032  0.3418 -0.3409
 9321TIP3    H149378   6.624   5.722   3.402  2.1567 -3.7107 -5.0666
 9321TIP3    H249379   6.697   5.670   3.524 -1.9523  1.4836  0.1675
 9322TIP3   OH249380   2.789   4.588  12.229 -0.2986 -0.3678 -0.5952
 9322TIP3    H149381   2.852   4.616  12.162  1.7345 -0.6855  1.0671
 9322TIP3    H249382   2.810   4.643  12.305  0.2750 -2.7423  1.0807
 9323TIP3   OH249383   2.183   0.163   5.150  0.3345 -0.6369 -0.0328
 9323TIP3    H149384   2.139   0.216   5.217 -0.3184 -1.4482  0.1922
 9323TIP3    H249385   2.111   0.121   5.101  0.8386 -1.8438  0.2301
 9324TIP3   OH249386   0.649   6.069  14.448  0.2339  0.1553 -0.2836
 9324TIP3    H149387   0.685   6.012  14.379  1.4514  0.3338  0.1743
 9324TIP3    H249388   0.611   6.143  14.401  0.2041 -0.1902 -0.8097
 9325TIP3   OH249389   0.599   3.503   5.883 -0.3787  0.2423 -0.4465
 9325TIP3    H149390   0.654   3.549   5.820 -1.7086  1.8119 -0.5339
 9325TIP3    H249391   0.552   3.438   5.831  1.0212 -0.8014 -0.4427
 9326TIP3   OH249392   4.753   4.579  14.555  0.1354  0.7721  0.2972
 9326TIP3    H149393   4.663   4.614  14.550  0.3092  1.3184  0.8581
 9326TIP3    H249394   4.808   4.653  14.527  0.6972  1.8562  3.8293
 9327TIP3   OH249395   1.579   3.998  11.413 -0.7299 -0.4243 -1.0699
 9327TIP3    H149396   1.576   3.918  11.466 -2.6467  0.5830  0.4911
 9327TIP3    H249397   1.665   3.996  11.371  0.4786 -1.8471  1.2435
 9328TIP3   OH249398   4.230   1.721   0.909 -0.7866 -0.7371 -0.3337
 9328TIP3    H149399   4.142   1.687   0.924 -1.4977  1.6300  1.3212
 9328TIP3    H249400   4.230   1.748   0.817 -2.4563  0.9694  0.1167
 9329TIP3   OH249401   1.702   4.928   3.317  0.0492 -0.2124 -0.0996
 9329TIP3    H149402   1.610   4.927   3.291 -0.4880  0.4325  1.6052
 9329TIP3    H249403   1.743   4.859   3.265 -0.8505  1.1074 -2.7021
 9330TIP3   OH249404   0.434   2.716   2.196  0.5208  0.1259 -0.2788
 9330TIP3    H149405   0.493   2.743   2.126 -0.5417 -0.3696 -1.4120
 9330TIP3    H249406   0.448   2.622   2.206  0.9670  0.2650  0.4812
 9331TIP3   OH249407   0.171   1.876   0.997 -0.9369  0.1787 -0.5858
 9331TIP3    H149408   0.229   1.837   0.932 -1.3646  0.0476 -0.8921
 9331TIP3    H249409   0.187   1.970   0.990  0.3564  0.0621  0.4018
 9332TIP3   OH249410   6.689   0.272   3.109  0.1821 -0.6557 -0.1868
 9332TIP3    H149411   6.743   0.250   3.184 -0.5827 -1.9295  0.0270
 9332TIP3    H249412   6.608   0.223   3.122 -0.3087 -0.2310 -1.4107
 9333TIP3   OH249413   2.035   5.822  14.547  0.2857 -0.2011  0.5919
 9333TIP3    H149414   2.035   5.834  14.452 -0.8985  0.2165  0.6240
 9333TIP3    H249415   2.119   5.781  14.566  0.7685  0.2052 -0.5706
 9334TIP3   OH249416   4.567   4.703   4.851 -0.3796  0.0709 -0.1109
 9334TIP3    H149417   4.558   4.666   4.939  1.3501 -0.6478 -0.1953
 9334TIP3    H249418   4.517   4.785   4.855  0.8012  0.7848  2.0017
 9335TIP3   OH249419   3.608   5.260   4.606  0.0107  0.0476  0.5084
 9335TIP3    H149420   3.680   5.199   4.621  0.3987  0.0022 -1.3385
 9335TIP3    H249421   3.650   5.345   4.592 -0.3366  0.1667  0.1528
 9336TIP3   OH249422   5.056   0.457  12.493  0.3561 -0.2182  0.3541
 9336TIP3    H149423   5.057   0.470  12.399  0.6833  0.8311  0.4901
 9336TIP3    H249424   5.097   0.372  12.506  2.2738  0.5328 -0.3427
 9337TIP3   OH249425   0.923   1.630  11.266 -0.1786  0.0031  0.1565
 9337TIP3    H149426   0.980   1.589  11.201  2.2835  0.8298  1.6609
 9337TIP3    H249427   0.866   1.687  11.214  1.4953  0.4240 -1.3286
 9338TIP3   OH249428   4.247   5.902  15.611 -0.3660  0.1122 -0.5403
 9338TIP3    H149429   4.222   5.956  15.685 -0.1808 -1.7164  0.9402
 9338TIP3    H249430   4.282   5.822  15.650 -0.4498 -1.0154 -2.5991
 9339TIP3   OH249431   4.028   2.488   6.018  0.5731 -0.3506 -0.3584
 9339TIP3    H149432   4.033   2.439   5.935  1.2794  1.5459 -1.4977
 9339TIP3    H249433   3.938   2.476   6.047  0.6699 -2.1527 -0.6664
 9340TIP3   OH249434   6.412   5.408   5.691 -0.4763 -0.2101  0.0966
 9340TIP3    H149435   6.354   5.419   5.767  0.2772  0.6664  0.5778
 9340TIP3    H249436   6.490   5.460   5.713 -0.0147 -0.3814 -1.0500
 9341TIP3   OH249437   6.513   3.743   1.926 -0.5782 -0.9411  0.1936
 9341TIP3    H149438   6.470   3.814   1.974  0.8644  2.3756 -2.8941
 9341TIP3    H249439   6.596   3.729   1.971 -0.4122  0.1893  0.2734
 9342TIP3   OH249440   3.363   2.452   0.038  0.5244  0.6749 -0.0835
 9342TIP3    H149441   3.405   2.465  -0.047 -1.5282  1.6676 -1.0338
 9342TIP3    H249442   3.281   2.407   0.017 -0.1722  1.2315  1.3090
 9343TIP3   OH249443   3.452   5.209   4.825  0.0037  0.5300 -0.3384
 9343TIP3    H149444   3.459   5.114   4.835 -0.6797  0.5554  0.4699
 9343TIP3    H249445   3.510   5.229   4.752  0.9578 -0.3854  0.1287
 9344TIP3   OH249446   6.343   6.296   2.947 -1.2365 -0.5082  0.2194
 9344TIP3    H149447   6.371   6.204   2.949  1.5150  0.2505  0.3639
 9344TIP3    H249448   6.266   6.298   3.003 -1.6696 -2.8157 -0.1909
 9345TIP3   OH249449   4.266   0.918   2.865  0.1490  0.0742  0.4838
 9345TIP3    H149450   4.235   0.967   2.789 -0.4572 -0.2958  0.4842
 9345TIP3    H249451   4.361   0.914   2.855 -0.0449 -1.5692 -1.2475
 9346TIP3   OH249452   2.474   0.591  12.124 -0.1363  0.3753  0.1681
 9346TIP3    H149453   2.426   0.537  12.061 -0.1042 -0.6753  0.9968
 9346TIP3    H249454   2.534   0.642  12.071 -1.8743  1.4492 -0.8622
 9347TIP3   OH249455   5.777   5.483   2.315  0.1984 -0.5277  0.2664
 9347TIP3    H149456   5.832   5.556   2.285 -0.5502  0.7043  1.7079
 9347TIP3    H249457   5.710   5.475   2.247  1.1543 -0.8964 -0.6523
 9348TIP3   OH249458   5.500   0.290  16.144 -0.0376  0.0161  0.7345
 9348TIP3    H149459   5.555   0.301  16.221 -0.2818  1.2926  0.7533
 9348TIP3    H249460   5.560   0.264  16.074  0.7733  2.0417  0.5797
 9349TIP3   OH249461   2.460   5.647   4.087 -0.4460 -0.4444 -0.0609
 9349TIP3    H149462   2.544   5.690   4.104 -0.9281  1.1838 -1.4537
 9349TIP3    H249463   2.483   5.567   4.039  0.4434 -1.5891  2.1508
 9350TIP3   OH249464   3.412   1.641   6.037  0.4598  0.3184  0.3990
 9350TIP3    H149465   3.401   1.727   6.078  2.2591  1.7465 -1.8537
 9350TIP3    H249466   3.475   1.596   6.092  0.6301  1.0327  0.8024
 9351TIP3   OH249467   1.471   4.187   4.753 -0.2075  0.5214  0.0679
 9351TIP3    H149468   1.458   4.113   4.812  0.1394  0.7541  0.4502
 9351TIP3    H249469   1.388   4.234   4.756 -1.1579 -0.9501 -1.7879
 9352TIP3   OH249470   2.500   2.094   0.135 -0.3331  0.6697  0.4174
 9352TIP3    H149471   2.486   2.140   0.052  1.2172 -0.4110 -0.5084
 9352TIP3    H249472   2.446   2.015   0.128 -0.3223  0.6538  0.5126
 9353TIP3   OH249473   1.748   5.378   1.485 -0.5094  0.3385 -0.4500
 9353TIP3    H149474   1.715   5.417   1.405  0.2362  3.6092  0.7084
 9353TIP3    H249475   1.811   5.441   1.519 -0.9139 -0.8021  2.8108
 9354TIP3   OH249476   1.195   5.940   1.785  0.1580 -0.5743  0.3592
 9354TIP3    H149477   1.227   5.920   1.873  2.4337 -0.1611 -0.3092
 9354TIP3    H249478   1.169   6.032   1.789  0.0818 -0.6066  0.6315
 9355TIP3   OH249479   3.766   2.028   0.127 -0.6262  0.6427 -0.9151
 9355TIP3    H149480   3.701   2.098   0.126 -0.9004  0.4274  0.1996
 9355TIP3    H249481   3.734   1.964   0.063 -1.1871  0.8262 -0.8253
 9356TIP3   OH249482   0.969   3.627   2.844 -0.9033 -0.0509  0.5547
 9356TIP3    H149483   0.946   3.677   2.765  0.7098 -0.0367  0.0606
 9356TIP3    H249484   0.977   3.693   2.913  0.6081  0.3343  0.0436
 9357TIP3   OH249485   4.155   0.015  16.483  0.7829  0.6237  0.2645
 9357TIP3    H149486   4.143   0.041  16.574  0.2071  0.7721  0.1508
 9357TIP3    H249487   4.151   0.098  16.434 -2.0360  0.3258 -0.2030
 9358TIP3   OH249488   6.222   0.734  13.950  0.4541 -0.1904  0.6909
 9358TIP3    H149489   6.313   0.724  13.978 -0.1303 -1.2503  2.3463
 9358TIP3    H249490   6.208   0.829  13.950  1.5626 -0.0032  0.3175
 9359TIP3   OH249491   4.774   0.772   5.459  0.4414 -0.1052  0.7835
 9359TIP3    H149492   4.689   0.729   5.466  0.0472  0.7518  1.4113
 9359TIP3    H249493   4.757   0.849   5.405  0.7622  0.2021  1.1189
 9360TIP3   OH249494   0.357   2.179  13.314  0.2368  0.1072 -0.1608
 9360TIP3    H149495   0.397   2.259  13.348 -1.8549  1.2773 -0.2145
 9360TIP3    H249496   0.274   2.173  13.362  1.0105 -2.9702  1.0028
 9361TIP3   OH249497   1.628   6.023  14.706 -0.0816 -0.5457 -0.4220
 9361TIP3    H149498   1.665   5.969  14.637 -1.7786 -0.6894 -1.2657
 9361TIP3    H249499   1.690   6.014  14.779  2.6551  0.9642 -2.4114
 9362TIP3   OH249500   4.011   3.820   5.909 -0.2583  0.3803 -0.2832
 9362TIP3    H149501   4.066   3.759   5.959 -1.1008  0.5627  0.9244
 9362TIP3    H249502   3.924   3.809   5.947 -0.5143  2.0302 -0.3121
 9363TIP3   OH249503   1.263   0.197  12.279  0.2018 -0.2102 -0.3187
 9363TIP3    H149504   1.340   0.249  12.301 -0.3099  1.3899 -2.0074
 9363TIP3    H249505   1.288   0.152  12.198 -0.4703 -0.0067 -0.6431
 9364TIP3   OH249506   6.600   3.752   5.806 -0.3613  0.3435 -0.3760
 9364TIP3    H149507   6.522   3.697   5.792 -1.9380  2.4311 -0.2260
 9364TIP3    H249508   6.635   3.767   5.718  0.2189 -1.0024 -0.4065
 9365TIP3   OH249509   6.676   5.970  13.923  0.8779 -0.3407  0.0162
 9365TIP3    H149510   6.718   6.055  13.932  0.3812  0.3694 -3.0643
 9365TIP3    H249511   6.717   5.931  13.845 -2.5763 -0.4507 -1.9676
 9366TIP3   OH249512   0.249   1.177   2.322  0.0386  0.6112  0.4556
 9366TIP3    H149513   0.340   1.148   2.330 -0.4353 -0.7629  1.1635
 9366TIP3    H249514   0.233   1.179   2.228  0.3088 -0.8580  0.3495
 9367TIP3   OH249515   4.528   4.795  16.670  0.3444  0.3140  0.2668
 9367TIP3    H149516   4.499   4.740  16.743  1.1092  0.7901  0.9539
 9367TIP3    H249517   4.458   4.859  16.659 -0.5895 -0.8094 -0.5883
 9368TIP3   OH249518   6.101   6.068  14.925  0.3264  0.2550 -0.3218
 9368TIP3    H149519   6.122   5.976  14.908  1.0315  0.4142 -0.3480
 9368TIP3    H249520   6.074   6.103  14.840  1.8331  0.5232 -0.7252
 9369TIP3   OH249521   6.671   3.253  11.618  0.7229 -0.5159 -0.1327
 9369TIP3    H149522   6.732   3.324  11.639  1.8261 -1.3051 -0.5474
 9369TIP3    H249523   6.656   3.262  11.524  1.1127 -0.9980 -0.2476
 9370TIP3   OH249524   2.519   2.967  11.438 -0.3569 -0.5042  0.5364
 9370TIP3    H149525   2.429   2.938  11.448 -0.4107 -0.2759  0.7306
 9370TIP3    H249526   2.568   2.915  11.502 -0.0900 -1.7738 -0.6664
 9371TIP3   OH249527   0.238   5.645   5.294  0.1229 -0.7101 -0.4444
 9371TIP3    H149528   0.163   5.666   5.238 -0.8016 -0.9101  0.6679
 9371TIP3    H249529   0.281   5.729   5.309 -1.9403  0.0685  1.7259
 9372TIP3   OH249530   1.282   5.746  15.622 -0.4769 -0.4937  0.4106
 9372TIP3    H149531   1.240   5.830  15.602  0.4796 -0.2213 -0.5516
 9372TIP3    H249532   1.354   5.740  15.560  0.3682 -1.3615  1.4458
 9373TIP3   OH249533   4.998   3.308   4.779 -0.1290 -0.1977  0.1048
 9373TIP3    H149534   5.065   3.312   4.711  1.1142 -1.3636  1.2241
 9373TIP3    H249535   5.046   3.315   4.861 -1.6796  2.1591  0.9255
 9374TIP3   OH249536   2.012   2.185  14.863  0.1093  0.2474 -0.1607
 9374TIP3    H149537   1.993   2.202  14.955  0.5911  0.1872 -0.0461
 9374TIP3    H249538   1.928   2.159  14.825  0.3080 -1.8834  0.7299
 9375TIP3   OH249539   3.979   4.792  14.871 -0.2703  0.2330  0.1415
 9375TIP3    H149540   3.956   4.771  14.962 -0.5058  0.5174  0.1492
 9375TIP3    H249541   4.061   4.745  14.856 -0.5887 -0.3788  0.2790
 9376TIP3   OH249542   3.282   4.810   4.575  0.9064  0.2858  0.2494
 9376TIP3    H149543   3.250   4.721   4.559  0.8289  0.4727 -0.7220
 9376TIP3    H249544   3.204   4.859   4.601  0.7493  0.3020 -0.2380
 9377TIP3   OH249545   6.484   1.977   2.862  0.3701  0.0950 -0.4093
 9377TIP3    H149546   6.566   1.942   2.827  1.3585  1.0006  0.9133
 9377TIP3    H249547   6.449   2.029   2.789  3.1266  3.1615  0.1571
 9378TIP3   OH249548   0.945   0.323  11.109 -0.2945 -0.0648  0.4469
 9378TIP3    H149549   0.897   0.296  11.031  2.1054 -0.9089 -0.8274
 9378TIP3    H249550   0.941   0.248  11.167 -0.0152 -0.3585  0.0889
 9379TIP3   OH249551   4.579   0.616  11.936  0.2805  0.0055  0.8036
 9379TIP3    H149552   4.616   0.702  11.919  1.8550 -0.5368  1.2836
 9379TIP3    H249553   4.488   0.623  11.908  0.6267  1.5305 -0.0671
 9380TIP3   OH249554   2.898   0.069   4.266  0.1428 -0.4837 -0.2357
 9380TIP3    H149555   2.877   0.084   4.174  0.0012 -1.0793 -0.3022
 9380TIP3    H249556   2.898   0.157   4.305  1.0664 -0.1374 -0.9732
 9381TIP3   OH249557   2.090   4.697   5.792  0.1998 -0.2416 -0.0299
 9381TIP3    H149558   2.073   4.760   5.722 -0.1417  1.0211  1.1169
 9381TIP3    H249559   2.082   4.611   5.751  0.2154  0.4567 -1.5596
 9382TIP3   OH249560   1.006   3.775  14.131  0.3707  0.2918  0.0143
 9382TIP3    H149561   0.918   3.778  14.094  0.4488 -0.8322 -0.3093
 9382TIP3    H249562   1.032   3.866  14.139 -1.8538  0.8147  2.6255
 9383TIP3   OH249563   5.879   6.196   4.522  0.3385 -0.0853  0.1071
 9383TIP3    H149564   5.894   6.112   4.566  0.5552 -0.3814 -0.5297
 9383TIP3    H249565   5.897   6.261   4.590 -1.7811 -0.5675  1.2068
 9384TIP3   OH249566   4.487   1.608   0.004  0.0416 -0.0487 -0.1808
 9384TIP3    H149567   4.467   1.634   0.093 -0.0227 -1.3687  0.2070
 9384TIP3    H249568   4.476   1.688  -0.048 -1.5549  0.3511  0.7297
 9385TIP3   OH249569   3.832   6.470   2.949 -0.1318  0.2984 -0.0238
 9385TIP3    H149570   3.920   6.438   2.966 -0.4255 -0.4829  0.0849
 9385TIP3    H249571   3.839   6.518   2.867  0.6431  1.3295  0.6253
 9386TIP3   OH249572   0.722   0.584  11.795 -0.6004  0.0290  0.6430
 9386TIP3    H149573   0.738   0.491  11.783 -2.4875 -0.5195  1.9404
 9386TIP3    H249574   0.645   0.603  11.740  1.0911  1.4000 -1.4215
 9387TIP3   OH249575   6.732   2.087   3.041  0.2878  0.3589 -0.0125
 9387TIP3    H149576   6.729   2.176   3.076  2.0418  0.4726 -0.0615
 9387TIP3    H249577   6.738   2.031   3.119  0.4654  0.3602 -0.0263
 9388TIP3   OH249578   4.804   2.574  12.715  0.0452 -0.1190  0.0355
 9388TIP3    H149579   4.791   2.669  12.718 -0.3733 -0.1729 -0.0140
 9388TIP3    H249580   4.796   2.546  12.806 -1.9242 -0.3697 -0.1745
 9389TIP3   OH249581   2.813   5.117  13.943  0.4204  0.1992  0.5717
 9389TIP3    H149582   2.795   5.045  13.883 -0.4072 -0.1765  1.2526
 9389TIP3    H249583   2.796   5.081  14.030  2.3281  0.5047  1.1235
 9390TIP3   OH249584   5.018   6.058   4.040  0.1745  0.0860 -0.2289
 9390TIP3    H149585   5.042   5.967   4.023 -1.0535 -0.3737  0.3640
 9390TIP3    H249586   5.102   6.104   4.049  0.8743 -1.4450  1.7667
 9391TIP3   OH249587   5.860   0.572  13.153  0.3488  0.1135 -1.2946
 9391TIP3    H149588   5.798   0.501  13.171 -0.9432  1.3088 -0.9182
 9391TIP3    H249589   5.845   0.636  13.222  1.1307  1.0145 -1.9239
 9392TIP3   OH249590   2.119   1.015  15.916  0.3242 -0.0602 -0.1676
 9392TIP3    H149591   2.081   0.928  15.905  1.5720 -0.5262 -0.9743
 9392TIP3    H249592   2.072   1.070  15.853  0.0596 -0.3126 -0.1929
 9393TIP3   OH249593   3.582   5.238  11.146 -0.7981  0.5743  0.6316
 9393TIP3    H149594   3.587   5.196  11.231 -1.9736  1.5785  1.2276
 9393TIP3    H249595   3.646   5.191  11.092  1.9937  1.6919  2.7753
 9394TIP3   OH249596   5.351   5.815  16.454 -0.2808  0.2313  0.7275
 9394TIP3    H149597   5.326   5.868  16.530  0.6698  1.0017  0.5237
 9394TIP3    H249598   5.447   5.820  16.452 -0.1645 -1.4951  0.6876
 9395TIP3   OH249599   5.373   1.917  13.691  0.2759 -0.3348 -0.0736
 9395TIP3    H149600   5.339   1.859  13.623 -0.7818 -1.1664  1.1239
 9395TIP3    H249601   5.322   1.998  13.681  1.5289  0.3202 -1.5342
 9396TIP3   OH249602   2.557   0.258  16.133 -0.3216  0.5382 -0.4143
 9396TIP3    H149603   2.463   0.245  16.116 -0.7453  2.7643 -0.0590
 9396TIP3    H249604   2.565   0.351  16.150  1.8270  0.2057  0.6338
 9397TIP3   OH249605   3.642   4.389   3.092  0.6145  0.0669  0.4119
 9397TIP3    H149606   3.669   4.352   3.008 -0.4521 -1.4475  0.7014
 9397TIP3    H249607   3.722   4.390   3.144  0.9741 -0.3778 -0.1175
 9398TIP3   OH249608   2.360   2.373  15.350 -0.1952 -0.1480 -0.1994
 9398TIP3    H149609   2.319   2.400  15.433 -1.1001  0.0367 -0.6871
 9398TIP3    H249610   2.449   2.349  15.374  0.0248  1.3210  0.5931
 9399TIP3   OH249611   2.730   6.232   0.850 -0.1564  0.4452  0.5356
 9399TIP3    H149612   2.687   6.181   0.781 -0.3254  0.7681  0.4022
 9399TIP3    H249613   2.797   6.173   0.885  0.5416  0.6099 -0.5212
 9400TIP3   OH249614   0.751   2.478   5.730  0.0694  0.4175  0.2327
 9400TIP3    H149615   0.715   2.542   5.792 -0.9808 -1.0490  1.1823
 9400TIP3    H249616   0.845   2.477   5.748 -0.3451 -0.7971  2.6261
 9401TIP3   OH249617   4.525   2.500   6.783  0.7735  0.0255  0.4422
 9401TIP3    H149618   4.593   2.495   6.716  1.2876 -4.0475  0.9854
 9401TIP3    H249619   4.444   2.509   6.734  1.3669  0.7389 -0.4566
 9402TIP3   OH249620   1.087   3.552   5.203  0.4461 -0.8483 -0.3385
 9402TIP3    H149621   1.086   3.637   5.245  0.9534  0.1001 -2.1391
 9402TIP3    H249622   1.066   3.490   5.273 -0.2627  0.7635  0.9306
 9403TIP3   OH249623   4.172   2.534   0.602 -0.4055  0.0158 -0.1328
 9403TIP3    H149624   4.143   2.559   0.515  1.7421  2.4937 -0.2624
 9403TIP3    H249625   4.153   2.610   0.657 -0.9379 -1.1704  1.4159
 9404TIP3   OH249626   3.482   0.526   0.588  0.7265 -0.4826 -0.0354
 9404TIP3    H149627   3.550   0.547   0.651  0.2961 -0.4922  0.4419
 9404TIP3    H249628   3.490   0.593   0.520  1.1910 -0.4700  0.0327
 9405TIP3   OH249629   5.925   5.494   2.761  0.3886 -0.1590 -0.5684
 9405TIP3    H149630   5.861   5.491   2.690 -0.6701 -1.6215  0.3622
 9405TIP3    H249631   5.874   5.474   2.840  1.5267  1.3631  0.6247
 9406TIP3   OH249632   6.603   1.076   5.104 -0.5790  0.6009 -0.5480
 9406TIP3    H149633   6.687   1.121   5.108 -1.2717  1.9481 -0.6927
 9406TIP3    H249634   6.543   1.139   5.064 -2.1791  0.4992  1.4786
 9407TIP3   OH249635   4.502   4.523  12.929  0.2777 -0.3884  0.2765
 9407TIP3    H149636   4.482   4.532  13.022  0.5139 -0.3287  0.3244
 9407TIP3    H249637   4.417   4.523  12.886  0.1908  1.2992  0.3519
 9408TIP3   OH249638   6.492   1.981   4.172  0.0176 -0.2022 -0.2165
 9408TIP3    H149639   6.560   2.049   4.169  0.0199 -0.2039 -0.1935
 9408TIP3    H249640   6.478   1.964   4.265  1.3969 -1.6030 -0.2236
 9409TIP3   OH249641   3.797   2.799   6.191  0.2636  0.0541  0.1576
 9409TIP3    H149642   3.889   2.812   6.212  0.2065  1.0269 -0.1381
 9409TIP3    H249643   3.753   2.799   6.276  0.7185 -2.2014  0.4350
 9410TIP3   OH249644   0.562   0.229   5.906 -0.1403  0.4591 -0.2075
 9410TIP3    H149645   0.551   0.140   5.939  1.0866  0.3338 -0.0723
 9410TIP3    H249646   0.541   0.224   5.813 -3.6317  0.8130  0.4352
 9411TIP3   OH249647   1.908   0.243   4.834 -0.0628  0.3143  0.3671
 9411TIP3    H149648   1.945   0.214   4.750  0.2357  1.0756  0.2288
 9411TIP3    H249649   1.841   0.306   4.810  0.0359  0.5457  0.7039
 9412TIP3   OH249650   0.320   1.831   3.969 -0.1486  0.2039  0.4232
 9412TIP3    H149651   0.356   1.843   4.057 -0.0914 -1.1201  0.5932
 9412TIP3    H249652   0.354   1.746   3.940  0.5553  0.9921 -1.2372
 9413TIP3   OH249653   1.859   2.506  12.318  0.0236  0.0226 -0.0411
 9413TIP3    H149654   1.865   2.469  12.406  0.5731 -0.7662 -0.4086
 9413TIP3    H249655   1.836   2.432  12.262  0.5167  0.3521 -0.6886
 9414TIP3   OH249656   2.785   4.283   5.621 -0.3490  0.2301 -0.1817
 9414TIP3    H149657   2.720   4.229   5.664 -0.3493  1.0589  0.9135
 9414TIP3    H249658   2.774   4.370   5.661 -0.2083  0.9877 -1.7222
 9415TIP3   OH249659   2.187   2.054  14.700 -0.0569 -0.2427 -0.0284
 9415TIP3    H149660   2.149   2.100  14.774 -0.5315  0.5107 -0.7265
 9415TIP3    H249661   2.130   2.075  14.626 -0.1247 -1.7110 -0.4349
 9416TIP3   OH249662   1.521   3.831  16.315  0.3319 -0.1903 -0.3738
 9416TIP3    H149663   1.494   3.826  16.223  0.3920  0.5763 -0.4356
 9416TIP3    H249664   1.483   3.753  16.355 -0.2635 -0.1779 -0.9036
 9417TIP3   OH249665   1.283   4.739   0.990  0.0072  0.0016  0.9546
 9417TIP3    H149666   1.298   4.677   0.919 -0.7588 -1.3341  1.9104
 9417TIP3    H249667   1.314   4.823   0.956  1.1851 -0.9175 -0.3287
 9418TIP3   OH249668   1.205   3.855   5.187  0.6156 -0.0914 -0.2009
 9418TIP3    H149669   1.115   3.873   5.212  0.1353 -1.4095 -0.8474
 9418TIP3    H249670   1.228   3.924   5.125  0.0907  0.3019  0.0420
 9419TIP3   OH249671   2.767   4.812   0.986  0.1483  0.0348 -0.1472
 9419TIP3    H149672   2.686   4.863   0.998  1.1022  1.1003  2.5323
 9419TIP3    H249673   2.764   4.747   1.055  1.5328  0.0181 -0.0870
 9420TIP3   OH249674   5.794   2.536   5.910  0.4081 -0.6768  0.1044
 9420TIP3    H149675   5.763   2.606   5.853 -1.1227 -2.1266 -0.9030
 9420TIP3    H249676   5.817   2.581   5.992 -0.2611  1.0312 -0.5967
 9421TIP3   OH249677   5.769   5.143  11.110  0.2796 -0.2773 -0.4562
 9421TIP3    H149678   5.692   5.106  11.067  0.3871  0.3922 -1.2435
 9421TIP3    H249679   5.832   5.156  11.039  0.3216  1.2161 -0.1706
 9422TIP3   OH249680   5.446   6.146  15.910  0.4770  0.0640 -0.0035
 9422TIP3    H149681   5.532   6.184  15.926 -0.1753  0.6560  2.6315
 9422TIP3    H249682   5.391   6.220  15.886  0.1584  0.1194  0.8666
 9423TIP3   OH249683   0.118   4.126   3.300 -0.3883 -0.5205  0.1820
 9423TIP3    H149684   0.169   4.102   3.378 -0.8456 -0.4283  0.5085
 9423TIP3    H249685   0.184   4.158   3.238 -0.2117  1.3338  1.2572
 9424TIP3   OH249686   4.423   3.316  11.003 -0.5603 -0.1401  0.0896
 9424TIP3    H149687   4.347   3.258  10.999  0.4606 -1.5443  0.1711
 9424TIP3    H249688   4.491   3.270  10.953  0.2337  1.0844  0.0015
 9425TIP3   OH249689   4.559   5.026  16.427 -0.2510  0.3401 -0.0648
 9425TIP3    H149690   4.572   4.993  16.338 -1.1941  1.7485 -0.7586
 9425TIP3    H249691   4.464   5.037  16.434 -0.2891 -0.6009  1.4594
 9426TIP3   OH249692   2.510   5.984  13.120 -0.2823  0.0381 -0.0535
 9426TIP3    H149693   2.557   5.965  13.201  1.9026 -0.3278 -1.3078
 9426TIP3    H249694   2.482   6.075  13.130 -0.3981 -0.1193  1.2505
 9427TIP3   OH249695   6.720   1.221   5.392  0.0224 -0.2563  0.3902
 9427TIP3    H149696   6.753   1.132   5.392  1.7575  0.3423  1.1997
 9427TIP3    H249697   6.701   1.240   5.300  1.1980 -0.9198 -0.0068
 9428TIP3   OH249698   1.668   2.539   2.931  0.7777  0.2127 -0.0207
 9428TIP3    H149699   1.736   2.589   2.888  1.9819  0.6780  2.2497
 9428TIP3    H249700   1.690   2.448   2.914  0.4892  0.3841 -1.3937
 9429TIP3   OH249701   5.323   1.721  17.281  0.3273 -0.0250  0.0560
 9429TIP3    H149702   5.279   1.738  17.197 -2.0152 -1.0962  0.9637
 9429TIP3    H249703   5.358   1.806  17.307  1.1634  0.3230 -1.9964
 9430TIP3   OH249704   6.485   4.583   2.381  0.3228 -0.3321  0.3000
 9430TIP3    H149705   6.498   4.630   2.463  2.4658  3.5402 -1.9593
 9430TIP3    H249706   6.561   4.526   2.373 -0.2985 -1.3339  1.2746
 9431TIP3   OH249707   5.402   6.632   1.739 -0.1108  0.1197  0.0949
 9431TIP3    H149708   5.476   6.594   1.787  0.5468 -0.0756 -1.0160
 9431TIP3    H249709   5.342   6.559   1.726  0.0729 -0.0105 -0.0383
 9432TIP3   OH249710   6.133   4.254  14.788  0.4021  0.3192  0.0866
 9432TIP3    H149711   6.057   4.213  14.829  1.7148 -2.1347  0.2491
 9432TIP3    H249712   6.192   4.272  14.861  2.3743 -3.2519 -0.4348
 9433TIP3   OH249713   6.343   2.884   5.508  0.4078  0.1644  0.0297
 9433TIP3    H149714   6.294   2.818   5.460 -1.8789  1.2017  0.8180
 9433TIP3    H249715   6.430   2.845   5.520 -0.6058 -2.3536 -0.2254
 9434TIP3   OH249716   2.774   4.352  14.255  0.6234  0.3747 -0.3826
 9434TIP3    H149717   2.701   4.372  14.196  1.0680 -0.6858 -1.3367
 9434TIP3    H249718   2.815   4.274  14.217  0.9678 -0.3233  1.2988
 9435TIP3   OH249719   6.741   1.688   2.485 -0.1983 -0.4492  0.7219
 9435TIP3    H149720   6.803   1.614   2.484 -0.2103 -0.4602 -0.4114
 9435TIP3    H249721   6.655   1.647   2.482 -0.2007 -0.4285 -1.2982
 9436TIP3   OH249722   5.854   6.268   3.179  0.3603  0.7030 -0.5662
 9436TIP3    H149723   5.807   6.235   3.102 -0.0149  1.1175 -0.5201
 9436TIP3    H249724   5.829   6.209   3.250  0.1637  0.7286 -0.6146
 9437TIP3   OH249725   2.932   3.797   0.553 -0.2075 -0.2855 -0.4504
 9437TIP3    H149726   2.915   3.720   0.608  1.5025 -2.1300 -2.3682
 9437TIP3    H249727   2.858   3.800   0.492 -1.0426  0.5443  0.5571
 9438TIP3   OH249728   1.739   1.818   1.527 -0.6009 -0.0024  0.7571
 9438TIP3    H149729   1.707   1.728   1.538 -0.7045 -0.1221 -0.4239
 9438TIP3    H249730   1.796   1.814   1.450  0.7474  0.6145  1.6802
 9439TIP3   OH249731   1.238   0.179   0.455 -0.4674 -0.2557 -0.0258
 9439TIP3    H149732   1.162   0.237   0.449 -1.3358 -1.4496 -1.0938
 9439TIP3    H249733   1.248   0.143   0.367 -1.4848 -3.5604  1.0708
 9440TIP3   OH249734   2.915   2.738  13.827  0.5630  0.0710 -0.2098
 9440TIP3    H149735   2.868   2.682  13.888  2.0230  0.4634  1.3770
 9440TIP3    H249736   2.996   2.690  13.809  0.1745 -0.0090 -1.8247
 9441TIP3   OH249737   5.959   1.279   3.550  0.3513 -0.1982  0.1079
 9441TIP3    H149738   6.047   1.304   3.577  0.4499 -0.0210 -0.3516
 9441TIP3    H249739   5.952   1.186   3.571  0.8175 -0.3242 -0.2818
 9442TIP3   OH249740   3.008   4.880   3.326 -0.2715  0.1469  0.2537
 9442TIP3    H149741   3.074   4.882   3.395 -2.2553 -1.2170  2.3325
 9442TIP3    H249742   2.982   4.971   3.315 -2.4613  0.1670  4.0649
 9443TIP3   OH249743   3.280   5.030   0.142  0.2134  0.1761  0.1580
 9443TIP3    H149744   3.329   5.102   0.182  1.8022 -1.7242  1.8242
 9443TIP3    H249745   3.190   5.060   0.141  0.8585  2.2913  0.5302
 9444TIP3   OH249746   5.992   4.364   1.765 -0.4373 -0.0734 -0.0892
 9444TIP3    H149747   5.920   4.422   1.743  1.1503  1.3123 -1.9643
 9444TIP3    H249748   5.978   4.286   1.711 -1.0078 -0.2226  0.2616
 9445TIP3   OH249749   2.311   0.025  17.267  0.4109  0.2658 -0.1572
 9445TIP3    H149750   2.380   0.081  17.233 -0.3442  1.2173 -0.1711
 9445TIP3    H249751   2.329   0.019  17.361  0.8104  0.0624 -0.2429
 9446TIP3   OH249752   0.877   2.978  15.223  0.4652 -0.1890  0.6419
 9446TIP3    H149753   0.843   3.052  15.272  2.0123  0.0352  1.4440
 9446TIP3    H249754   0.934   2.931  15.285 -0.0375 -1.7374 -0.0004
 9447TIP3   OH249755   6.771   1.686   3.060  0.2578 -0.2892 -0.3648
 9447TIP3    H149756   6.738   1.748   3.125  0.0698 -2.4543  1.7222
 9447TIP3    H249757   6.858   1.718   3.038  0.6291  0.1160  1.5506
 9448TIP3   OH249758   6.580   6.202   4.527 -0.4930 -0.7538 -0.1336
 9448TIP3    H149759   6.656   6.257   4.545 -0.8299 -0.5678  0.7660
 9448TIP3    H249760   6.505   6.257   4.550 -0.8833 -1.1349 -0.4787
 9449TIP3   OH249761   5.865   6.623   5.924  0.5846 -0.0610 -0.1310
 9449TIP3    H149762   5.847   6.561   5.853  0.7815  0.5269 -0.7162
 9449TIP3    H249763   5.825   6.705   5.894  0.3529  0.1057  0.6129
 9450TIP3   OH249764   0.446   1.764   1.543  0.5937 -0.5721 -0.6268
 9450TIP3    H149765   0.442   1.680   1.588  2.2747 -0.6806 -0.5842
 9450TIP3    H249766   0.402   1.749   1.460 -3.1952 -0.1825  1.1145
 9451TIP3   OH249767   6.671   6.470   6.671 -0.2373  0.1365  0.2567
 9451TIP3    H149768   6.742   6.534   6.675  1.0315 -1.2494  2.1820
 9451TIP3    H249769   6.703   6.403   6.609 -1.6545  1.3775 -1.9263
 9452TIP3   OH249770   4.784   0.121  14.114  0.0205  0.0973 -0.1085
 9452TIP3    H149771   4.808   0.143  14.204  1.8918 -0.7039 -0.3658
 9452TIP3    H249772   4.750   0.032  14.120  0.9196 -0.2661 -0.2890
 9453TIP3   OH249773   6.390   4.227  12.559  0.6400 -0.5141  0.1734
 9453TIP3    H149774   6.347   4.279  12.627 -0.4810 -0.3582 -0.6234
 9453TIP3    H249775   6.318   4.181  12.516  1.4326 -1.3198 -0.3215
 9454TIP3   OH249776   5.688   1.508  14.095  0.4851 -0.0711 -0.1589
 9454TIP3    H149777   5.637   1.431  14.120 -0.8580  0.0815 -2.2379
 9454TIP3    H249778   5.773   1.473  14.067  0.2254 -0.7008 -0.1615
 9455TIP3   OH249779   1.009   5.548   5.792  0.2057  0.3479 -0.3814
 9455TIP3    H149780   1.083   5.571   5.736 -0.6100  1.5079 -1.0150
 9455TIP3    H249781   1.043   5.558   5.881  1.1104 -0.1641 -0.6581
 9456TIP3   OH249782   2.762   4.320  11.726  0.0451  0.2049 -0.1796
 9456TIP3    H149783   2.840   4.303  11.673  0.3599 -1.1189  0.6776
 9456TIP3    H249784   2.704   4.246  11.707 -0.5650  0.6354 -0.0070
 9457TIP3   OH249785   2.153   3.068  17.359  0.0232  0.5508 -0.8481
 9457TIP3    H149786   2.221   3.057  17.292  1.9121  3.6050  0.3533
 9457TIP3    H249787   2.074   3.091  17.310  0.5905 -0.1288 -2.1251
 9458TIP3   OH249788   0.649   4.440   1.886  0.0225 -0.4577  0.3308
 9458TIP3    H149789   0.619   4.430   1.976  0.9326 -1.1827  0.5660
 9458TIP3    H249790   0.672   4.352   1.857  3.3327  0.1363  0.7059
 9459TIP3   OH249791   2.150   6.550  12.042 -0.1129 -0.6350 -0.8857
 9459TIP3    H149792   2.152   6.568  12.136  0.7492 -3.8720 -0.1588
 9459TIP3    H249793   2.178   6.632  12.001  2.4064  0.0262  1.8472
 9460TIP3   OH249794   2.540   4.043   5.333  0.4987  0.2442  0.0897
 9460TIP3    H149795   2.614   4.103   5.343  0.7855 -0.3326  1.5715
 9460TIP3    H249796   2.484   4.061   5.408  0.2676 -0.8972  0.2010
 9461TIP3   OH249797   4.554   4.477   0.910  0.6185  0.3513  0.3072
 9461TIP3    H149798   4.485   4.519   0.857 -1.4557 -1.0966  1.6913
 9461TIP3    H249799   4.554   4.526   0.992  0.9316  0.0475  0.4882
 9462TIP3   OH249800   6.046   3.218   2.435 -0.2782 -0.0137  0.6408
 9462TIP3    H149801   6.077   3.275   2.364  0.2353  0.7689  1.4762
 9462TIP3    H249802   5.954   3.241   2.444 -0.1189  0.5624  0.8485
 9463TIP3   OH249803   6.526   6.319   4.949  0.3810 -0.2282 -0.2095
 9463TIP3    H149804   6.478   6.319   4.866  0.5610  0.7294 -0.3304
 9463TIP3    H249805   6.458   6.322   5.016  0.2067  2.6126 -0.3964
 9464TIP3   OH249806   3.479   5.173   0.343 -0.5468  0.1447  0.2526
 9464TIP3    H149807   3.549   5.176   0.408  0.0633 -0.4327 -0.3678
 9464TIP3    H249808   3.399   5.189   0.393 -0.1860 -1.1334  1.3047
 9465TIP3   OH249809   5.787   0.490   1.821 -0.1073  0.1973 -0.0222
 9465TIP3    H149810   5.737   0.418   1.860  1.5555 -0.6901  0.5303
 9465TIP3    H249811   5.722   0.538   1.769 -1.2446 -1.7469 -0.4915
 9466TIP3   OH249812   2.241   0.129  13.921  0.1612 -0.1443 -0.1237
 9466TIP3    H149813   2.301   0.147  13.993 -0.3220 -0.7647  0.4509
 9466TIP3    H249814   2.157   0.164  13.951 -0.1753 -0.9273 -0.1196
 9467TIP3   OH249815   0.077   0.268  11.131 -0.0872  0.3263  0.4766
 9467TIP3    H149816  -0.011   0.283  11.166 -0.3093  3.3099 -1.0957
 9467TIP3    H249817   0.065   0.199  11.066 -0.8559 -0.6416  1.5955
 9468TIP3   OH249818   1.939   2.527  13.614  0.6181 -0.7532  0.1100
 9468TIP3    H149819   1.954   2.564  13.701 -2.1514  0.3294  0.2040
 9468TIP3    H249820   1.985   2.442  13.617  0.2247 -0.9808  2.7965
 9469TIP3   OH249821   6.118   0.341   1.993  0.5871 -0.2395 -0.1878
 9469TIP3    H149822   6.031   0.303   1.979 -0.0332  1.2392 -0.5995
 9469TIP3    H249823   6.176   0.266   2.006 -0.7620 -1.2547  0.1784
 9470TIP3   OH249824   3.176   2.154  14.037 -0.1861  0.0178  0.3979
 9470TIP3    H149825   3.096   2.140  13.986 -1.0042  1.5214  1.1811
 9470TIP3    H249826   3.239   2.091  14.002 -1.6109 -0.9853 -0.4611
 9471TIP3   OH249827   1.555   0.405  14.126 -0.2712  1.0793 -0.2943
 9471TIP3    H149828   1.643   0.432  14.099  0.4504 -0.3177  0.5466
 9471TIP3    H249829   1.534   0.462  14.200  0.5052  0.4966  0.3756
 9472TIP3   OH249830   4.233   5.585   4.388  0.5064 -0.0882  0.2803
 9472TIP3    H149831   4.284   5.633   4.453  1.5491 -0.0546 -0.5377
 9472TIP3    H249832   4.288   5.511   4.364  0.0998 -0.1566 -0.4843
 9473TIP3   OH249833   1.144   1.618  14.972  0.3188 -0.3051 -0.3481
 9473TIP3    H149834   1.192   1.699  14.988  0.1594 -0.5579  1.6192
 9473TIP3    H249835   1.055   1.646  14.951  0.0719  0.0350  1.0822
 9474TIP3   OH249836   5.331   0.239   0.865  0.3127  0.0375 -0.0413
 9474TIP3    H149837   5.350   0.316   0.918  1.2139 -0.5023  0.4548
 9474TIP3    H249838   5.374   0.167   0.912  1.5888 -0.3817 -1.7726
 9475TIP3   OH249839   5.811   1.335  15.709 -0.0268  0.3018 -0.0448
 9475TIP3    H149840   5.871   1.281  15.761 -0.5455 -0.0458  0.1909
 9475TIP3    H249841   5.820   1.301  15.620 -0.4596 -0.2608  0.1300
 9476TIP3   OH249842   6.558   4.815   1.581  0.5232  0.1305 -0.6408
 9476TIP3    H149843   6.535   4.764   1.659  1.9493  1.4633  0.7339
 9476TIP3    H249844   6.477   4.823   1.532  0.1008 -2.8337 -0.5818
 9477TIP3   OH249845   5.322   0.862   2.880  0.4854  0.2606 -0.4816
 9477TIP3    H149846   5.231   0.872   2.909  0.0301 -1.5271 -1.1776
 9477TIP3    H249847   5.373   0.909   2.946 -0.8431  0.1430  0.6880
 9478TIP3   OH249848   1.352   4.185   5.393  0.3488 -0.4198  0.2806
 9478TIP3    H149849   1.296   4.114   5.424 -0.7416  0.6865  0.9640
 9478TIP3    H249850   1.323   4.202   5.304  0.2722 -0.5174  0.2878
 9479TIP3   OH249851   0.440   5.905  14.831  0.4840 -0.3686  0.0732
 9479TIP3    H149852   0.511   5.960  14.864  1.1264 -1.3664  0.3960
 9479TIP3    H249853   0.478   5.859  14.756 -0.3997  0.4678 -0.9373
 9480TIP3   OH249854   2.890   4.246   0.226 -0.0899  0.5063  0.3870
 9480TIP3    H149855   2.951   4.218   0.294 -0.3688  0.0156  0.4347
 9480TIP3    H249856   2.873   4.338   0.246 -1.4345 -0.0362  1.9554
 9481TIP3   OH249857   4.547   5.081  11.946  0.4793  0.1306 -0.0346
 9481TIP3    H149858   4.604   5.047  11.878  1.1466 -0.4567  0.7989
 9481TIP3    H249859   4.599   5.151  11.988  0.3428  0.0271  0.3134
 9482TIP3   OH249860   6.156   1.043   2.855  0.0525 -0.4964  0.3295
 9482TIP3    H149861   6.110   0.959   2.856 -0.6983 -0.1698 -1.4385
 9482TIP3    H249862   6.091   1.104   2.820  1.4149  0.2473 -1.0051
 9483TIP3   OH249863   6.019   0.537  16.752  0.2162  0.6593  0.6524
 9483TIP3    H149864   5.961   0.613  16.758  0.1515  0.6341  0.3831
 9483TIP3    H249865   6.016   0.498  16.839 -0.3216  0.5511  0.5932
 9484TIP3   OH249866   5.777   0.113  14.608 -0.5318  0.0824  0.3327
 9484TIP3    H149867   5.813   0.054  14.542  0.5268  0.0802  0.8874
 9484TIP3    H249868   5.808   0.078  14.691  1.5864  2.3341  0.5987
 9485TIP3   OH249869   3.212   0.869  12.564  0.2592  0.1325  0.4149
 9485TIP3    H149870   3.190   0.880  12.657 -0.5173  0.6455  0.1893
 9485TIP3    H249871   3.167   0.788  12.538  0.9602 -0.3275  0.6229
 9486TIP3   OH249872   6.467   3.535   0.672 -0.3358 -0.1786  0.2365
 9486TIP3    H149873   6.520   3.493   0.740 -0.1804  0.3356  0.4391
 9486TIP3    H249874   6.377   3.521   0.699 -0.2715  0.1400  0.6237
 9487TIP3   OH249875   4.464   0.838   5.855 -0.1793  0.2168 -0.1091
 9487TIP3    H149876   4.475   0.776   5.782  1.2353  0.9200 -0.5194
 9487TIP3    H249877   4.376   0.819   5.888 -0.6549 -0.4929 -1.6472
 9488TIP3   OH249878   4.748   2.329  12.235  0.1224 -0.0176  0.6934
 9488TIP3    H149879   4.773   2.371  12.153  1.7475 -1.4969  0.3533
 9488TIP3    H249880   4.747   2.236  12.215 -1.0789 -0.3088  1.9707
 9489TIP3   OH249881   4.604   2.919   2.370  0.6150  0.1595  0.7410
 9489TIP3    H149882   4.650   2.839   2.343 -1.6227 -0.6402 -1.1024
 9489TIP3    H249883   4.529   2.888   2.419 -0.5539  1.0513 -0.4121
 9490TIP3   OH249884   2.722   5.702  12.175  0.2213  0.5047 -0.4503
 9490TIP3    H149885   2.685   5.786  12.203 -0.1608  0.3413 -0.4565
 9490TIP3    H249886   2.728   5.709  12.080 -2.1363 -0.3706 -0.7469
 9491TIP3   OH249887   2.189   1.995   0.761  0.1554  0.4776  0.1748
 9491TIP3    H149888   2.228   1.926   0.816 -0.3561  0.8943  1.0803
 9491TIP3    H249889   2.264   2.040   0.722  0.6243 -3.1515 -3.8761
 9492TIP3   OH249890   6.372   1.937   1.753  0.2475 -0.2504  0.2231
 9492TIP3    H149891   6.327   1.910   1.833 -1.2535  0.0826 -0.4756
 9492TIP3    H249892   6.306   1.985   1.702  0.6290 -1.8624 -1.9645
 9493TIP3   OH249893   5.971   2.749  15.093  0.2738 -0.5501  0.2591
 9493TIP3    H149894   6.025   2.826  15.079 -0.5998 -0.0219 -0.3355
 9493TIP3    H249895   5.893   2.765  15.040 -1.0302 -0.7218  2.0376
 9494TIP3   OH249896   1.871   6.609  11.164  0.0803 -0.4351  0.5188
 9494TIP3    H149897   1.956   6.571  11.186 -0.1115 -1.9755 -1.1759
 9494TIP3    H249898   1.886   6.704  11.165  1.9331 -0.6864 -0.1153
 9495TIP3   OH249899   0.893   3.516   5.556 -0.0430 -0.2260  0.2502
 9495TIP3    H149900   0.826   3.474   5.502  0.4765  1.5367 -1.8767
 9495TIP3    H249901   0.844   3.552   5.630 -0.9563 -1.6012  0.3564
 9496TIP3   OH249902   3.790   3.470   6.683 -0.1962 -0.0289  0.1332
 9496TIP3    H149903   3.867   3.522   6.660  0.1072 -1.2991 -1.9451
 9496TIP3    H249904   3.718   3.534   6.684  0.4947  0.7806 -0.2359
 9497TIP3   OH249905   1.329   4.244   0.505  0.2056  0.3993 -0.9013
 9497TIP3    H149906   1.260   4.230   0.570  0.3296  1.4021 -0.5204
 9497TIP3    H249907   1.330   4.165   0.452  0.6688 -0.8233  0.8587
 9498TIP3   OH249908   4.882   3.822  15.096  0.2130 -0.2967  0.4552
 9498TIP3    H149909   4.966   3.776  15.104  0.6322  0.3939  0.1338
 9498TIP3    H249910   4.866   3.826  15.002  0.2953  0.4053  0.4679
 9499TIP3   OH249911   5.133   2.050   6.344  0.0767  0.0236 -0.2168
 9499TIP3    H149912   5.152   2.137   6.310  0.2185 -0.3665 -1.1469
 9499TIP3    H249913   5.128   1.994   6.267  0.1803 -0.8352  0.3865
 9500TIP3   OH249914   0.676   6.380  12.198 -0.1291 -0.0823 -0.2878
 9500TIP3    H149915   0.735   6.446  12.235 -1.6240  0.5152  1.1755
 9500TIP3    H249916   0.706   6.369  12.108  0.0306  2.7718 -0.6736
 9501TIP3   OH249917   2.638   6.725   5.545  0.3756  0.4865  0.0682
 9501TIP3    H149918   2.698   6.786   5.587  1.9236 -0.7975 -0.1992
 9501TIP3    H249919   2.560   6.726   5.600  0.7846  1.8730  0.6579
 9502TIP3   OH249920   3.520   2.044   5.738 -0.3353  0.6643  0.2082
 9502TIP3    H149921   3.429   2.038   5.767 -1.3801  1.1521 -2.6239
 9502TIP3    H249922   3.520   2.114   5.673  2.1350  0.8180  0.2850
 9503TIP3   OH249923   6.522   3.780   3.433 -0.2134  0.1904 -0.0539
 9503TIP3    H149924   6.596   3.834   3.460  0.5401 -0.5459 -0.5608
 9503TIP3    H249925   6.457   3.842   3.400  0.2747  0.8331  0.1736
 9504TIP3   OH249926   1.922   0.282  15.232  0.7977 -0.3850 -0.2647
 9504TIP3    H149927   2.002   0.323  15.199  0.2588  0.2554 -0.8028
 9504TIP3    H249928   1.874   0.257  15.153  0.5441 -0.9387  0.0574
 9505TIP3   OH249929   6.671   1.389   1.181  0.2177  1.2537  0.1950
 9505TIP3    H149930   6.739   1.411   1.117 -1.9467  2.2233 -1.9080
 9505TIP3    H249931   6.619   1.470   1.189 -2.7895 -0.4039 -1.0577
 9506TIP3   OH249932   1.559   0.763  13.879 -0.0192  0.0630  0.1187
 9506TIP3    H149933   1.495   0.695  13.858  0.3774  0.2058 -1.7747
 9506TIP3    H249934   1.508   0.843  13.886 -0.2267 -0.0695  0.1230
 9507TIP3   OH249935   1.561   5.433  14.849  0.7519  0.4904 -0.2331
 9507TIP3    H149936   1.605   5.439  14.933  3.7659 -0.2227 -1.6222
 9507TIP3    H249937   1.552   5.524  14.820  1.7301  0.6424 -0.0918
 9508TIP3   OH249938   0.065   1.213   3.961 -0.4873 -0.0892  0.3643
 9508TIP3    H149939   0.091   1.254   4.043 -0.2171  0.0360  0.2186
 9508TIP3    H249940   0.084   1.120   3.974 -1.5619 -0.2521  0.8748
 9509TIP3   OH249941   5.321   2.306  14.091 -0.3774 -0.4141 -1.0202
 9509TIP3    H149942   5.282   2.227  14.053  0.7410 -2.0878  1.0988
 9509TIP3    H249943   5.406   2.314  14.047 -0.6099 -0.1882 -1.4413
 9510TIP3   OH249944   0.531   3.096  12.416  0.6893  0.1703  0.4481
 9510TIP3    H149945   0.556   3.005  12.431 -1.1002 -0.6292 -1.0149
 9510TIP3    H249946   0.569   3.117  12.331 -1.3452 -0.2478 -0.6201
 9511TIP3   OH249947   4.639   1.572   6.048  0.0521 -0.1963  0.1688
 9511TIP3    H149948   4.651   1.478   6.063  0.2493  0.0336  1.5191
 9511TIP3    H249949   4.585   1.601   6.122  0.5790  0.8873  0.1375
 9512TIP3   OH249950   5.153   5.786   0.863 -0.4585  0.1544  0.1933
 9512TIP3    H149951   5.122   5.867   0.903 -1.4167 -0.0614 -0.0902
 9512TIP3    H249952   5.133   5.718   0.929  0.7313  0.1904  0.6143
 9513TIP3   OH249953   2.442   1.039  13.319 -0.3090 -0.3589  0.7830
 9513TIP3    H149954   2.372   1.084  13.271  0.7492  2.3995  1.6194
 9513TIP3    H249955   2.408   1.034  13.409  0.3469  0.5363  1.0871
 9514TIP3   OH249956   1.825   4.411  16.057  0.0224  0.1079  0.2678
 9514TIP3    H149957   1.754   4.459  16.016 -0.8410 -0.2524  1.3033
 9514TIP3    H249958   1.877   4.478  16.101 -0.7788  0.1919  1.1168
 9515TIP3   OH249959   3.661   5.761  16.152 -0.4105 -0.0369  0.3374
 9515TIP3    H149960   3.668   5.773  16.057  0.0786 -0.6790  0.2798
 9515TIP3    H249961   3.681   5.668  16.166  2.2017  0.5520  1.2778
 9516TIP3   OH249962   1.490   0.272   1.490  0.0662 -0.4077 -0.4749
 9516TIP3    H149963   1.491   0.177   1.482  0.4240 -0.5594  1.0636
 9516TIP3    H249964   1.401   0.293   1.516  0.1746 -0.3899 -0.1179
 9517TIP3   OH249965   3.388   1.930   2.844 -0.1546  0.3695 -0.0633
 9517TIP3    H149966   3.396   1.881   2.762 -1.4419 -2.2896  1.2477
 9517TIP3    H249967   3.440   1.879   2.906 -0.7478  1.2383  1.1725
 9518TIP3   OH249968   1.318   0.514   1.801  0.4454  0.2090  0.4071
 9518TIP3    H149969   1.387   0.495   1.864  0.4058 -1.4508  0.0114
 9518TIP3    H249970   1.326   0.445   1.735  1.0138  2.3418 -1.8881
 9519TIP3   OH249971   4.351   6.041   2.342 -0.5270  0.5123 -0.0992
 9519TIP3    H149972   4.424   6.031   2.281 -0.9176  1.5119 -0.7521
 9519TIP3    H249973   4.375   6.115   2.398 -0.9984  0.8017 -0.2695
 9520TIP3   OH249974   4.633   3.760  12.174 -0.0072  0.2166 -0.1211
 9520TIP3    H149975   4.699   3.825  12.151 -0.9711  0.5744 -2.0855
 9520TIP3    H249976   4.644   3.690  12.108 -0.7284 -0.3277  0.3163
 9521TIP3   OH249977   6.501   6.461  16.803  0.0115 -0.6033 -0.0100
 9521TIP3    H149978   6.535   6.390  16.858  2.2210  0.6170  0.3186
 9521TIP3    H249979   6.556   6.458  16.725  1.4346  1.8462  0.7954
 9522TIP3   OH249980   3.626   1.541  12.017 -0.6545  0.4415  0.0773
 9522TIP3    H149981   3.637   1.573  11.928  0.0933  0.9016  0.3278
 9522TIP3    H249982   3.563   1.469  12.009  1.5798 -1.5270 -1.3063
 9523TIP3   OH249983   4.865   6.303  14.146 -0.0679  0.3780 -0.1635
 9523TIP3    H149984   4.776   6.275  14.126 -0.3446  1.5068 -0.5995
 9523TIP3    H249985   4.920   6.227  14.125 -0.9684 -0.4974  0.5980
 9524TIP3   OH249986   0.713   4.702  10.716 -0.3669 -0.0807 -0.0863
 9524TIP3    H149987   0.656   4.758  10.662 -2.0715 -0.1619  1.5260
 9524TIP3    H249988   0.728   4.624  10.663  1.4479  1.4877 -2.0832
 9525TIP3   OH249989   1.072   4.739  16.795  0.4399  0.0057  0.0167
 9525TIP3    H149990   1.130   4.665  16.776  2.5220  1.5633  0.0446
 9525TIP3    H249991   0.989   4.715  16.753  0.6663 -2.8176  0.9592
 9526TIP3   OH249992   4.955   4.819   6.140 -0.3064  0.1135 -0.1526
 9526TIP3    H149993   4.927   4.882   6.206 -0.5459  1.2076 -1.2512
 9526TIP3    H249994   5.017   4.762   6.185 -1.6558 -0.1977  1.4278
 9527TIP3   OH249995   1.817   4.757   2.497 -0.0298  0.3129 -0.2554
 9527TIP3    H149996   1.748   4.706   2.453 -0.5688  1.0633 -0.2970
 9527TIP3    H249997   1.776   4.841   2.516 -0.1564 -0.2863  2.5802
 9528TIP3   OH249998   0.663   0.663  13.280  0.5096 -0.0596 -0.1403
 9528TIP3    H149999   0.599   0.666  13.352  1.4251 -1.4832  0.7865
 9528TIP3    H250000   0.743   0.697  13.319  2.0162 -4.0537  0.7298
 9529TIP3   OH250001   2.963   4.163  11.587  0.0804  0.2824  0.2851
 9529TIP3    H150002   3.039   4.144  11.533 -0.8204 -0.9639 -0.5911
 9529TIP3    H250003   2.955   4.087  11.645 -1.3726 -0.3760 -0.7008
 9530TIP3   OH250004   4.769   5.796  16.762  0.0046 -0.1689  0.3974
 9530TIP3    H150005   4.864   5.805  16.776 -0.0164 -0.6343  0.9116
 9530TIP3    H250006   4.761   5.721  16.703 -0.0020  0.5492 -0.5342
 9531TIP3   OH250007   5.756   5.404  16.808 -0.0238  0.4321 -0.2425
 9531TIP3    H150008   5.685   5.463  16.783 -0.1046  0.3497 -0.2076
 9531TIP3    H250009   5.729   5.369  16.893 -0.7785 -0.9491 -1.0172
 9532TIP3   OH250010   6.116   2.321  17.105 -0.4146 -0.4532 -0.3605
 9532TIP3    H150011   6.119   2.267  17.184  0.5255  0.9762  0.6189
 9532TIP3    H250012   6.117   2.258  17.033  1.3976 -1.7670  0.7245
 9533TIP3   OH250013   5.134   5.736   5.218  0.7866  0.3977  0.0539
 9533TIP3    H150014   5.164   5.646   5.230  0.1287  0.1604  0.0083
 9533TIP3    H250015   5.039   5.731   5.233  0.7382  1.0731 -0.0033
 9534TIP3   OH250016   3.547   2.673   6.116 -0.0125 -0.0272  0.4104
 9534TIP3    H150017   3.622   2.732   6.121  0.0543  0.0079 -0.7025
 9534TIP3    H250018   3.488   2.701   6.186 -0.3068  1.8192 -0.5273
 9535TIP3   OH250019   2.350   2.713   0.921  0.4832 -0.2948  0.3079
 9535TIP3    H150020   2.324   2.633   0.874 -0.7244 -0.3683  1.0552
 9535TIP3    H250021   2.330   2.694   1.013 -0.3773  1.0732  0.4299
 9536TIP3   OH250022   5.885   4.387   2.674  0.1755  0.2180  0.1729
 9536TIP3    H150023   5.884   4.342   2.758  0.7018 -0.0322  0.0507
 9536TIP3    H250024   5.860   4.320   2.610 -0.3658  0.4430  0.1410
 9537TIP3   OH250025   5.853   4.785   0.528 -0.1877 -0.8362  0.2487
 9537TIP3    H150026   5.887   4.751   0.611 -0.5289  0.4679  0.9454
 9537TIP3    H250027   5.811   4.867   0.551 -1.0773 -0.8829 -1.0886
 9538TIP3   OH250028   2.677   0.420   1.720  0.2577  0.2517  0.3626
 9538TIP3    H150029   2.635   0.337   1.741  0.5067  0.3443  1.2650
 9538TIP3    H250030   2.631   0.452   1.642 -0.9492  0.0772  0.9879
 9539TIP3   OH250031   3.771   3.230  11.589 -0.0954 -0.7224 -0.2826
 9539TIP3    H150032   3.791   3.310  11.636 -1.9613  0.7500 -1.8369
 9539TIP3    H250033   3.676   3.230  11.579 -0.0220 -2.4391 -1.5148
 9540TIP3   OH250034   1.361   0.876  14.988 -0.3601  0.2389  0.3373
 9540TIP3    H150035   1.298   0.806  15.004 -0.5310  0.1425 -0.6923
 9540TIP3    H250036   1.316   0.956  15.016 -1.9091  0.4938 -2.5002
 9541TIP3   OH250037   0.360   1.381  13.317 -0.7619  0.3538 -0.8915
 9541TIP3    H150038   0.323   1.461  13.279 -0.5748  0.8480 -0.0469
 9541TIP3    H250039   0.393   1.407  13.403  0.3101 -0.3830 -1.0517
 9542TIP3   OH250040   2.601   4.219   4.108  0.2549  0.1727  0.3693
 9542TIP3    H150041   2.517   4.212   4.064 -0.8348  0.2309  2.3375
 9542TIP3    H250042   2.653   4.276   4.051 -2.0298  2.6060  0.5255
 9543TIP3   OH250043   1.931   1.028  11.562  0.1913 -0.5008  0.3374
 9543TIP3    H150044   1.899   1.110  11.600  0.6603 -1.0011  1.8942
 9543TIP3    H250045   2.013   1.051  11.519  0.1126 -0.0803  0.4104
 9544TIP3   OH250046   6.210   5.927   0.019  0.1833 -0.1482  0.0146
 9544TIP3    H150047   6.254   5.848   0.050 -0.0195  0.2971  1.5230
 9544TIP3    H250048   6.254   5.948  -0.064  1.8682 -0.4872  0.7854
 9545TIP3   OH250049   3.404   2.080  12.659 -0.3617  0.2093  0.1424
 9545TIP3    H150050   3.468   2.023  12.702 -0.8528  0.0486  0.6604
 9545TIP3    H250051   3.434   2.084  12.568 -0.1761 -0.6803  0.1524
 9546TIP3   OH250052   1.768   5.747  16.635  0.6078 -0.3178  0.3359
 9546TIP3    H150053   1.786   5.787  16.721  1.0587  0.2332 -0.0005
 9546TIP3    H250054   1.851   5.704  16.612  0.4685 -0.5107  0.1978
 9547TIP3   OH250055   5.718   1.748   3.264 -0.0762  0.3596  0.0773
 9547TIP3    H150056   5.771   1.683   3.218 -0.6584  0.0668 -0.1945
 9547TIP3    H250057   5.709   1.713   3.353  1.8248  1.3735  0.7353
 9548TIP3   OH250058   1.570   2.215  12.088  0.0394 -0.2443 -0.0295
 9548TIP3    H150059   1.538   2.301  12.063 -0.0634 -0.5380 -0.9593
 9548TIP3    H250060   1.518   2.154  12.036 -0.9399 -0.9672  1.7199
 9549TIP3   OH250061   5.558   4.323   3.709  0.0129  0.3476 -0.0995
 9549TIP3    H150062   5.554   4.374   3.628  2.3357  2.6357  1.0772
 9549TIP3    H250063   5.505   4.373   3.772  0.1748 -0.1255  0.4226
 9550TIP3   OH250064   0.715   2.244   1.084 -0.0911 -0.3749  0.0383
 9550TIP3    H150065   0.654   2.230   1.012  0.1098  0.2774 -0.2672
 9550TIP3    H250066   0.660   2.246   1.163 -0.2531 -1.6001 -0.0374
 9551TIP3   OH250067   6.250   5.326  17.179  0.4430 -0.0303  0.2744
 9551TIP3    H150068   6.232   5.241  17.219  1.1275  0.2232  1.1710
 9551TIP3    H250069   6.335   5.352  17.215  0.4453  0.8372 -0.3203
 9552TIP3   OH250070   5.395   1.240   2.408 -0.1488 -0.1427 -0.1419
 9552TIP3    H150071   5.393   1.201   2.320 -1.0504 -1.2689  0.3436
 9552TIP3    H250072   5.428   1.328   2.394  0.0584 -0.4111 -1.5728
 9553TIP3   OH250073   4.246   4.484  12.864  0.1452 -0.0660 -0.2906
 9553TIP3    H150074   4.232   4.392  12.845  0.6246 -0.3228  0.5445
 9553TIP3    H250075   4.251   4.526  12.778  0.9082 -0.9706 -0.7002
 9554TIP3   OH250076   1.821   3.389  11.829  0.2189  0.3477 -0.2967
 9554TIP3    H150077   1.908   3.430  11.826  0.8481 -0.6686  1.6858
 9554TIP3    H250078   1.838   3.299  11.856 -1.3475 -0.4027 -1.6631
 9555TIP3   OH250079   4.659   5.356  16.955  0.0426 -0.1777  0.0616
 9555TIP3    H150080   4.714   5.331  16.881  0.9903  2.1014 -0.0827
 9555TIP3    H250081   4.672   5.451  16.964 -0.9384 -0.1926  2.4252
 9556TIP3   OH250082   3.147   5.175  10.750  0.4616  0.0521  0.3488
 9556TIP3    H150083   3.224   5.221  10.718  1.0276 -1.5159 -0.6230
 9556TIP3    H250084   3.092   5.244  10.787  0.2499  1.8916 -2.9935
 9557TIP3   OH250085   4.422   0.734  16.819  0.0565 -0.2737 -0.2177
 9557TIP3    H150086   4.423   0.638  16.829 -0.2646 -0.2665 -0.1089
 9557TIP3    H250087   4.345   0.752  16.766 -1.3214  0.1119  1.7995
 9558TIP3   OH250088   3.043   6.172   4.482 -0.5864  0.6944  0.1806
 9558TIP3    H150089   3.100   6.246   4.501 -0.4771  0.5608  0.3778
 9558TIP3    H250090   2.993   6.159   4.563 -1.1472  1.0291 -0.1036
 9559TIP3   OH250091   2.286   3.123  16.558  0.1602  0.3736  0.2085
 9559TIP3    H150092   2.292   3.061  16.486  0.1907  0.3686  0.2156
 9559TIP3    H250093   2.234   3.196  16.524 -0.3612  0.0905  0.3778
 9560TIP3   OH250094   0.982   1.178   5.687  0.8002 -0.0315 -0.1336
 9560TIP3    H150095   1.029   1.123   5.749  0.9694 -2.2306 -2.0905
 9560TIP3    H250096   1.040   1.184   5.611  0.6304  2.6238 -0.1611
 9561TIP3   OH250097   1.929   3.443   2.751 -0.8849  0.8294  0.0910
 9561TIP3    H150098   1.946   3.475   2.662 -1.8844 -0.0234 -0.4250
 9561TIP3    H250099   2.016   3.425   2.787 -0.4450 -3.2490 -2.4014
 9562TIP3   OH250100   6.128   0.768   0.990 -0.7234  0.0467 -0.1446
 9562TIP3    H150101   6.199   0.770   1.054 -1.2613  0.1696  0.4525
 9562TIP3    H250102   6.157   0.704   0.924 -0.8960 -1.3449  1.0703
 9563TIP3   OH250103   1.299   6.206  13.018  0.1309  0.7859 -0.4736
 9563TIP3    H150104   1.246   6.132  13.050 -0.1312  0.1060 -2.3481
 9563TIP3    H250105   1.236   6.268  12.983  0.4111  1.5467  0.3175
 9564TIP3   OH250106   2.281   3.378   2.387 -0.6119  0.3099 -0.1843
 9564TIP3    H150107   2.314   3.326   2.313 -0.5453 -0.5400  0.4226
 9564TIP3    H250108   2.321   3.464   2.376  0.3656 -0.1678 -0.4774
 9565TIP3   OH250109   0.589   2.927   1.503 -0.1227  0.0622  0.0630
 9565TIP3    H150110   0.567   3.016   1.531 -0.8130 -0.3193  0.7727
 9565TIP3    H250111   0.506   2.880   1.504 -0.1666 -0.0384 -2.5045
 9566TIP3   OH250112   4.493   1.416   6.444  1.2074  0.3624  0.5413
 9566TIP3    H150113   4.484   1.475   6.370  0.0797  2.5621  2.3139
 9566TIP3    H250114   4.475   1.329   6.409  2.0790  1.1242 -1.9901
 9567TIP3   OH250115   4.514   4.568   4.405 -0.3350 -0.2650  0.2758
 9567TIP3    H150116   4.515   4.559   4.500  0.7902  1.6526  0.4954
 9567TIP3    H250117   4.489   4.659   4.390 -0.0381 -0.4178 -1.2653
 9568TIP3   OH250118   0.652   1.996  11.610 -0.2463  0.1526  0.2859
 9568TIP3    H150119   0.661   2.081  11.566 -2.6785  0.2720 -0.1654
 9568TIP3    H250120   0.634   1.934  11.539  0.5103 -0.5707  0.7061
 9569TIP3   OH250121   3.114   1.552  17.283 -0.1373  0.5137  0.6709
 9569TIP3    H150122   3.153   1.515  17.362 -2.4316 -1.3371  1.0407
 9569TIP3    H250123   3.153   1.503  17.211  0.7442  1.0803  0.7474
 9570TIP3   OH250124   2.696   2.247   2.050  0.4040  0.3830  0.1114
 9570TIP3    H150125   2.627   2.248   2.116  0.8980  0.0594  0.6445
 9570TIP3    H250126   2.697   2.157   2.017  0.6507  0.3528  0.1973
 9571TIP3   OH250127   3.193   0.885   6.108 -0.2788  0.7417 -0.2290
 9571TIP3    H150128   3.100   0.863   6.111  0.1747 -1.2593  0.2982
 9571TIP3    H250129   3.201   0.944   6.033 -1.8762  0.4861 -0.6351
 9572TIP3   OH250130   1.677   0.981  15.491 -0.2019 -0.6053  0.2317
 9572TIP3    H150131   1.731   0.909  15.522  1.5393  0.6010  0.1844
 9572TIP3    H250132   1.739   1.052  15.476 -1.2242 -0.3045 -3.6080
 9573TIP3   OH250133   1.582   1.299  11.153  0.2499 -0.4700 -0.4170
 9573TIP3    H150134   1.655   1.339  11.107  0.3707  2.4465  1.9686
 9573TIP3    H250135   1.504   1.334  11.109  0.3651  0.8852  0.3943
 9574TIP3   OH250136   2.053   2.173  15.129  0.1833 -0.3415 -0.5215
 9574TIP3    H150137   1.981   2.227  15.162  1.5295 -0.0459  2.2971
 9574TIP3    H250138   2.024   2.083  15.141 -0.8276 -0.2928 -2.2603
 9575TIP3   OH250139   3.299   5.522  13.610 -0.1928 -0.4606 -0.0444
 9575TIP3    H150140   3.350   5.572  13.546 -2.5408 -0.1551 -1.7951
 9575TIP3    H250141   3.347   5.439  13.619  1.3060  0.3115 -0.5503
 9576TIP3   OH250142   1.282   0.982   5.019  0.0058  0.2349 -0.1651
 9576TIP3    H150143   1.329   1.060   4.988 -0.9276  0.3536 -1.3797
 9576TIP3    H250144   1.216   1.016   5.079  0.3397  0.2547  0.1922
 9577TIP3   OH250145   6.687   3.409  15.324 -0.6047 -0.0338 -0.5418
 9577TIP3    H150146   6.728   3.468  15.387  1.7051 -0.4571 -1.5366
 9577TIP3    H250147   6.593   3.418  15.339 -0.1726  0.3380  2.5173
 9578TIP3   OH250148   5.733   0.143   2.212 -0.2558  0.1112  0.1620
 9578TIP3    H150149   5.785   0.155   2.291 -1.1226  0.3712  0.7043
 9578TIP3    H250150   5.743   0.050   2.190  0.0581  0.0605  0.5260
 9579TIP3   OH250151   3.728   0.238   0.483 -0.0497 -0.2976  0.4240
 9579TIP3    H150152   3.678   0.216   0.561 -0.2193 -0.2000  0.3428
 9579TIP3    H250153   3.819   0.215   0.505  0.3097  1.8322  1.4880
 9580TIP3   OH250154   5.449   6.535   3.133  0.2937  0.4360  0.3497
 9580TIP3    H150155   5.397   6.475   3.186  1.5216 -0.3704  0.6995
 9580TIP3    H250156   5.417   6.622   3.156  0.2757  0.0563  1.8660
 9581TIP3   OH250157   3.816   2.436   6.195 -0.0880 -0.9496 -0.6360
 9581TIP3    H150158   3.770   2.357   6.226 -0.2893 -0.7995 -0.5498
 9581TIP3    H250159   3.791   2.504   6.257 -0.1490 -0.7474 -0.8800
 9582TIP3   OH250160   2.680   2.072   5.700  0.0739  0.5751 -0.2731
 9582TIP3    H150161   2.765   2.028   5.708  0.4486  1.1887 -0.7720
 9582TIP3    H250162   2.701   2.166   5.706 -0.1035  0.9552 -3.6449
 9583TIP3   OH250163   2.421   4.442   2.727  0.0773  0.8281 -0.2533
 9583TIP3    H150164   2.509   4.448   2.765  0.7731 -1.2800 -1.3531
 9583TIP3    H250165   2.415   4.517   2.668  1.6933  0.3051 -1.1559
 9584TIP3   OH250166   5.328   0.493   6.031 -0.0991  0.0798  0.2736
 9584TIP3    H150167   5.252   0.522   6.081  1.1711  0.8171  1.8602
 9584TIP3    H250168   5.402   0.507   6.090  0.9724 -3.5416 -0.0115
 9585TIP3   OH250169   0.762   0.815   6.113  0.4622  0.1285 -0.1933
 9585TIP3    H150170   0.787   0.903   6.084  1.6770  0.6040  2.0480
 9585TIP3    H250171   0.839   0.783   6.160 -0.3165 -1.7617 -0.1248
 9586TIP3   OH250172   5.469   1.597   1.250  0.0944 -0.4665  0.3905
 9586TIP3    H150173   5.399   1.638   1.301  0.2507 -1.5033  1.5116
 9586TIP3    H250174   5.537   1.578   1.315  1.1870  0.0178 -0.5834
 9587TIP3   OH250175   4.978   2.802   3.669 -0.3577 -0.1729 -0.0912
 9587TIP3    H150176   5.049   2.862   3.648 -0.3861 -0.3598 -0.7538
 9587TIP3    H250177   4.953   2.764   3.585 -1.7377  0.4436  0.0110
 9588TIP3   OH250178   2.086   1.800  16.758  0.1205  0.3400 -0.0439
 9588TIP3    H150179   2.007   1.853  16.743 -0.6464 -0.8876 -0.5651
 9588TIP3    H250180   2.147   1.859  16.802 -0.9377  1.4474 -0.0027
 9589TIP3   OH250181   1.380   4.773   0.313  0.0699  0.1946  0.4196
 9589TIP3    H150182   1.423   4.856   0.293  0.4939 -0.0770  0.1945
 9589TIP3    H250183   1.430   4.708   0.265  1.0017 -0.4504  2.1488
 9590TIP3   OH250184   5.764   5.207  14.875  0.9150  0.5631 -0.2365
 9590TIP3    H150185   5.679   5.235  14.841  0.4594  0.4018  0.7303
 9590TIP3    H250186   5.766   5.113  14.859  1.4530  0.7538 -1.3788
 9591TIP3   OH250187   6.322   4.060  14.638 -0.1866  0.3975  0.2420
 9591TIP3    H150188   6.315   3.964  14.632 -0.9613  0.5003 -0.9327
 9591TIP3    H250189   6.251   4.086  14.695  0.5304  0.2219  1.2352
 9592TIP3   OH250190   6.288   0.483   6.167  0.6200  0.9873  0.0662
 9592TIP3    H150191   6.351   0.464   6.237 -0.0317 -0.4581  0.3261
 9592TIP3    H250192   6.245   0.398   6.151 -0.2812  1.6274 -1.0564
 9593TIP3   OH250193   5.523   1.923   4.627 -0.3301 -0.2532 -0.5360
 9593TIP3    H150194   5.459   1.992   4.646  0.2469 -0.1056  0.9703
 9593TIP3    H250195   5.495   1.850   4.683  0.5123 -0.3697 -0.2665
 9594TIP3   OH250196   2.758   3.817  15.365 -0.3605  0.3099 -0.3384
 9594TIP3    H150197   2.723   3.824  15.454  2.3584  0.6049  0.8208
 9594TIP3    H250198   2.683   3.794  15.311 -2.4690  1.8460  1.7332
 9595TIP3   OH250199   3.292   2.304   5.078  0.0534 -0.1855 -0.2310
 9595TIP3    H150200   3.232   2.374   5.057 -0.7547 -0.5180  0.8674
 9595TIP3    H250201   3.306   2.312   5.173  1.2470 -0.4934 -0.3636
 9596TIP3   OH250202   0.923   3.499   0.230  0.3310 -0.3371  0.2304
 9596TIP3    H150203   0.896   3.410   0.206  2.6470 -1.3524  1.1039
 9596TIP3    H250204   0.919   3.500   0.326 -3.6810  1.9541  0.2552
 9597TIP3   OH250205   6.678   2.195  15.928 -0.1513 -0.5846  0.2065
 9597TIP3    H150206   6.614   2.160  15.866  1.3442 -0.1654 -1.6700
 9597TIP3    H250207   6.726   2.118  15.958  0.6373 -0.5791 -0.9832
 9598TIP3   OH250208   4.663   2.168  14.746  0.1282 -0.0557 -0.1589
 9598TIP3    H150209   4.734   2.170  14.809  0.1017  0.1851 -0.1359
 9598TIP3    H250210   4.661   2.078  14.715  1.0358  0.1456 -0.8343
 9599TIP3   OH250211   0.947   2.606  15.987  0.2097 -0.2580 -0.1047
 9599TIP3    H150212   0.913   2.523  16.022  0.4129 -0.5651 -0.6421
 9599TIP3    H250213   1.042   2.599  15.996  0.3962 -1.0066 -2.1583
 9600TIP3   OH250214   4.214   0.831   1.820 -0.0737  0.2763 -0.0950
 9600TIP3    H150215   4.182   0.766   1.882  0.3628 -0.4324 -0.5962
 9600TIP3    H250216   4.251   0.901   1.874  0.8342 -0.5963  0.4402
 9601TIP3   OH250217   5.672   1.041   3.982 -0.0291 -0.1223 -0.2595
 9601TIP3    H150218   5.616   1.079   4.051  0.4483 -0.8981  0.5712
 9601TIP3    H250219   5.641   0.951   3.973 -0.4591  0.1347 -1.4790
 9602TIP3   OH250220   1.083   3.834  15.304 -0.0451  0.6323 -0.2786
 9602TIP3    H150221   1.048   3.767  15.364 -1.3714 -0.0226 -1.7095
 9602TIP3    H250222   1.126   3.898  15.361 -2.9312  1.0783  1.5739
 9603TIP3   OH250223   6.554   0.168  13.462  0.8759  0.1439  0.3955
 9603TIP3    H150224   6.622   0.128  13.515 -0.6859 -0.7222  1.8477
 9603TIP3    H250225   6.518   0.237  13.518 -0.6028 -0.5840  0.3910
 9604TIP3   OH250226   4.157   5.913  16.089 -0.1490  0.1408 -0.0907
 9604TIP3    H150227   4.143   5.887  16.180  0.9200 -1.6743 -0.3903
 9604TIP3    H250228   4.160   6.009  16.091 -0.5212  0.1459  1.6987
 9605TIP3   OH250229   2.236   2.240  11.925  0.0154 -0.2028 -0.1952
 9605TIP3    H150230   2.236   2.147  11.902  0.3687 -0.4805  0.8719
 9605TIP3    H250231   2.241   2.285  11.841  0.3245 -1.1534 -0.7041
 9606TIP3   OH250232   4.574   4.147   5.603 -0.0998 -0.5336 -0.2511
 9606TIP3    H150233   4.483   4.140   5.575 -0.1791  0.3441 -0.2378
 9606TIP3    H250234   4.618   4.191   5.531 -0.2971  1.7302  0.9364
 9607TIP3   OH250235   2.456   1.455   5.384 -0.1012 -0.1893 -0.3515
 9607TIP3    H150236   2.508   1.406   5.447 -0.2270 -0.3364 -0.3632
 9607TIP3    H250237   2.367   1.455   5.419  0.0175  0.5801 -0.0237
 9608TIP3   OH250238   4.573   5.758   0.611  0.3470 -0.0700  0.4709
 9608TIP3    H150239   4.666   5.780   0.603  0.6485 -0.9789  1.2149
 9608TIP3    H250240   4.572   5.662   0.611 -0.5168 -0.0686  1.3007
 9609TIP3   OH250241   0.296   6.050   6.163  0.6405 -0.5612  0.2085
 9609TIP3    H150242   0.321   6.088   6.247  2.5531 -1.3459  0.0444
 9609TIP3    H250243   0.352   6.094   6.099  0.4362 -1.1815 -0.4152
 9610TIP3   OH250244   3.951   6.243  11.312 -0.3113  0.8497  0.0104
 9610TIP3    H150245   4.016   6.271  11.376 -0.6199 -0.8796  1.1723
 9610TIP3    H250246   3.925   6.323  11.266  0.8550  1.9398  1.1722
 9611TIP3   OH250247   2.961   1.893   0.408 -0.1910 -0.0655  0.2173
 9611TIP3    H150248   2.905   1.823   0.442  0.1794  0.0098  1.0126
 9611TIP3    H250249   2.904   1.942   0.349 -0.8127 -0.3146  0.5923
 9612TIP3   OH250250   2.088   3.632  13.966  0.2677 -0.5515 -0.2678
 9612TIP3    H150251   2.022   3.566  13.946  0.3808 -0.1122 -2.2762
 9612TIP3    H250252   2.039   3.713  13.981  0.2723 -0.5263 -0.3883
 9613TIP3   OH250253   0.658   4.035   4.716 -0.2213  0.0888  0.5490
 9613TIP3    H150254   0.666   4.130   4.725 -0.0942 -0.0917  3.5473
 9613TIP3    H250255   0.624   4.006   4.801  2.8092 -2.8195  0.9822
 9614TIP3   OH250256   5.432   3.719   5.794  0.2896  0.5110 -0.1167
 9614TIP3    H150257   5.452   3.666   5.871  0.0186  0.7524  0.1212
 9614TIP3    H250258   5.379   3.661   5.738  1.7078 -0.1787 -0.8125
 9615TIP3   OH250259   2.365   6.768  11.182  0.2212 -0.2862 -0.1282
 9615TIP3    H150260   2.305   6.746  11.111  0.0980  0.0390 -0.1258
 9615TIP3    H250261   2.328   6.846  11.221  0.5132 -0.2283  0.0317
 9616TIP3   OH250262   5.587   4.138  16.412 -0.1209 -0.6031 -0.1450
 9616TIP3    H150263   5.494   4.147  16.391 -0.2535 -0.8650  0.2990
 9616TIP3    H250264   5.633   4.156  16.330 -0.6843 -3.0894 -1.1007
 9617TIP3   OH250265   0.725   4.426   3.958 -0.0548 -0.3857 -0.4465
 9617TIP3    H150266   0.671   4.427   4.037 -1.9886 -0.2943 -1.6875
 9617TIP3    H250267   0.748   4.334   3.945 -0.3112 -0.4944 -0.1453
 9618TIP3   OH250268   6.465   2.426   0.781  0.1706  0.0625 -0.1130
 9618TIP3    H150269   6.485   2.517   0.805  0.3110 -0.1949  0.7501
 9618TIP3    H250270   6.544   2.395   0.736  0.4235  0.1139  0.2961
 9619TIP3   OH250271   5.031   4.930   1.176  0.1510 -0.6712 -0.6531
 9619TIP3    H150272   5.089   4.905   1.248  0.5432  0.9168 -0.3958
 9619TIP3    H250273   4.982   4.850   1.157 -0.0279 -1.1032  1.4135
 9620TIP3   OH250274   0.601   0.860  11.807  0.3947  0.0559 -0.2976
 9620TIP3    H150275   0.595   0.821  11.720 -0.0543  0.0737 -0.2750
 9620TIP3    H250276   0.545   0.806  11.862  2.6113 -1.5439  0.5795
 9621TIP3   OH250277   0.023   3.557   5.647 -0.4623  0.0446  0.2260
 9621TIP3    H150278  -0.018   3.515   5.722  0.4431 -0.3349  0.5241
 9621TIP3    H250279  -0.036   3.538   5.574 -0.2261 -1.5134  0.4098
 9622TIP3   OH250280   5.941   1.259  12.064 -0.0345  0.3834 -0.7156
 9622TIP3    H150281   5.975   1.280  11.976  0.5613 -0.9218 -0.8316
 9622TIP3    H250282   5.916   1.167  12.057 -0.7314  0.4959  0.2719
 9623TIP3   OH250283   4.606   2.779  16.623  0.2078  0.1563 -0.7952
 9623TIP3    H150284   4.679   2.840  16.616  0.1373  0.2214 -0.9631
 9623TIP3    H250285   4.551   2.814  16.693  0.3022  0.1429 -0.7138
 9624TIP3   OH250286   2.939   6.599  12.649  0.0349 -0.0166  0.2441
 9624TIP3    H150287   2.978   6.515  12.673  2.0566  0.3651 -1.4307
 9624TIP3    H250288   2.889   6.581  12.569 -1.7143 -0.0925  1.2967
 9625TIP3   OH250289   4.976   2.196  15.184  0.2391 -0.2081  0.5162
 9625TIP3    H150290   5.044   2.159  15.128  0.2173 -1.0753  1.0442
 9625TIP3    H250291   4.959   2.128  15.249  0.0246  0.6441  1.3775
 9626TIP3   OH250292   2.308   2.390  15.793  0.1489 -0.2843  0.5524
 9626TIP3    H150293   2.281   2.420  15.706 -0.8766 -0.8435  0.6589
 9626TIP3    H250294   2.268   2.304  15.802  1.9429 -1.1412  0.7848
 9627TIP3   OH250295   4.106   4.537  14.681  0.3786 -0.2935  0.0421
 9627TIP3    H150296   4.135   4.627  14.669  1.0671 -0.6471 -1.0881
 9627TIP3    H250297   4.062   4.515  14.599  0.0125 -0.9216  0.3934
 9628TIP3   OH250298   4.801   4.036   6.497 -0.3946 -0.1156  0.5165
 9628TIP3    H150299   4.854   4.028   6.576  2.4047 -1.2545 -1.3163
 9628TIP3    H250300   4.864   4.051   6.427 -2.4658 -1.6160 -1.8755
 9629TIP3   OH250301   3.660   5.413  14.088 -0.5402  0.3286  1.0575
 9629TIP3    H150302   3.604   5.368  14.024  0.3267 -0.7235  1.0056
 9629TIP3    H250303   3.614   5.494  14.107 -1.1872  0.3229 -0.3479
 9630TIP3   OH250304   1.892   4.403  12.920  0.9390 -0.6218 -0.1629
 9630TIP3    H150305   1.807   4.426  12.958  1.6758 -0.3276  1.3776
 9630TIP3    H250306   1.912   4.476  12.861 -0.3866 -1.2551 -1.4746
 9631TIP3   OH250307   5.278   2.034  12.940 -0.0794  0.1405 -0.4996
 9631TIP3    H150308   5.302   2.125  12.959 -0.5445  0.0695  0.4794
 9631TIP3    H250309   5.326   2.013  12.860  0.4152  1.0933 -0.4684
 9632TIP3   OH250310   2.597   3.314   3.996 -0.0074 -0.1083 -0.2511
 9632TIP3    H150311   2.623   3.401   4.028 -2.7800  1.6048 -2.1659
 9632TIP3    H250312   2.644   3.305   3.914 -0.3437 -0.0087 -0.4581
 9633TIP3   OH250313   3.704   2.149   1.956  0.7392 -0.1430 -0.4323
 9633TIP3    H150314   3.766   2.148   2.030  0.0965 -0.6117  0.1128
 9633TIP3    H250315   3.757   2.126   1.880  1.7366  1.7886 -0.3972
 9634TIP3   OH250316   2.509   5.550   0.140  0.2249 -0.2050 -0.1915
 9634TIP3    H150317   2.516   5.553   0.045 -0.2586  0.5392 -0.2131
 9634TIP3    H250318   2.594   5.516   0.170  0.4342 -0.2844 -0.8730
 9635TIP3   OH250319   4.634   5.792   5.502 -0.6540 -0.4551 -0.5651
 9635TIP3    H150320   4.570   5.847   5.456  0.5000 -0.6755 -2.4958
 9635TIP3    H250321   4.592   5.706   5.507 -1.9492  0.2070  1.3818
 9636TIP3   OH250322   3.311   2.717  13.678 -0.0334  0.2663 -0.0358
 9636TIP3    H150323   3.300   2.812  13.685  1.3548  0.4141  0.2577
 9636TIP3    H250324   3.290   2.684  13.765  2.3053  0.6203  0.7330
 9637TIP3   OH250325   6.390   3.600  13.752  0.0062  0.7205 -0.2814
 9637TIP3    H150326   6.416   3.562  13.668  1.7499  0.0941  0.4879
 9637TIP3    H250327   6.388   3.694  13.736  3.2432  0.8831 -0.3884
 9638TIP3   OH250328   0.042   0.689   0.108 -0.0533  0.0854 -0.2214
 9638TIP3    H150329   0.069   0.773   0.070  1.3003 -1.1117 -2.1001
 9638TIP3    H250330  -0.050   0.701   0.129  0.7287  2.9294  2.2776
 9639TIP3   OH250331   5.738   4.241   4.964 -0.0444  0.0891  0.2749
 9639TIP3    H150332   5.824   4.249   5.005  0.0422  0.6329  0.0051
 9639TIP3    H250333   5.734   4.315   4.902 -0.3582 -0.4322 -0.3429
 9640TIP3   OH250334   2.866   4.005  14.749  0.2353  0.7789  0.5502
 9640TIP3    H150335   2.839   3.918  14.719 -0.0469  0.5479  1.4713
 9640TIP3    H250336   2.789   4.060  14.736  0.0158  0.6114  1.1190
 9641TIP3   OH250337   4.624   0.264  15.862 -0.8930 -0.0653 -0.2028
 9641TIP3    H150338   4.596   0.174  15.877  0.6016 -0.2684  1.7553
 9641TIP3    H250339   4.592   0.285  15.774 -0.8123 -2.6677 -0.9245
 9642TIP3   OH250340   5.300   2.144  13.214  0.2382 -0.0966 -0.6595
 9642TIP3    H150341   5.384   2.190  13.216  0.2048  0.0172 -1.4669
 9642TIP3    H250342   5.291   2.114  13.124  0.0375 -1.2944 -0.2546
 9643TIP3   OH250343   0.831   3.229  14.890 -0.0766 -0.4053 -0.1280
 9643TIP3    H150344   0.850   3.188  14.806  1.9882 -2.0286  1.0367
 9643TIP3    H250345   0.785   3.162  14.941  0.1652 -0.0551  0.5787
 9644TIP3   OH250346   5.049   2.272   1.706 -0.0357 -0.0252 -0.3433
 9644TIP3    H150347   5.109   2.198   1.700 -2.0150 -1.6018 -2.2120
 9644TIP3    H250348   5.105   2.349   1.693  2.0542 -1.1030  1.5691
 9645TIP3   OH250349   6.222   5.967  14.036  0.1620 -1.0093  0.1892
 9645TIP3    H150350   6.293   5.904  14.036 -0.3970 -1.6666 -0.4304
 9645TIP3    H250351   6.261   6.048  14.068  0.9551 -1.5968  0.7430
 9646TIP3   OH250352   6.249   3.019  15.323  0.4241  0.2492 -0.2760
 9646TIP3    H150353   6.261   2.925  15.313  1.1800  0.3852 -0.6800
 9646TIP3    H250354   6.172   3.027  15.379  0.6902 -0.6135  0.2329
 9647TIP3   OH250355   3.012   4.810  13.710  0.1413  0.0435 -0.2436
 9647TIP3    H150356   3.054   4.751  13.772  1.0790  2.2217  1.3183
 9647TIP3    H250357   2.921   4.815  13.740  0.1023 -0.4499 -0.2723
 9648TIP3   OH250358   1.892   0.534   5.403  0.5760 -0.4110 -0.3572
 9648TIP3    H150359   1.812   0.526   5.455 -0.2562  0.7675 -1.4025
 9648TIP3    H250360   1.959   0.560   5.466 -0.2240  0.1915  0.2651
 9649TIP3   OH250361   1.530   1.064  12.000 -0.0414  0.1858 -0.2852
 9649TIP3    H150362   1.560   1.001  11.935 -1.4604 -0.5615 -0.2475
 9649TIP3    H250363   1.609   1.086  12.050  0.6438 -0.9083 -0.8430
 9650TIP3   OH250364   6.565   2.759   3.532  0.1063  0.0867  0.3859
 9650TIP3    H150365   6.480   2.789   3.565  0.5205 -0.8310  2.4476
 9650TIP3    H250366   6.622   2.836   3.542 -0.0726  0.1901  0.6384
 9651TIP3   OH250367   1.625   2.310  13.536 -0.1553  0.0694  0.4749
 9651TIP3    H150368   1.595   2.322  13.626 -1.6019 -1.9895  0.3581
 9651TIP3    H250369   1.720   2.308  13.542 -0.1396  2.2345  1.5854
 9652TIP3   OH250370   4.750   4.556  12.835 -0.2180 -0.0409  0.2293
 9652TIP3    H150371   4.685   4.556  12.905  0.2161 -2.6018  0.7626
 9652TIP3    H250372   4.700   4.574  12.755 -1.1107  0.6303  0.9236
 9653TIP3   OH250373   6.675   1.335  12.181 -0.4550 -0.4861  0.2446
 9653TIP3    H150374   6.754   1.314  12.231  0.1638 -1.5679 -1.1289
 9653TIP3    H250375   6.703   1.403  12.120 -0.4782 -1.0793 -0.4447
 9654TIP3   OH250376   5.983   0.836   3.045 -0.5682  0.3774  0.1158
 9654TIP3    H150377   6.025   0.803   2.965 -0.7545 -0.0394  0.1811
 9654TIP3    H250378   6.049   0.889   3.088 -1.6823  4.1963 -2.3960
 9655TIP3   OH250379   1.595   1.175   1.788 -0.3022 -0.3341  0.6040
 9655TIP3    H150380   1.638   1.115   1.727  1.6549  1.4382  0.1437
 9655TIP3    H250381   1.584   1.123   1.868  2.7287 -0.9576  0.7380
 9656TIP3   OH250382   3.404   6.222  16.710 -0.1294 -0.0757  0.0944
 9656TIP3    H150383   3.345   6.233  16.636 -1.0850 -1.9957  0.5157
 9656TIP3    H250384   3.349   6.231  16.788 -0.0834 -2.5656  0.4892
 9657TIP3   OH250385   0.345   4.359  15.249  0.3529  0.6306  0.2991
 9657TIP3    H150386   0.382   4.271  15.262  0.4476  0.6397  0.0905
 9657TIP3    H250387   0.334   4.394  15.337  2.8873  1.4958  0.3407
 9658TIP3   OH250388   5.126   0.333  16.694 -0.1334  0.2113 -0.2914
 9658TIP3    H150389   5.203   0.345  16.749  0.1561 -3.1249  0.2529
 9658TIP3    H250390   5.074   0.412  16.707  1.9421  1.3917  1.3873
 9659TIP3   OH250391   3.406   6.328  12.667 -0.6354  0.0788  0.3066
 9659TIP3    H150392   3.354   6.260  12.710 -0.2028  0.0860  0.8507
 9659TIP3    H250393   3.355   6.351  12.589 -0.4957 -1.2961 -0.2219
 9660TIP3   OH250394   6.712   4.302   0.024 -0.2363 -1.0172 -0.5951
 9660TIP3    H150395   6.714   4.387  -0.020 -1.0029 -0.9658 -0.5512
 9660TIP3    H250396   6.619   4.279   0.026 -0.1313 -1.3846  0.3079
 9661TIP3   OH250397   3.929   6.691   3.631  0.1791 -0.0882 -0.5474
 9661TIP3    H150398   3.954   6.742   3.554 -2.0704 -0.5089 -1.6391
 9661TIP3    H250399   3.880   6.617   3.595  0.1438 -0.9707  1.2352
 9662TIP3   OH250400   4.407   3.616   3.523 -0.3374 -0.1668  0.1394
 9662TIP3    H150401   4.503   3.616   3.525 -0.1566  3.0198 -1.7160
 9662TIP3    H250402   4.385   3.607   3.430 -1.5390  3.3819 -0.0666
 9663TIP3   OH250403   2.765   4.207  12.955 -0.3565 -0.2147  0.3114
 9663TIP3    H150404   2.782   4.243  13.042 -0.7560 -1.7288  1.0280
 9663TIP3    H250405   2.840   4.150  12.938  0.6765  1.4674 -1.1572
 9664TIP3   OH250406   4.912   5.825   2.012  0.0194 -0.5317  0.2005
 9664TIP3    H150407   4.884   5.858   2.098  1.8952  0.4811  0.4820
 9664TIP3    H250408   4.884   5.894   1.951  0.2280 -0.4223  0.2291
 9665TIP3   OH250409   1.493   4.007   4.307 -0.3524 -0.6406  0.2226
 9665TIP3    H150410   1.526   4.046   4.227 -3.1006 -0.9011 -1.1415
 9665TIP3    H250411   1.503   4.076   4.373  1.3629 -0.2082 -0.4164
 9666TIP3   OH250412   3.806   3.158  13.664 -0.0786  0.0309 -0.3804
 9666TIP3    H150413   3.785   3.144  13.756 -1.6340  1.7092 -0.4104
 9666TIP3    H250414   3.721   3.158  13.620  0.5877 -0.0351 -1.7089
 9667TIP3   OH250415   1.518   5.420  15.431  0.3520 -0.6456 -0.2236
 9667TIP3    H150416   1.523   5.327  15.453  2.0247 -0.0903  2.0620
 9667TIP3    H250417   1.432   5.448  15.464  1.0555 -0.7972  1.8845
 9668TIP3   OH250418   5.872   5.606  15.970  0.1385 -0.0743  0.4196
 9668TIP3    H150419   5.863   5.701  15.966 -0.5202 -0.1861 -1.2285
 9668TIP3    H250420   5.782   5.574  15.982  0.3462 -0.4978  0.8727
 9669TIP3   OH250421   5.244   5.116  15.704  0.2885 -0.0718 -0.7355
 9669TIP3    H150422   5.248   5.148  15.614 -0.3168 -1.5943 -1.3358
 9669TIP3    H250423   5.264   5.022  15.697 -1.4765 -0.5850  0.4885
 9670TIP3   OH250424   0.886   0.821   5.554  0.0334  0.4083 -0.0098
 9670TIP3    H150425   0.833   0.748   5.521  1.9824 -0.5100 -1.2507
 9670TIP3    H250426   0.864   0.894   5.496  1.4271 -0.4786 -1.7522
 9671TIP3   OH250427   6.492   6.495  16.205 -0.0321 -0.2262  0.1084
 9671TIP3    H150428   6.468   6.412  16.247 -0.2089 -0.0211  0.4196
 9671TIP3    H250429   6.412   6.548  16.209 -0.1696 -0.3450 -0.8506
 9672TIP3   OH250430   0.493   2.503   3.008 -0.3593  0.2244  0.1895
 9672TIP3    H150431   0.400   2.524   3.007  0.0818  2.4294 -0.0221
 9672TIP3    H250432   0.526   2.533   2.923  0.7559  0.7003  0.7614
 9673TIP3   OH250433   2.700   5.347   0.295  0.3212 -0.6042 -0.2654
 9673TIP3    H150434   2.634   5.374   0.358 -0.8324 -0.2312 -1.5919
 9673TIP3    H250435   2.763   5.296   0.346 -0.8563 -0.7651  1.0705
 9674TIP3   OH250436   1.030   5.579   6.097  0.1351  0.2153 -0.3002
 9674TIP3    H150437   0.956   5.626   6.137 -2.5550 -0.8619 -3.5234
 9674TIP3    H250438   1.018   5.488   6.126  0.1069  0.0205 -0.9092
 9675TIP3   OH250439   6.740   4.440  16.813  0.3070 -0.4360  0.0865
 9675TIP3    H150440   6.717   4.533  16.802 -1.8793 -0.7180  1.6555
 9675TIP3    H250441   6.834   4.440  16.828  1.0608  1.1532 -3.5309
 9676TIP3   OH250442   0.553   5.781  15.488  0.1601 -0.0765  0.3160
 9676TIP3    H150443   0.468   5.739  15.472  0.9551 -0.9253 -2.0889
 9676TIP3    H250444   0.531   5.861  15.537 -1.8964 -0.8226  0.7242
 9677TIP3   OH250445   4.605   3.888   5.261  0.0470  0.5599 -0.2619
 9677TIP3    H150446   4.675   3.850   5.208  2.8567  1.0227  2.8078
 9677TIP3    H250447   4.576   3.815   5.317  0.9055  1.2550  1.1526
 9678TIP3   OH250448   5.688   2.090  13.487  0.1389 -0.2291  0.2351
 9678TIP3    H150449   5.649   2.090  13.400  0.4730  0.1191  0.0848
 9678TIP3    H250450   5.707   1.998  13.505  1.5225 -0.1402 -0.7088
 9679TIP3   OH250451   4.097   0.292   3.101 -0.3196  0.0171 -0.4677
 9679TIP3    H150452   4.156   0.254   3.036  0.3667 -0.6967  0.5473
 9679TIP3    H250453   4.145   0.367   3.136  0.5827 -1.3227  1.2835
 9680TIP3   OH250454   3.274   1.476  15.056  0.7059  0.6131  0.2348
 9680TIP3    H150455   3.355   1.527  15.054  1.4063 -0.4856 -0.2341
 9680TIP3    H250456   3.272   1.429  14.973 -1.0414  1.5248 -0.2919
 9681TIP3   OH250457   3.283   2.606   2.101 -0.4372  0.0510  0.1905
 9681TIP3    H150458   3.256   2.633   2.188 -1.4058  1.9153 -0.6310
 9681TIP3    H250459   3.358   2.661   2.080 -1.0249  0.5864 -0.6234
 9682TIP3   OH250460   1.384   4.558   3.564 -0.3367  0.1456 -0.4140
 9682TIP3    H150461   1.412   4.621   3.630 -2.3877  0.2275  0.4719
 9682TIP3    H250462   1.437   4.578   3.487 -0.9564  3.0229 -0.1917
 9683TIP3   OH250463   3.612   2.230  16.799  0.9606  0.1238 -0.1906
 9683TIP3    H150464   3.575   2.175  16.868 -0.5371  0.9927 -0.2620
 9683TIP3    H250465   3.656   2.168  16.740 -0.3298 -0.9803 -0.0517
 9684TIP3   OH250466   5.882   4.104  13.149  0.1558  0.1161 -0.0575
 9684TIP3    H150467   5.926   4.024  13.120 -1.2662 -0.3559 -1.0572
 9684TIP3    H250468   5.826   4.076  13.221 -0.2865  0.2017 -0.3583
 9685TIP3   OH250469   3.023   2.398   5.703 -0.0829  0.1639 -0.7209
 9685TIP3    H150470   3.036   2.336   5.776  0.6602  1.7468  0.5618
 9685TIP3    H250471   3.008   2.342   5.627  0.5967 -1.5993  0.3644
 9686TIP3   OH250472   2.038   5.152  11.163  0.2667  0.4086 -0.3332
 9686TIP3    H150473   2.052   5.231  11.216 -1.3535  0.2647  0.3532
 9686TIP3    H250474   1.953   5.118  11.192  1.1455 -1.8865 -0.2281
 9687TIP3   OH250475   0.603   0.218   6.445  0.5844  0.3645  0.0380
 9687TIP3    H150476   0.675   0.166   6.410  0.4958 -0.1859  0.6409
 9687TIP3    H250477   0.638   0.307   6.449  0.3335  0.6089 -2.1379
 9688TIP3   OH250478   2.960   2.553  17.208  0.0209 -0.3016  0.3612
 9688TIP3    H150479   2.895   2.588  17.147  0.2788  0.3217  0.4287
 9688TIP3    H250480   2.920   2.564  17.295  0.7649  1.4469  0.5377
 9689TIP3   OH250481   2.398   5.015  16.628  0.3951  0.4919  0.0267
 9689TIP3    H150482   2.303   5.009  16.618  0.5245  1.1270 -2.2312
 9689TIP3    H250483   2.411   5.066  16.707 -1.1004 -0.8058  1.1734
 9690TIP3   OH250484   3.366   0.716  14.891 -0.0679 -0.0684 -0.1501
 9690TIP3    H150485   3.430   0.731  14.821  0.3345  0.2472  0.2818
 9690TIP3    H250486   3.314   0.642  14.860 -0.0296  0.1992 -0.8779
 9691TIP3   OH250487   0.344   2.053   3.826  0.4361 -0.6617  0.1384
 9691TIP3    H150488   0.429   2.030   3.790  0.9669 -1.4327  1.7989
 9691TIP3    H250489   0.321   1.980   3.884 -1.7595 -0.8838 -0.8805
 9692TIP3   OH250490   0.332   0.310   0.593  0.4552 -0.4142 -0.2001
 9692TIP3    H150491   0.377   0.228   0.616  0.4423 -0.0599  1.1650
 9692TIP3    H250492   0.398   0.378   0.606 -0.5311  0.1738  2.3280
 9693TIP3   OH250493   5.746   3.326   5.427  0.4124  0.0597 -0.0220
 9693TIP3    H150494   5.694   3.270   5.485  0.0285 -0.2110 -0.6279
 9693TIP3    H250495   5.788   3.265   5.366  0.1085  0.4196 -0.5921
 9694TIP3   OH250496   0.797   4.184   4.186 -0.0440 -0.3402  0.6244
 9694TIP3    H150497   0.868   4.243   4.162  0.7137 -0.9271  1.3795
 9694TIP3    H250498   0.718   4.238   4.181  0.5198  0.4707  0.3551
 9695TIP3   OH250499   4.143   4.666   4.678  0.5036  0.1375 -0.2320
 9695TIP3    H150500   4.157   4.705   4.764 -2.5840 -1.1319  0.9856
 9695TIP3    H250501   4.226   4.625   4.656  1.2170 -0.0265  2.4475
 9696TIP3   OH250502   5.764   2.705   0.518  0.3302 -0.6329 -0.4203
 9696TIP3    H150503   5.821   2.733   0.447  2.2608  0.4466  1.4491
 9696TIP3    H250504   5.818   2.645   0.570 -1.1459 -1.6758 -0.0310
 9697TIP3   OH250505   3.189   3.583   1.423 -0.1275 -1.0651  0.2553
 9697TIP3    H150506   3.132   3.659   1.410 -1.1646 -1.5592  1.6437
 9697TIP3    H250507   3.204   3.580   1.517  0.4152 -2.2166  0.1536
 9698TIP3   OH250508   4.661   6.296  15.145 -0.7154  0.2347 -0.1010
 9698TIP3    H150509   4.720   6.367  15.121 -1.3187  0.5718 -0.6486
 9698TIP3    H250510   4.652   6.303  15.240  0.4128 -0.0668  0.0371
 9699TIP3   OH250511   3.267   0.912   0.507 -0.3531 -0.4489 -0.5294
 9699TIP3    H150512   3.216   0.838   0.473 -0.4094 -0.4425 -0.4582
 9699TIP3    H250513   3.216   0.945   0.580 -0.3875 -0.2643 -0.6357
 9700TIP3   OH250514   0.726   2.661  16.222 -0.4186  0.4198 -0.1511
 9700TIP3    H150515   0.708   2.573  16.188 -0.2025 -0.3080  1.5451
 9700TIP3    H250516   0.821   2.670  16.216 -0.4078  0.4046  0.0160
 9701TIP3   OH250517   0.270   2.981  16.390  0.3568 -0.8974  0.2768
 9701TIP3    H150518   0.300   2.940  16.471  1.8622  1.8815  1.2460
 9701TIP3    H250519   0.333   2.952  16.324  0.0865 -1.8718  0.4295
 9702TIP3   OH250520   6.618   0.884  14.743 -0.0902 -0.1609 -0.4399
 9702TIP3    H150521   6.536   0.910  14.700  0.3582  2.7228  0.2093
 9702TIP3    H250522   6.609   0.917  14.832  2.2953  1.5647 -0.7366
 9703TIP3   OH250523   5.788   3.182   3.432 -0.1154  0.2541 -0.4273
 9703TIP3    H150524   5.854   3.250   3.447 -0.2457  0.7740 -2.1271
 9703TIP3    H250525   5.761   3.156   3.521 -1.9877  4.2197  0.3941
 9704TIP3   OH250526   4.793   2.070   3.309 -0.0017 -0.7069 -0.4545
 9704TIP3    H150527   4.795   2.118   3.392  1.2642 -0.4518 -0.6139
 9704TIP3    H250528   4.754   2.132   3.247 -0.5282 -0.7323 -0.1551
 9705TIP3   OH250529   6.246   4.120  13.540 -0.4665 -0.6296  0.3128
 9705TIP3    H150530   6.323   4.143  13.488 -0.3578  0.0415  0.7443
 9705TIP3    H250531   6.213   4.039  13.502  0.5554 -1.0209  0.2299
 9706TIP3   OH250532   4.992   1.503  14.858  0.1820 -0.0601 -0.4670
 9706TIP3    H150533   4.976   1.418  14.816 -0.4161 -0.4146  0.4547
 9706TIP3    H250534   4.972   1.566  14.789 -1.9715 -0.5974 -0.4301
 9707TIP3   OH250535   6.078   5.032  16.883  0.2702  0.2350 -0.7546
 9707TIP3    H150536   6.060   4.971  16.954  0.8340  0.4660 -0.4031
 9707TIP3    H250537   6.124   4.980  16.818 -0.7271 -0.1074 -1.2012
 9708TIP3   OH250538   2.579   2.001   2.308 -0.0645  0.3169  0.0765
 9708TIP3    H150539   2.530   1.985   2.227 -0.9424  1.0077  0.4523
 9708TIP3    H250540   2.641   1.929   2.313 -0.9699 -0.5307 -0.4687
 9709TIP3   OH250541   2.020   5.916  16.382  0.2859 -0.2781  0.3346
 9709TIP3    H150542   2.028   5.872  16.297 -0.8239  1.0007 -0.4726
 9709TIP3    H250543   2.054   6.004  16.366  0.9287 -0.2973  1.4793
 9710TIP3   OH250544   6.383   3.847  13.664 -0.1421  0.0750 -0.8085
 9710TIP3    H150545   6.430   3.912  13.612 -0.0934 -1.5093 -2.8979
 9710TIP3    H250546   6.358   3.893  13.743  4.7244  1.1504  0.4466
 9711TIP3   OH250547   5.477   3.136   0.664  0.7053 -0.4171  0.1522
 9711TIP3    H150548   5.402   3.079   0.681 -2.3487  2.8720 -1.2453
 9711TIP3    H250549   5.548   3.075   0.640 -1.9058 -3.6422 -0.0989
 9712TIP3   OH250550   3.043   4.975  11.981  0.4622  0.7068 -0.1532
 9712TIP3    H150551   2.962   4.931  12.005 -0.2280  1.5590 -0.8462
 9712TIP3    H250552   3.110   4.932  12.034 -0.1760 -1.1248 -0.7495
 9713TIP3   OH250553   2.081   3.435   3.185  0.3155 -0.4013 -0.1683
 9713TIP3    H150554   2.158   3.438   3.240  1.5300 -0.0579 -1.8102
 9713TIP3    H250555   2.106   3.482   3.105 -1.2510 -1.1329 -1.1468
 9714TIP3   OH250556   4.405   2.326   5.912 -0.1801  0.0496 -0.2235
 9714TIP3    H150557   4.406   2.404   5.968 -0.6031 -1.4459  2.0345
 9714TIP3    H250558   4.482   2.335   5.857  0.3663  1.5700  0.7140
 9715TIP3   OH250559   0.317   0.625   3.909 -0.5015  0.3421 -0.3787
 9715TIP3    H150560   0.239   0.583   3.874 -0.3007 -0.0757 -0.3236
 9715TIP3    H250561   0.284   0.705   3.952 -1.1189 -0.6989  1.1879
 9716TIP3   OH250562   4.675   6.090   5.464 -0.1215  0.5865 -0.7641
 9716TIP3    H150563   4.704   6.179   5.485  1.3588 -0.2778  1.1711
 9716TIP3    H250564   4.600   6.075   5.522  0.4035  0.1648 -0.1825
 9717TIP3   OH250565   6.730   4.480  12.785 -0.2523  0.6715  0.1192
 9717TIP3    H150566   6.651   4.496  12.836 -0.2847 -0.0519  0.2976
 9717TIP3    H250567   6.743   4.385  12.788  1.2572  0.8661  1.0595
 9718TIP3   OH250568   1.930   1.386   3.694  0.1208 -0.2880 -0.3315
 9718TIP3    H150569   1.984   1.307   3.686  1.6920  0.6586  0.4394
 9718TIP3    H250570   1.928   1.404   3.788  0.0482  0.7461 -0.5167
 9719TIP3   OH250571   4.284   6.456   5.738  0.2177  0.2637  0.9647
 9719TIP3    H150572   4.322   6.500   5.814 -0.9465  0.6133  1.3756
 9719TIP3    H250573   4.225   6.390   5.775 -2.6790  2.3796  0.5317
 9720TIP3   OH250574   5.837   4.583  16.443  0.1362  0.5106  0.5983
 9720TIP3    H150575   5.822   4.488  16.449  0.5155  0.2129 -2.0869
 9720TIP3    H250576   5.927   4.595  16.473 -0.4526  0.3113  2.5952
 9721TIP3   OH250577   1.187   1.696  16.561 -0.0226 -0.4483 -0.5804
 9721TIP3    H150578   1.264   1.709  16.505 -0.8154  0.4331 -1.4981
 9721TIP3    H250579   1.193   1.765  16.627  0.8473 -1.4145  0.4123
 9722TIP3   OH250580   1.678   3.884  15.666 -0.1038 -0.1581  0.1187
 9722TIP3    H150581   1.635   3.949  15.722  1.2525  1.2952 -0.4648
 9722TIP3    H250582   1.753   3.855  15.718 -0.3746 -0.8484  0.1351
 9723TIP3   OH250583   3.239   3.977  13.383 -0.1177 -0.0643 -0.0482
 9723TIP3    H150584   3.213   4.004  13.295  1.0651  0.7757 -0.1618
 9723TIP3    H250585   3.181   3.903  13.403 -0.0122 -0.6599 -1.7549
 9724TIP3   OH250586   5.709   0.243   5.365 -0.8554  0.5567 -0.2080
 9724TIP3    H150587   5.757   0.227   5.446 -0.0549  0.7660 -0.6340
 9724TIP3    H250588   5.774   0.233   5.296 -1.5415  0.3306 -0.8320
 9725TIP3   OH250589   5.514   4.504   5.746 -0.0973  0.3534 -0.2277
 9725TIP3    H150590   5.459   4.522   5.669  1.1811  1.8633 -0.8305
 9725TIP3    H250591   5.517   4.408   5.751 -1.1602  0.2324 -1.3413
 9726TIP3   OH250592   0.535   1.211  15.069  0.0015 -0.0703 -0.2466
 9726TIP3    H150593   0.540   1.119  15.093  1.2644  0.2838  0.9965
 9726TIP3    H250594   0.446   1.237  15.092 -0.4675 -1.0320 -0.9109
 9727TIP3   OH250595   5.705   5.014   1.892  0.4380  0.5897 -0.1752
 9727TIP3    H150596   5.680   4.990   1.981  0.0265  1.2189 -0.1201
 9727TIP3    H250597   5.793   5.051   1.901  1.5421 -1.7690 -0.3914
 9728TIP3   OH250598   0.349   1.789   2.036 -0.1685 -0.3577 -0.0090
 9728TIP3    H150599   0.276   1.826   2.085 -1.6908 -0.4534 -2.0830
 9728TIP3    H250600   0.407   1.863   2.019 -0.8370  0.1394 -0.1431
 9729TIP3   OH250601   3.286   5.324   6.235 -0.4270 -0.2837  0.8656
 9729TIP3    H150602   3.224   5.279   6.178 -2.2430  1.0292  1.7026
 9729TIP3    H250603   3.307   5.405   6.189  0.7435 -0.7259  0.5773
 9730TIP3   OH250604   6.419   1.675  13.190 -0.9311  0.3951 -0.6935
 9730TIP3    H150605   6.513   1.693  13.191 -0.7754 -0.0931  2.1725
 9730TIP3    H250606   6.379   1.754  13.154  0.5481  0.7722 -1.5607
 9731TIP3   OH250607   0.065   2.229  12.315 -0.1032  0.0788 -0.1202
 9731TIP3    H150608   0.086   2.222  12.408 -1.6406 -0.1852  0.2316
 9731TIP3    H250609   0.119   2.162  12.273  0.2439 -0.1326  0.6538
 9732TIP3   OH250610   2.341   2.362   1.916 -0.0070  0.0915  0.3393
 9732TIP3    H150611   2.286   2.410   1.978 -0.4951  0.9624 -0.7351
 9732TIP3    H250612   2.410   2.424   1.892  0.2987 -0.3112  0.1615
 9733TIP3   OH250613   3.795   1.022   2.912  0.7726  0.0820 -0.2109
 9733TIP3    H150614   3.880   1.058   2.937  0.5272 -0.0693  0.8780
 9733TIP3    H250615   3.783   1.051   2.821  1.1110  1.7679  0.2369
 9734TIP3   OH250616   0.889   4.853   1.627  0.0320 -0.2083  0.6640
 9734TIP3    H150617   0.920   4.762   1.632 -0.0521 -0.1744  2.2320
 9734TIP3    H250618   0.954   4.903   1.675  1.0874  0.9011 -1.7472
 9735TIP3   OH250619   2.600   1.872  15.200 -0.2168 -0.0547 -0.0186
 9735TIP3    H150620   2.627   1.784  15.173 -1.4873  0.4784 -3.6230
 9735TIP3    H250621   2.660   1.895  15.271  3.6731 -1.8298 -2.3835
 9736TIP3   OH250622   2.633   5.364   1.129 -0.1245 -0.1670  0.5495
 9736TIP3    H150623   2.720   5.395   1.157 -0.3947  1.0719  0.0959
 9736TIP3    H250624   2.632   5.380   1.035 -1.0581  0.3910  0.6430
 9737TIP3   OH250625   5.005   5.989   2.523  0.5863  0.4194  0.3725
 9737TIP3    H150626   5.100   5.983   2.512  0.7605  1.7816  0.9669
 9737TIP3    H250627   4.983   5.918   2.584  1.2535  0.2908  0.4679
 9738TIP3   OH250628   3.786   0.117   2.843 -0.0297  0.3131  0.9788
 9738TIP3    H150629   3.721   0.087   2.907 -0.2688 -0.1720  0.5104
 9738TIP3    H250630   3.735   0.164   2.777  0.0544 -0.3196  0.4566
 9739TIP3   OH250631   0.985   4.493   4.639  0.1696  0.1192  0.0525
 9739TIP3    H150632   1.039   4.425   4.599  0.9109  0.9640 -0.4044
 9739TIP3    H250633   0.971   4.462   4.729 -0.1791 -1.0132 -0.3688
 9740TIP3   OH250634   6.686   0.506   1.902  0.2700 -0.9216  0.0573
 9740TIP3    H150635   6.630   0.453   1.845 -2.4652  0.2211  1.4908
 9740TIP3    H250636   6.721   0.444   1.966 -0.3046 -1.4940 -0.1760
 9741TIP3   OH250637   0.163   2.418  15.020 -0.1279  0.4085 -0.3137
 9741TIP3    H150638   0.185   2.490  15.079  1.2264 -0.0670 -0.2119
 9741TIP3    H250639   0.240   2.360  15.022 -1.5773 -1.6028  0.4086
 9742TIP3   OH250640   0.382   4.249   2.899 -0.1355 -0.2911  0.1469
 9742TIP3    H150641   0.317   4.260   2.829  0.6617  1.1115 -0.4372
 9742TIP3    H250642   0.346   4.180   2.955 -1.6383 -0.2443 -0.6905
 9743TIP3   OH250643   6.000   6.386  16.439 -0.3794  0.6400 -0.5997
 9743TIP3    H150644   6.022   6.460  16.496  2.0914  0.1135 -0.7676
 9743TIP3    H250645   5.984   6.426  16.353  0.8520  1.0136 -0.6711
 9744TIP3   OH250646   6.341   5.627  16.357 -0.3965  0.0616 -0.1724
 9744TIP3    H150647   6.305   5.542  16.382  3.0143 -0.8762  2.2177
 9744TIP3    H250648   6.304   5.689  16.420 -1.5855  0.1136 -0.8812
 9745TIP3   OH250649   2.481   4.160  14.054  0.0354 -0.0307  0.0726
 9745TIP3    H150650   2.387   4.166  14.041 -0.6867 -1.9888  3.1979
 9745TIP3    H250651   2.505   4.243  14.095 -0.6263 -0.0467  0.5118
 9746TIP3   OH250652   4.542   0.051   4.960  0.0618 -0.8399 -0.5457
 9746TIP3    H150653   4.634   0.045   4.985 -0.3550  1.9846  2.2375
 9746TIP3    H250654   4.510  -0.039   4.968  1.9622 -1.4503  1.2731
 9747TIP3   OH250655   6.481   5.624  11.531  0.1166  0.1798  0.5678
 9747TIP3    H150656   6.475   5.678  11.453  3.9419  1.1820  0.7642
 9747TIP3    H250657   6.477   5.686  11.604  0.8105 -0.2215  0.9593
 9748TIP3   OH250658   0.542   4.680   2.180  0.0599  0.1543  0.3065
 9748TIP3    H150659   0.449   4.658   2.189 -0.5994  1.4806 -2.2292
 9748TIP3    H250660   0.587   4.596   2.184 -1.6494 -0.9855 -1.8222
 9749TIP3   OH250661   3.094   0.543   0.631  0.3235 -0.2772 -0.1128
 9749TIP3    H150662   3.037   0.612   0.595  0.9746  0.0909 -0.4639
 9749TIP3    H250663   3.061   0.528   0.719  0.4091  0.7629  0.1094
 9750TIP3   OH250664   1.244   2.165  10.758  0.6407  0.1906  0.6923
 9750TIP3    H150665   1.265   2.126  10.673 -0.4226 -0.3547  0.6649
 9750TIP3    H250666   1.258   2.258  10.746  0.4688  0.1181 -0.0994
 9751TIP3   OH250667   6.492   5.354  12.203  0.0481 -0.2055 -0.1063
 9751TIP3    H150668   6.522   5.434  12.160 -0.8255  0.2022  0.0094
 9751TIP3    H250669   6.491   5.288  12.134 -0.6052  0.2502 -0.5538
 9752TIP3   OH250670   2.369   0.282  15.354 -0.1988  0.1139  0.2901
 9752TIP3    H150671   2.362   0.193  15.389 -0.2409  0.2175  0.5504
 9752TIP3    H250672   2.463   0.298  15.349 -0.1922  0.1189  0.4138
 9753TIP3   OH250673   5.934   2.201  13.847  0.0157 -0.0410 -0.1374
 9753TIP3    H150674   5.947   2.288  13.810  0.8331 -0.3952 -0.7319
 9753TIP3    H250675   5.848   2.204  13.889 -0.3086  0.8040 -0.8490
 9754TIP3   OH250676   0.443   1.790   5.335 -0.1730 -0.2459 -0.1739
 9754TIP3    H150677   0.432   1.703   5.371 -0.6798 -0.3431 -0.5580
 9754TIP3    H250678   0.417   1.850   5.405  0.3694 -0.3954  0.1574
 9755TIP3   OH250679   5.486   0.916  14.395  0.4184 -0.0481  0.1339
 9755TIP3    H150680   5.578   0.901  14.371  0.1988  1.3772 -1.7999
 9755TIP3    H250681   5.490   0.943  14.487  1.9301  0.0684  0.0661
 9756TIP3   OH250682   3.705   1.755  14.061  0.3762  0.3450  0.5947
 9756TIP3    H150683   3.781   1.806  14.032 -1.0818  1.3051 -1.8106
 9756TIP3    H250684   3.728   1.664  14.041  1.2390  0.5203  0.7493
 9757TIP3   OH250685   1.089   1.254   3.306  0.2949 -0.0119 -0.6678
 9757TIP3    H150686   1.139   1.323   3.350 -1.4554  0.9487 -0.0931
 9757TIP3    H250687   1.023   1.300   3.255 -0.5039 -1.2390 -0.7944
 9758TIP3   OH250688   5.813   0.316  12.031  0.1618  0.4291  0.2670
 9758TIP3    H150689   5.731   0.286  12.069 -0.1611  0.4511 -0.4016
 9758TIP3    H250690   5.826   0.403  12.068 -1.0874  1.2141 -1.0266
 9759TIP3   OH250691   0.094   2.403  15.690 -0.6280 -0.3708  0.1817
 9759TIP3    H150692   0.114   2.398  15.597 -0.0073  0.7623  0.2357
 9759TIP3    H250693   0.167   2.356  15.732  0.6755  1.5845  0.2306
 9760TIP3   OH250694   3.940   2.872   5.486 -0.3461  0.3826  0.2529
 9760TIP3    H150695   3.858   2.885   5.535  0.5499  3.3087  1.1766
 9760TIP3    H250696   3.931   2.928   5.409  1.1833  1.5940  0.9190
 9761TIP3   OH250697   1.724   4.886   0.567  0.0484  0.2662  0.4819
 9761TIP3    H150698   1.706   4.792   0.566  0.4990  0.1899 -0.2280
 9761TIP3    H250699   1.808   4.896   0.523 -0.6496  1.1356 -0.7275
 9762TIP3   OH250700   5.379   5.548  11.792 -0.2249  0.2071 -0.1859
 9762TIP3    H150701   5.300   5.601  11.794 -1.1919 -1.2039  1.1315
 9762TIP3    H250702   5.350   5.459  11.811  1.8137 -0.1484  1.7294
 9763TIP3   OH250703   1.584   4.619   3.337  0.6695 -0.3195 -0.3532
 9763TIP3    H150704   1.513   4.683   3.333 -0.0259 -0.9407  1.2339
 9763TIP3    H250705   1.629   4.628   3.253 -1.6558 -0.3393 -1.6891
 9764TIP3   OH250706   3.424   2.383  15.897  0.5199  0.0808 -0.4786
 9764TIP3    H150707   3.406   2.290  15.911 -0.1061  0.2959  0.2015
 9764TIP3    H250708   3.435   2.419  15.985 -2.2092  1.2307 -0.5199
 9765TIP3   OH250709   3.172   2.602   1.296  0.0289 -0.1803  0.1835
 9765TIP3    H150710   3.175   2.516   1.252  1.3130  0.1263 -0.3683
 9765TIP3    H250711   3.154   2.664   1.225 -1.3576 -0.0170  0.6513
 9766TIP3   OH250712   5.120   3.446   6.334  0.5332 -0.2157  0.2190
 9766TIP3    H150713   5.148   3.357   6.354 -0.5146 -0.3223  1.3171
 9766TIP3    H250714   5.191   3.501   6.367  2.0177 -0.6487 -1.9996
 9767TIP3   OH250715   2.451   4.870   5.401  0.0368 -0.2547  0.3799
 9767TIP3    H150716   2.524   4.882   5.341 -0.5344 -2.7720 -0.9697
 9767TIP3    H250717   2.373   4.883   5.347 -0.5302  0.7870  1.4113
 9768TIP3   OH250718   3.647   5.040  11.650 -0.3703 -0.0412  0.0918
 9768TIP3    H150719   3.697   5.029  11.732 -0.7377 -0.9264  0.2067
 9768TIP3    H250720   3.584   4.969  11.651  0.1323 -0.5464 -1.3480
 9769TIP3   OH250721   1.313   3.558   3.212  0.0940  0.2335  0.1943
 9769TIP3    H150722   1.279   3.489   3.269 -0.9200  0.9661  0.4907
 9769TIP3    H250723   1.303   3.523   3.123 -1.2447  0.3418  0.2891
 9770TIP3   OH250724   3.948   3.053   6.012  0.0636 -0.2750  0.2046
 9770TIP3    H150725   3.865   3.089   6.041  0.0109 -0.1346 -0.1074
 9770TIP3    H250726   3.947   3.065   5.917  0.2203 -0.7397  0.1415
 9771TIP3   OH250727   2.826   0.876   3.514 -0.7683  0.5330  0.0771
 9771TIP3    H150728   2.892   0.939   3.483  0.2361 -1.1550 -1.4472
 9771TIP3    H250729   2.774   0.856   3.436 -1.6891  0.1735  0.7661
 9772TIP3   OH250730   1.913   0.772   5.244  0.3761 -0.0402  0.1824
 9772TIP3    H150731   1.823   0.770   5.211  0.0660  1.8930  0.7585
 9772TIP3    H250732   1.924   0.688   5.288 -1.3413 -0.1124  0.5440
 9773TIP3   OH250733   1.777   2.166   5.334 -0.1868 -0.0345  0.5765
 9773TIP3    H150734   1.816   2.173   5.248  0.4908 -0.8551  0.8143
 9773TIP3    H250735   1.779   2.256   5.368 -0.2749  0.2561 -0.1715
 9774TIP3   OH250736   1.712   5.339   3.514  0.0455  0.1089  0.5747
 9774TIP3    H150737   1.644   5.406   3.527  1.6779  1.3749  4.1067
 9774TIP3    H250738   1.668   5.256   3.535 -1.1230  0.4871 -0.2699
 9775TIP3   OH250739   5.976   0.594   6.134 -0.3392 -0.3330  0.1272
 9775TIP3    H150740   6.040   0.646   6.086 -2.3501  1.9673 -0.2447
 9775TIP3    H250741   6.025   0.556   6.207  1.8446 -0.3996 -1.2932
 9776TIP3   OH250742   1.746   1.681   5.145  0.2831 -0.1146 -0.4078
 9776TIP3    H150743   1.812   1.622   5.107 -0.1254 -0.2699 -0.8776
 9776TIP3    H250744   1.783   1.769   5.134  0.6410 -0.2367 -0.2079
 9777TIP3   OH250745   6.402   1.527   4.502 -0.3257  0.2671  0.4518
 9777TIP3    H150746   6.464   1.470   4.547 -0.0822  0.5865  0.5252
 9777TIP3    H250747   6.318   1.512   4.546 -0.3153 -0.2065  0.3178
 9778TIP3   OH250748   1.549   3.754   4.734 -0.1820 -0.1546  0.6023
 9778TIP3    H150749   1.605   3.743   4.811  0.3054  1.4013  0.5025
 9778TIP3    H250750   1.605   3.730   4.660  0.4777  1.5774  0.4859
 9779TIP3   OH250751   2.549   3.397   4.401 -0.6344  0.5932 -0.7456
 9779TIP3    H150752   2.493   3.460   4.448  0.7734  0.5379  1.1178
 9779TIP3    H250753   2.494   3.365   4.330 -1.5193  3.7187 -1.6470
 9780TIP3   OH250754   0.474   0.488  14.997  0.0615  0.1485  0.1503
 9780TIP3    H150755   0.555   0.534  14.975  0.3965 -0.7169 -0.4967
 9780TIP3    H250756   0.427   0.481  14.913  0.1908 -0.9823  0.1524
 9781TIP3   OH250757   4.773   6.005  11.628 -0.4147 -0.7075 -0.6296
 9781TIP3    H150758   4.734   5.961  11.552  0.2224 -2.0388 -0.2124
 9781TIP3    H250759   4.721   5.974  11.702 -0.1344 -0.5284 -0.3583
 9782TIP3   OH250760   5.411   3.153  16.497  0.0208 -0.0251  0.7473
 9782TIP3    H150761   5.466   3.140  16.574  0.3505 -0.8556  0.3873
 9782TIP3    H250762   5.472   3.158  16.424 -0.0312  3.6429  0.7515
 9783TIP3   OH250763   1.944   3.715  16.478 -0.3476 -0.5159  0.2247
 9783TIP3    H150764   1.904   3.792  16.517  0.0388 -0.1285 -0.1256
 9783TIP3    H250765   1.919   3.643  16.536 -0.1086 -0.0183  0.9701
 9784TIP3   OH250766   6.604   6.022   1.069 -0.2551 -0.0882  0.3922
 9784TIP3    H150767   6.693   5.987   1.072 -0.4112 -0.4639  0.8924
 9784TIP3    H250768   6.548   5.944   1.067 -0.5795  0.1399  0.4344
 9785TIP3   OH250769   1.530   2.467   3.387 -0.3150 -0.6693 -0.0464
 9785TIP3    H150770   1.512   2.415   3.309 -0.6388  0.0479 -0.4653
 9785TIP3    H250771   1.611   2.515   3.366  0.1082 -1.1753  0.4239
 9786TIP3   OH250772   1.379   2.795  13.844 -0.0808  0.5699 -0.2901
 9786TIP3    H150773   1.378   2.727  13.912  0.6425  1.0106  0.1720
 9786TIP3    H250774   1.432   2.866  13.881 -1.4240  1.7061 -0.4657
 9787TIP3   OH250775   3.602   5.032  15.193  0.1583  0.5361 -0.4174
 9787TIP3    H150776   3.512   5.009  15.214  0.2498  1.0231  0.5382
 9787TIP3    H250777   3.599   5.124  15.168  0.5856  0.9823  1.0570
 9788TIP3   OH250778   0.196   0.732  14.624  0.3047  0.6582 -0.1314
 9788TIP3    H150779   0.152   0.710  14.706  0.6057 -0.1325 -0.1730
 9788TIP3    H250780   0.289   0.731  14.645  0.4232 -0.1989 -0.6155
 9789TIP3   OH250781   1.934   2.192   0.457  0.2882 -0.0825  0.4798
 9789TIP3    H150782   1.878   2.254   0.504 -0.8022 -1.1219  0.5982
 9789TIP3    H250783   1.881   2.163   0.383  2.2906  2.2524 -2.1135
 9790TIP3   OH250784   1.468   5.336  11.938 -0.0188  0.5107  0.2871
 9790TIP3    H150785   1.476   5.410  11.878 -2.9209 -0.0488 -1.0011
 9790TIP3    H250786   1.440   5.375  12.021  0.5545  1.0037  0.2565
 9791TIP3   OH250787   1.386   6.358  11.813  0.3670  0.2908  0.8272
 9791TIP3    H150788   1.457   6.294  11.813 -1.1852 -1.5350  1.2228
 9791TIP3    H250789   1.324   6.326  11.747 -0.9386  0.7732  1.7582
 9792TIP3   OH250790   1.984   4.574  16.899 -0.0171  0.3325  0.2914
 9792TIP3    H150791   1.940   4.611  16.975  0.2768 -1.2138  1.2685
 9792TIP3    H250792   1.913   4.536  16.847 -0.0012 -1.0325  1.2185
 9793TIP3   OH250793   1.972   3.414  14.357 -0.0473 -0.0575 -0.1557
 9793TIP3    H150794   2.060   3.418  14.319 -0.0042  0.6523 -0.0104
 9793TIP3    H250795   1.977   3.472  14.434 -0.5646 -0.2261  0.0074
 9794TIP3   OH250796   4.626   2.223  14.204  0.1912 -0.3588 -0.1083
 9794TIP3    H150797   4.677   2.302  14.219 -0.9176  0.2220  0.7208
 9794TIP3    H250798   4.686   2.151  14.225  0.9689  0.2670 -0.1382
 9795TIP3   OH250799   4.760   6.217   1.447 -0.0807  0.3356 -0.0827
 9795TIP3    H150800   4.759   6.128   1.484 -1.0855  0.0359 -0.8067
 9795TIP3    H250801   4.699   6.267   1.501  1.2885  0.9055  1.0134
 9796TIP3   OH250802   1.364   3.651  15.283  0.1001  0.0193  0.0888
 9796TIP3    H150803   1.353   3.741  15.311 -0.3010 -0.1971  0.6368
 9796TIP3    H250804   1.354   3.599  15.362 -0.9600 -0.5928 -0.4188
 9797TIP3   OH250805   3.139   3.646  11.966 -0.1587  0.0466  0.5426
 9797TIP3    H150806   3.108   3.737  11.961 -2.5002 -0.7209 -2.5717
 9797TIP3    H250807   3.231   3.651  11.941 -0.1443  1.5988  0.8071
 9798TIP3   OH250808   2.085   2.773   2.848 -0.4583  0.3239 -0.9139
 9798TIP3    H150809   1.999   2.772   2.805 -0.8049 -1.3852 -0.2686
 9798TIP3    H250810   2.081   2.700   2.910  0.8148  1.3851  0.4516
 9799TIP3   OH250811   2.222   6.200  13.835  0.3472 -0.4291  0.3739
 9799TIP3    H150812   2.217   6.230  13.744 -0.4486  2.2568  1.2145
 9799TIP3    H250813   2.313   6.170  13.845  0.1932 -1.6981 -1.5121
 9800TIP3   OH250814   0.889   6.592  12.187  0.2868 -0.2191  0.1144
 9800TIP3    H150815   0.884   6.686  12.169 -0.1732  0.0546  1.5583
 9800TIP3    H250816   0.953   6.585  12.258 -0.4876 -0.8716  0.7720
 9801TIP3   OH250817   0.001   1.398   2.210 -0.4850 -0.1501 -0.5369
 9801TIP3    H150818   0.079   1.444   2.180 -1.3349  1.2520 -0.6525
 9801TIP3    H250819  -0.068   1.464   2.211 -1.4101 -1.0778  0.7057
 9802TIP3   OH250820   5.720   4.567  16.723 -0.1932 -0.0405 -0.6283
 9802TIP3    H150821   5.782   4.549  16.794  0.1486 -0.1536 -0.9511
 9802TIP3    H250822   5.775   4.597  16.651 -0.3757 -1.3198 -1.3273
 9803TIP3   OH250823   4.613   0.232   5.315 -0.3306 -0.5389  0.1176
 9803TIP3    H150824   4.682   0.172   5.287 -0.8261 -0.5957 -1.0689
 9803TIP3    H250825   4.536   0.203   5.266 -0.6395  0.9126 -0.2888
 9804TIP3   OH250826   3.887   4.165   4.813 -0.2807  0.0410 -0.1040
 9804TIP3    H150827   3.827   4.239   4.826  1.0631  1.3377 -0.9342
 9804TIP3    H250828   3.888   4.151   4.719 -0.3622 -0.9295  0.0269
 9805TIP3   OH250829   2.914   6.060  11.607  0.1780 -0.4580 -0.1484
 9805TIP3    H150830   2.977   6.054  11.679 -1.1377  2.0838  1.3417
 9805TIP3    H250831   2.848   5.994  11.627  0.0982 -0.1297  0.7325
 9806TIP3   OH250832   4.198   1.619  14.792  0.5966 -0.3805 -0.2602
 9806TIP3    H150833   4.286   1.620  14.755  0.6371  0.5648 -0.1592
 9806TIP3    H250834   4.156   1.697  14.756 -0.5556 -1.3820 -1.1267
 9807TIP3   OH250835   0.917   4.514  15.703 -0.5422  0.4897 -0.3115
 9807TIP3    H150836   0.947   4.550  15.620 -0.4109 -0.1755 -0.5527
 9807TIP3    H250837   0.942   4.422  15.701 -0.7474  0.4106  0.3640
 9808TIP3   OH250838   0.063   5.018  10.930 -0.0064 -0.3963  0.5781
 9808TIP3    H150839  -0.018   5.008  10.980  1.1265 -1.2298  2.3296
 9808TIP3    H250840   0.130   4.973  10.982  1.5744  0.1383 -0.8824
 9809TIP3   OH250841   2.551   3.641   4.252  0.4116 -0.7621  0.6239
 9809TIP3    H150842   2.572   3.702   4.181  0.2698 -0.6999  0.6339
 9809TIP3    H250843   2.636   3.616   4.288  0.4441  0.4255  1.4587
 9810TIP3   OH250844   5.797   5.182  16.596 -0.2655 -0.2014  0.2873
 9810TIP3    H150845   5.789   5.089  16.616 -0.3468 -0.8170 -2.2977
 9810TIP3    H250846   5.707   5.211  16.585 -0.1804 -0.5302 -1.6187
 9811TIP3   OH250847   0.908   4.632  12.157 -0.3340 -0.1472  0.7602
 9811TIP3    H150848   0.870   4.707  12.202 -0.1177 -1.3064  3.0425
 9811TIP3    H250849   0.844   4.562  12.169  0.0812 -0.6992 -0.1397
 9812TIP3   OH250850   1.250   0.999  16.526  0.0458 -0.5253 -0.0724
 9812TIP3    H150851   1.201   1.073  16.492  1.3852  0.5330  0.2385
 9812TIP3    H250852   1.285   1.028  16.610  2.9959 -0.3942 -1.2076
 9813TIP3   OH250853   6.343   5.397  16.122  0.3884  0.3802 -0.3890
 9813TIP3    H150854   6.261   5.445  16.137  1.7528  3.1053 -1.0205
 9813TIP3    H250855   6.329   5.350  16.040 -0.9444 -0.2849  0.1784
 9814TIP3   OH250856   5.766   2.559  16.496 -0.2181  0.0569  0.1311
 9814TIP3    H150857   5.800   2.474  16.522  0.7745  0.8889  1.7242
 9814TIP3    H250858   5.844   2.611  16.476 -0.7873  0.7277 -0.3798
 9815TIP3   OH250859   3.916   3.696  16.015 -0.1203  0.2964  0.0791
 9815TIP3    H150860   3.844   3.646  15.976  0.5645 -0.2597 -0.4966
 9815TIP3    H250861   3.906   3.784  15.979 -0.6938  0.3030  0.2466
 9816TIP3   OH250862   3.465   3.145   1.697  0.4888 -0.4579 -0.5230
 9816TIP3    H150863   3.465   3.050   1.709 -3.3305 -0.4900  0.4816
 9816TIP3    H250864   3.489   3.157   1.606  1.4282 -2.3303 -0.5839
 9817TIP3   OH250865   6.536   0.587  16.834  0.2149 -0.3112 -0.2115
 9817TIP3    H150866   6.569   0.615  16.749  0.0648  0.3943 -0.0422
 9817TIP3    H250867   6.483   0.661  16.865  1.5248  0.0928  1.1915
 9818TIP3   OH250868   4.169   6.717  12.299  0.0975 -0.1918  0.3062
 9818TIP3    H150869   4.230   6.701  12.228  0.9762 -1.1309  1.2457
 9818TIP3    H250870   4.169   6.812  12.310  0.3303 -0.0803 -0.6022
 9819TIP3   OH250871   4.471   0.532   2.853  0.4113  0.1879  0.9607
 9819TIP3    H150872   4.476   0.469   2.925 -1.5591 -1.6325 -0.3793
 9819TIP3    H250873   4.464   0.478   2.774 -0.0785  2.1066 -0.3761
 9820TIP3   OH250874   0.270   0.792  16.300 -0.4840 -0.1669 -0.0857
 9820TIP3    H150875   0.222   0.746  16.370  1.2322 -2.4151 -0.2869
 9820TIP3    H250876   0.299   0.723  16.241  4.1403  0.7142  0.7216
 9821TIP3   OH250877   6.416   3.142   1.168 -0.5470 -0.3508 -0.6699
 9821TIP3    H150878   6.435   3.055   1.133 -0.5312  0.3317 -2.4592
 9821TIP3    H250879   6.345   3.128   1.230  0.6252 -1.8694  0.3913
 9822TIP3   OH250880   4.554   0.614  12.530 -0.3434  0.2342 -0.2905
 9822TIP3    H150881   4.541   0.709  12.526 -0.6591  0.1721 -0.7907
 9822TIP3    H250882   4.646   0.604  12.554 -0.4877  0.6671  0.4502
 9823TIP3   OH250883   4.039   2.678   3.196 -0.3885 -0.2470 -0.0654
 9823TIP3    H150884   4.126   2.651   3.225 -0.0093  2.7849  2.1086
 9823TIP3    H250885   4.055   2.729   3.117 -0.4363 -1.1280 -0.6609
 9824TIP3   OH250886   1.121   1.481   5.849  0.0922  0.3779 -0.2217
 9824TIP3    H150887   1.032   1.507   5.875  0.4402  0.3211  1.0952
 9824TIP3    H250888   1.144   1.411   5.910  1.2129  0.6945 -0.2602
 9825TIP3   OH250889   5.991   3.058  16.164 -0.1765 -0.4213 -0.1002
 9825TIP3    H150890   5.929   2.986  16.177 -1.4173  0.8142  1.0848
 9825TIP3    H250891   6.042   3.061  16.245 -0.6633  0.5182  0.1808
 9826TIP3   OH250892   5.268   0.765  11.085 -0.7393 -0.0309  0.2634
 9826TIP3    H150893   5.233   0.764  10.996 -0.7616  2.8687  0.1560
 9826TIP3    H250894   5.220   0.696  11.130 -1.1922 -1.1239 -1.7763
 9827TIP3   OH250895   3.939   0.853   2.412 -0.2233  0.0963  0.2900
 9827TIP3    H150896   3.892   0.864   2.494  1.0656  0.5417  1.0051
 9827TIP3    H250897   3.887   0.791   2.362 -0.3472 -1.2641  2.0064
 9828TIP3   OH250898   5.001   2.741  14.842  0.0456 -0.6267 -0.6039
 9828TIP3    H150899   4.905   2.734  14.844  0.0630 -1.0849  1.7527
 9828TIP3    H250900   5.019   2.834  14.861  0.0968 -0.3696 -1.8169
 9829TIP3   OH250901   0.029   0.846   0.373 -0.1080  0.7477 -0.0280
 9829TIP3    H150902  -0.017   0.783   0.318  0.5755  0.3050 -0.1042
 9829TIP3    H250903   0.079   0.792   0.434  0.5325  1.2136 -0.1327
 9830TIP3   OH250904   2.692   3.991   4.660 -0.0288 -0.0331  0.0985
 9830TIP3    H150905   2.639   3.959   4.588  0.7539  0.7259 -0.8424
 9830TIP3    H250906   2.631   4.000   4.733 -1.2836  1.1134 -1.0390
 9831TIP3   OH250907   4.802   1.732   0.722 -0.5734 -0.4600 -1.0729
 9831TIP3    H150908   4.848   1.769   0.798 -2.6223  0.4762 -0.2239
 9831TIP3    H250909   4.815   1.637   0.730 -1.1974 -0.4354  0.7913
 9832TIP3   OH250910   6.229   6.752  11.481 -0.0043 -0.0105  0.2250
 9832TIP3    H150911   6.314   6.767  11.523 -0.3770 -0.6915  1.2803
 9832TIP3    H250912   6.250   6.706  11.400  0.6257 -0.3999  0.6007
 9833TIP3   OH250913   6.746   1.170  12.466 -0.3141  0.5457 -0.0553
 9833TIP3    H150914   6.772   1.129  12.548 -0.6516 -0.6411 -0.5173
 9833TIP3    H250915   6.662   1.211  12.485 -0.0644  0.8744  0.3625
 9834TIP3   OH250916   3.223   1.788   0.780  0.1943 -0.1321 -0.2451
 9834TIP3    H150917   3.306   1.796   0.733 -0.5054 -1.1851 -1.7228
 9834TIP3    H250918   3.233   1.708   0.832 -0.1860 -0.7546 -1.1021
 9835TIP3   OH250919   2.983   3.348  16.881  0.0962 -0.5436  0.0587
 9835TIP3    H150920   2.925   3.372  16.809 -0.3801 -2.2667 -0.1910
 9835TIP3    H250921   3.023   3.430  16.909 -2.4460  0.7252  0.2232
 9836TIP3   OH250922   5.375   5.907  17.138 -0.1284  0.1463  0.3158
 9836TIP3    H150923   5.419   5.901  17.222  0.7905 -0.0781 -0.1755
 9836TIP3    H250924   5.343   5.819  17.121 -0.7771  0.3055  0.6631
 9837TIP3   OH250925   4.013   1.428   5.793  0.1238 -0.6200 -0.1532
 9837TIP3    H150926   3.969   1.405   5.711 -1.3936  0.0906  0.4060
 9837TIP3    H250927   4.061   1.508   5.773 -2.2055  0.9470  0.1846
 9838TIP3   OH250928   6.305   4.928  15.638 -0.5679  0.1048 -0.0051
 9838TIP3    H150929   6.335   4.857  15.695 -0.3222  0.6744  0.5747
 9838TIP3    H250930   6.330   5.008  15.683 -1.0740  0.5712 -0.5351
 9839TIP3   OH250931   0.006   2.707  16.720  0.1463 -0.4355 -0.1504
 9839TIP3    H150932   0.022   2.801  16.715 -1.3275  0.0181  2.0968
 9839TIP3    H250933  -0.003   2.690  16.814 -0.0019 -2.7721 -0.5316
 9840TIP3   OH250934   0.680   4.229  11.559 -0.4635  0.3030 -0.0967
 9840TIP3    H150935   0.721   4.212  11.644  1.8609 -0.3790 -1.2659
 9840TIP3    H250936   0.632   4.311  11.572  0.1884  0.4590  1.7434
 9841TIP3   OH250937   2.136   1.705  16.498  0.4455 -0.4994 -0.0565
 9841TIP3    H150938   2.150   1.725  16.590  1.0248  2.1661 -0.6162
 9841TIP3    H250939   2.058   1.756  16.474  1.4135  0.4273 -1.4296
 9842TIP3   OH250940   4.231   1.478  17.356  0.7309 -0.1511  0.0764
 9842TIP3    H150941   4.276   1.395  17.344  0.4751 -0.3733  0.6693
 9842TIP3    H250942   4.295   1.544  17.329  1.1621 -0.5013  0.2437
 9843TIP3   OH250943   2.011   2.202  16.701  1.2192 -0.1958  0.7060
 9843TIP3    H150944   1.960   2.143  16.756  1.1286 -1.0877 -0.3271
 9843TIP3    H250945   2.063   2.145  16.645  1.2816  0.6948 -0.1737
 9844TIP3   OH250946   6.034   4.511   2.138 -0.1574 -0.2250 -0.0598
 9844TIP3    H150947   6.064   4.562   2.062 -1.2078  2.1314  1.0088
 9844TIP3    H250948   6.067   4.560   2.214  0.0578 -2.0004  1.0497
 9845TIP3   OH250949   1.101   0.113   5.578  0.4970  0.1432  0.2672
 9845TIP3    H150950   1.111   0.093   5.485  1.0575 -0.3138  0.4146
 9845TIP3    H250951   1.014   0.151   5.586  0.8440  1.1656 -0.6005
 9846TIP3   OH250952   2.979   5.157   0.153  0.4008  0.5028  0.1169
 9846TIP3    H150953   2.958   5.066   0.171  0.7936  0.3390 -0.2289
 9846TIP3    H250954   2.917   5.183   0.085  0.4003  0.4457  0.0961
 9847TIP3   OH250955   4.966   0.150   2.605 -0.3321  0.1636  0.2173
 9847TIP3    H150956   4.883   0.193   2.589 -0.3475  0.3524  0.8043
 9847TIP3    H250957   4.949   0.089   2.676 -0.0629 -0.0843  0.0747
 9848TIP3   OH250958   1.177   2.488  14.125 -0.2030 -0.7570  0.7097
 9848TIP3    H150959   1.149   2.569  14.168 -0.1742 -0.8345  0.8763
 9848TIP3    H250960   1.108   2.425  14.145  0.5891 -1.2535  2.0442
 9849TIP3   OH250961   0.707   0.783   6.653  0.3053 -0.3643  0.8100
 9849TIP3    H150962   0.653   0.712   6.620 -1.3034 -0.0530  2.6130
 9849TIP3    H250963   0.797   0.751   6.645  0.1665 -0.2668 -3.8198
 9850TIP3   OH250964   2.522   4.734  11.952  0.4220 -0.3913 -0.1310
 9850TIP3    H150965   2.429   4.750  11.934  0.2384 -0.1887  0.9484
 9850TIP3    H250966   2.523   4.684  12.034  1.2718 -0.2199 -0.0273
 9851TIP3   OH250967   5.323   0.781   6.225  0.1039 -0.5166  0.0873
 9851TIP3    H150968   5.297   0.851   6.285 -1.2134 -1.4256  0.6341
 9851TIP3    H250969   5.242   0.731   6.210  0.5080 -0.6571 -2.0098
 9852TIP3   OH250970   3.611   3.662   3.259 -0.3219  0.1133  0.2226
 9852TIP3    H150971   3.687   3.717   3.240 -1.5630  2.7613  2.2307
 9852TIP3    H250972   3.540   3.701   3.207 -1.2437  0.5242  1.7271
 9853TIP3   OH250973   6.470   4.701   4.051  0.6699 -0.4784  0.1739
 9853TIP3    H150974   6.435   4.612   4.049  0.5619 -0.4244 -0.9345
 9853TIP3    H250975   6.506   4.715   3.963  0.6541  0.5826  0.3198
 9854TIP3   OH250976   5.121   0.602   2.150  0.0324 -0.3900  0.3256
 9854TIP3    H150977   5.112   0.514   2.185  0.1870 -0.5029  0.0810
 9854TIP3    H250978   5.159   0.653   2.222  3.3827 -1.3075 -0.6033
 9855TIP3   OH250979   0.001   3.467  13.318 -0.2181  0.1570  0.1615
 9855TIP3    H150980  -0.088   3.490  13.346  0.2545 -0.2062  2.1397
 9855TIP3    H250981   0.057   3.501  13.387  1.2231  0.5143 -1.1273
 9856TIP3   OH250982   4.612   3.572   5.654 -0.3896 -0.1418  0.2847
 9856TIP3    H150983   4.580   3.662   5.655 -0.7668 -0.2794  0.8287
 9856TIP3    H250984   4.610   3.546   5.562  0.8728  0.8080 -0.0352
 9857TIP3   OH250985   4.739   3.731   4.826 -0.6970  0.3074 -0.2305
 9857TIP3    H150986   4.822   3.689   4.801 -0.4339  2.2543 -3.1378
 9857TIP3    H250987   4.717   3.691   4.910  4.0760  0.8706  1.6411
 9858TIP3   OH250988   4.275   5.022  16.426  0.0910  0.2800 -0.1309
 9858TIP3    H150989   4.235   4.979  16.502  0.8054  0.8601  0.5852
 9858TIP3    H250990   4.274   4.955  16.358  0.4131 -0.6094  0.7110
 9859TIP3   OH250991   2.653   0.923  11.644  0.1238 -0.2775  0.1651
 9859TIP3    H150992   2.590   0.916  11.716  0.9742 -1.0300  0.8677
 9859TIP3    H250993   2.614   0.985  11.583 -0.2881  0.9616  1.6328
 9860TIP3   OH250994   1.153   3.657   4.235 -0.0438  0.3387  0.8979
 9860TIP3    H150995   1.187   3.596   4.301  2.1207 -1.0564 -1.3570
 9860TIP3    H250996   1.215   3.729   4.234 -0.3997  0.6488  0.7617
 9861TIP3   OH250997   1.414   1.393  10.948 -0.1436  0.4190  0.1426
 9861TIP3    H150998   1.364   1.349  10.880  2.1115 -1.4843 -0.4267
 9861TIP3    H250999   1.452   1.469  10.905  0.6216 -0.3356 -0.5626
 9862TIP3   OH251000   4.803   3.743   0.063  0.7098  0.4532  0.1053
 9862TIP3    H151001   4.775   3.795  -0.012 -0.1138 -0.5458 -0.3040
 9862TIP3    H251002   4.741   3.766   0.132  0.4305  0.1278 -0.0342
 9863TIP3   OH251003   1.707   5.363  16.301 -0.6288 -0.3723 -0.3128
 9863TIP3    H151004   1.774   5.327  16.359 -0.8631  0.4654  0.4934
 9863TIP3    H251005   1.679   5.288  16.248  2.2169 -0.3846 -1.9846
 9864TIP3   OH251006   5.830   4.791   5.172 -0.5512  0.2250  0.3452
 9864TIP3    H151007   5.768   4.840   5.118 -2.3484  1.2822  3.1327
 9864TIP3    H251008   5.896   4.855   5.198 -0.6261  0.1643  0.7031
 9865TIP3   OH251009   4.240   0.487   1.425 -0.3410  0.2477  0.1282
 9865TIP3    H151010   4.299   0.423   1.384 -0.0904  0.9874 -0.6905
 9865TIP3    H251011   4.283   0.571   1.411 -1.6116  0.8090 -0.5430
 9866TIP3   OH251012   5.606   2.829  11.299 -0.1026 -0.1664  0.1059
 9866TIP3    H151013   5.583   2.892  11.368  1.0994  0.1341  0.2605
 9866TIP3    H251014   5.613   2.745  11.344 -1.6298 -0.4202 -0.0846
 9867TIP3   OH251015   5.406   3.535   3.067 -0.3741 -0.5989 -0.0600
 9867TIP3    H151016   5.327   3.573   3.028 -0.4684 -0.6028  0.1290
 9867TIP3    H251017   5.408   3.445   3.034  0.4875 -0.0975 -1.4762
 9868TIP3   OH251018   4.175   0.464   5.123 -0.6488 -0.0214  0.3174
 9868TIP3    H151019   4.091   0.445   5.081 -1.5297  1.1673  1.4629
 9868TIP3    H251020   4.186   0.393   5.187 -0.5507 -0.4269 -0.1463
 9869TIP3   OH251021   5.916   3.113  12.292 -0.1643  0.6020  0.0763
 9869TIP3    H151022   5.932   3.025  12.326 -0.9888  0.0553 -0.8984
 9869TIP3    H251023   5.922   3.170  12.369  1.8161 -0.0954  0.4897
 9870TIP3   OH251024   3.117   4.175  17.231  0.2905 -0.5211 -0.0362
 9870TIP3    H151025   3.102   4.260  17.188  1.6492 -0.0969  0.2840
 9870TIP3    H251026   3.044   4.167  17.292  0.9484  1.1780  1.0539
 9871TIP3   OH251027   1.676   3.846   4.433 -0.4223 -0.1788  0.5881
 9871TIP3    H151028   1.593   3.861   4.388 -2.2206 -1.8166  3.0985
 9871TIP3    H251029   1.675   3.909   4.505 -0.9310 -2.0859  2.3319
 9872TIP3   OH251030   3.513   6.464  10.943  0.1997 -0.5518  0.3318
 9872TIP3    H151031   3.601   6.427  10.931  0.0681 -0.8290  0.2186
 9872TIP3    H251032   3.507   6.534  10.877  0.2353 -0.7123  0.1576
 9873TIP3   OH251033   0.699   5.691   3.596 -0.5330 -0.4069 -0.2816
 9873TIP3    H151034   0.641   5.666   3.667 -0.5703  0.4035 -0.0169
 9873TIP3    H251035   0.640   5.721   3.526 -0.4316  1.4574  0.3877
 9874TIP3   OH251036   5.441   5.361   2.398 -0.0543 -0.0171  0.1286
 9874TIP3    H151037   5.494   5.431   2.359  0.4693  0.0077  0.8620
 9874TIP3    H251038   5.354   5.374   2.361 -0.2301  1.6732  1.0192
 9875TIP3   OH251039   2.818   0.387  13.861 -0.8112  0.1036  0.3761
 9875TIP3    H151040   2.836   0.301  13.823 -2.7129 -0.2308  0.1620
 9875TIP3    H251041   2.904   0.418  13.889  0.0377 -1.5033 -0.2710
 9876TIP3   OH251042   1.150   2.575   6.181 -0.1063  0.0942  0.1723
 9876TIP3    H151043   1.169   2.531   6.263 -0.1027 -0.8699 -0.3313
 9876TIP3    H251044   1.073   2.629   6.199 -0.4502 -0.5485  0.6614
 9877TIP3   OH251045   0.717   5.375  16.464 -0.1419  0.2693  0.0625
 9877TIP3    H151046   0.666   5.455  16.470  0.0132  0.5189 -1.5494
 9877TIP3    H251047   0.663   5.309  16.509 -0.9545  0.9529  0.1208
 9878TIP3   OH251048   4.519   2.074   2.081  0.1332 -0.0897 -0.1510
 9878TIP3    H151049   4.553   2.139   2.019 -1.9483 -0.2102 -1.5274
 9878TIP3    H251050   4.480   2.127   2.151  0.8411  0.0888  0.1101
 9879TIP3   OH251051   6.560   1.479  13.954  0.3762  0.4261 -0.2788
 9879TIP3    H151052   6.465   1.483  13.938  0.4499  0.5011 -0.7211
 9879TIP3    H251053   6.599   1.518  13.876  0.7781  0.2516 -0.1681
 9880TIP3   OH251054   3.643   0.816  12.028 -0.0775 -0.2883 -0.2203
 9880TIP3    H151055   3.631   0.799  12.121 -0.2663  1.4432  0.0942
 9880TIP3    H251056   3.622   0.732  11.986 -1.1904 -0.7719  1.2014
 9881TIP3   OH251057   0.684   2.524  12.419 -0.1160  0.3682  0.5958
 9881TIP3    H151058   0.774   2.524  12.385 -0.6004 -0.9015 -0.8210
 9881TIP3    H251059   0.630   2.543  12.342 -1.1611 -0.8901  0.9990
 9882TIP3   OH251060   2.691   4.402  10.817  0.2603  0.0826 -0.6591
 9882TIP3    H151061   2.663   4.491  10.796 -0.6116 -0.1977 -0.7261
 9882TIP3    H251062   2.765   4.386  10.759  0.0471  0.5507 -1.0694
 9883TIP3   OH251063   6.435   6.679   4.500 -0.2941  0.5321  0.1554
 9883TIP3    H151064   6.402   6.768   4.489 -1.3612 -0.0082 -1.3643
 9883TIP3    H251065   6.504   6.670   4.435  1.0985  0.7894  1.5294
 9884TIP3   OH251066   4.454   2.794   5.321  0.1569  0.5874  0.1561
 9884TIP3    H151067   4.363   2.816   5.339  0.0546  0.8220 -0.6083
 9884TIP3    H251068   4.499   2.878   5.312  0.3714  0.4763  0.1751
 9885TIP3   OH251069   6.056   3.532   1.608  0.2643  0.7330 -0.2269
 9885TIP3    H151070   6.081   3.613   1.652 -1.8267  0.7521  1.0884
 9885TIP3    H251071   5.968   3.549   1.574 -0.0741 -0.8447 -0.2504
 9886TIP3   OH251072   2.220   6.224   1.372 -0.0221 -0.3710 -0.3672
 9886TIP3    H151073   2.174   6.193   1.294  0.7506  0.4445 -1.1738
 9886TIP3    H251074   2.219   6.150   1.432 -2.4825 -0.3694 -0.2864
 9887TIP3   OH251075   3.921   0.614  11.850 -0.0236  0.4246  0.2869
 9887TIP3    H151076   3.993   0.553  11.836 -0.1994  0.0904  0.8054
 9887TIP3    H251077   3.864   0.602  11.775  0.2176  0.3455  0.1150
 9888TIP3   OH251078   2.125   5.821  17.217  0.4071  0.2795 -0.2742
 9888TIP3    H151079   2.140   5.882  17.145  0.0674 -0.8775 -1.3628
 9888TIP3    H251080   2.186   5.849  17.285  0.1339  1.9337 -0.6644
 9889TIP3   OH251081   5.444   0.970   6.035  0.0821 -0.3608 -0.3109
 9889TIP3    H151082   5.398   0.905   6.088 -0.1452 -0.6991 -0.9133
 9889TIP3    H251083   5.526   0.985   6.082  0.0513 -0.9352 -0.0583
 9890TIP3   OH251084   5.043   5.233  17.078 -0.7707 -0.4058 -0.6623
 9890TIP3    H151085   5.113   5.167  17.081  0.2769  0.7023  0.0107
 9890TIP3    H251086   5.082   5.307  17.032 -1.2296  0.5277  0.4182
 9891TIP3   OH251087   4.789   0.507  13.732 -0.0241 -0.9522 -0.4325
 9891TIP3    H151088   4.803   0.580  13.671 -1.6669  1.3156  1.7328
 9891TIP3    H251089   4.870   0.455  13.726  0.4218 -0.1224 -3.4608
 9892TIP3   OH251090   0.255   1.641   3.718  0.0244  0.4519 -0.4215
 9892TIP3    H151091   0.244   1.730   3.685  0.3116 -0.5474 -3.5312
 9892TIP3    H251092   0.341   1.615   3.685  0.2564 -0.7416  1.0692
 9893TIP3   OH251093   0.988   2.075   3.854  0.5850  0.5725  0.7602
 9893TIP3    H151094   0.993   2.169   3.834 -0.7643  0.3979 -0.5301
 9893TIP3    H251095   0.975   2.033   3.770 -2.2070 -0.4670  1.5979
 9894TIP3   OH251096   0.351   5.780   2.023  0.0327  0.1997  0.2281
 9894TIP3    H151097   0.262   5.809   2.004  1.1374  2.5995 -1.8342
 9894TIP3    H251098   0.390   5.851   2.073  0.4386 -1.4870  2.5106
 9895TIP3   OH251099   4.171   6.518  16.503 -0.0078 -0.0920 -0.5443
 9895TIP3    H151100   4.143   6.498  16.593  1.1554 -0.2377 -0.2035
 9895TIP3    H251101   4.106   6.582  16.472 -1.9397 -1.9100 -0.5296
 9896TIP3   OH251102   3.700   2.457  12.081  0.4134 -0.1352 -0.0141
 9896TIP3    H151103   3.621   2.403  12.076  0.5429 -0.2272 -1.8015
 9896TIP3    H251104   3.762   2.414  12.021  1.8820 -0.1189  1.4011
 9897TIP3   OH251105   5.443   3.737  17.001 -0.2250 -0.0594 -0.6564
 9897TIP3    H151106   5.366   3.713  16.950 -1.0459  0.1523  0.4636
 9897TIP3    H251107   5.419   3.818  17.045 -0.4367 -1.4082  1.8980
 9898TIP3   OH251108   2.557   0.165   0.219 -0.2786 -0.3557 -0.5548
 9898TIP3    H151109   2.558   0.088   0.163 -0.6891 -0.0153 -1.0428
 9898TIP3    H251110   2.648   0.177   0.246  0.0831 -0.0415 -1.8398
 9899TIP3   OH251111   4.864   2.471  15.113  0.0412 -0.0628  0.1397
 9899TIP3    H151112   4.879   2.377  15.118  0.3527 -0.0111  0.1841
 9899TIP3    H251113   4.777   2.479  15.075  0.3964 -0.3585 -0.7695
 9900TIP3   OH251114   3.324   3.685   2.115 -0.3986  0.2862 -0.4812
 9900TIP3    H151115   3.382   3.732   2.056  0.7354 -0.0490  0.3305
 9900TIP3    H251116   3.291   3.612   2.063  2.9062 -1.7753  0.0350
 9901TIP3   OH251117   6.656   3.734   2.145 -0.4712  0.1109  0.2325
 9901TIP3    H151118   6.588   3.767   2.203 -1.6304 -1.5572 -0.0929
 9901TIP3    H251119   6.681   3.650   2.184 -0.0866 -0.2567 -0.7794
 9902TIP3   OH251120   4.846   1.404  12.190 -0.2991  0.0173 -0.2856
 9902TIP3    H151121   4.779   1.400  12.122 -0.7702 -1.7443  0.2458
 9902TIP3    H251122   4.832   1.326  12.243  0.7465  0.7859  1.2057
 9903TIP3   OH251123   3.484   5.425  13.169  0.2074  0.0770 -0.0108
 9903TIP3    H151124   3.468   5.495  13.106  1.3698 -1.4124 -2.1005
 9903TIP3    H251125   3.400   5.414  13.214 -0.4124  1.7875 -0.6640
 9904TIP3   OH251126   2.639   5.955   4.786 -0.4416  0.2693 -0.5093
 9904TIP3    H151127   2.637   6.007   4.867  0.5338  1.4897 -1.2369
 9904TIP3    H251128   2.549   5.961   4.752 -1.1046 -0.9906  0.8952
 9905TIP3   OH251129   1.591   3.227   2.629 -0.3126  0.0099 -0.1741
 9905TIP3    H151130   1.505   3.184   2.630  0.0261 -0.6844 -0.0426
 9905TIP3    H251131   1.642   3.181   2.696  0.7975 -0.9747 -1.6104
 9906TIP3   OH251132   4.276   0.615   2.594  0.5754 -0.0048  0.5831
 9906TIP3    H151133   4.196   0.586   2.638  0.1001 -0.6570 -0.6693
 9906TIP3    H251134   4.343   0.552   2.622  0.8519  0.9409  2.1771
 9907TIP3   OH251135   6.207   1.436  13.513  0.3442  0.0160  0.0735
 9907TIP3    H151136   6.298   1.412  13.531  0.4532  0.9401  0.8468
 9907TIP3    H251137   6.159   1.354  13.521  0.7817 -0.0943  2.0138
 9908TIP3   OH251138   3.666   4.115  11.717 -0.4764  0.4837  0.1412
 9908TIP3    H151139   3.679   4.112  11.812 -1.2835  1.7767  0.3047
 9908TIP3    H251140   3.755   4.125  11.681  0.0695 -2.0499  0.6069
 9909TIP3   OH251141   5.784   0.193   4.872  0.0786  0.4270  0.0105
 9909TIP3    H151142   5.743   0.109   4.893  0.3247  0.6821  1.6895
 9909TIP3    H251143   5.875   0.183   4.900  0.2053  1.1249 -0.1261
 9910TIP3   OH251144   5.278   2.862  10.478 -0.3760 -0.3126  0.2106
 9910TIP3    H151145   5.271   2.784  10.423  0.6135  0.6155 -1.2918
 9910TIP3    H251146   5.218   2.925  10.439 -0.6995 -0.0939  1.0416
 9911TIP3   OH251147   1.113   1.648   2.091 -0.1994 -0.1333  0.0272
 9911TIP3    H151148   1.076   1.560   2.085  0.7804 -0.4886 -1.6029
 9911TIP3    H251149   1.039   1.703   2.117 -0.7890 -1.4455  1.2522
 9912TIP3   OH251150   1.779   2.726   6.070 -0.1150  0.1179  0.3889
 9912TIP3    H151151   1.740   2.731   5.983  0.8302 -0.7956 -0.1206
 9912TIP3    H251152   1.809   2.815   6.088  1.8943 -0.1217 -1.3194
 9913TIP3   OH251153   5.469   3.423   0.578  0.1054 -0.2941 -0.2650
 9913TIP3    H151154   5.468   3.329   0.595  0.8827 -0.7049 -2.2617
 9913TIP3    H251155   5.386   3.454   0.613 -1.0889 -2.0817 -1.3250
 9914TIP3   OH251156   5.541   1.608   5.826  0.4177  0.1444 -0.1629
 9914TIP3    H151157   5.490   1.597   5.745 -0.0134  2.1220 -0.2155
 9914TIP3    H251158   5.481   1.653   5.886  0.7917 -1.1511  1.2324
 9915TIP3   OH251159   5.661   2.139  17.054 -0.6732  0.2118 -0.3863
 9915TIP3    H151160   5.633   2.049  17.042 -1.6404  0.4285  0.1721
 9915TIP3    H251161   5.581   2.188  17.071 -0.2760  1.3444 -1.5733
 9916TIP3   OH251162   0.114   5.819   3.838  0.5250  0.2808  0.0512
 9916TIP3    H151163   0.058   5.794   3.765 -0.3083 -0.0802  0.8064
 9916TIP3    H251164   0.079   5.902   3.869  0.2137 -0.0915  0.7140
 9917TIP3   OH251165   5.782   2.060  12.190  0.4364 -0.3800 -0.2198
 9917TIP3    H151166   5.765   2.087  12.280  0.8912 -0.1543 -0.1980
 9917TIP3    H251167   5.860   2.110  12.164 -0.6991  0.8768 -1.3421
 9918TIP3   OH251168   5.502   1.382  16.982  0.4160 -0.1756  0.1457
 9918TIP3    H151169   5.467   1.341  16.903 -2.1721  0.1046  1.0286
 9918TIP3    H251170   5.483   1.319  17.052  0.1109  0.7363  0.9095
 9919TIP3   OH251171   5.390   4.013  14.674 -0.3316  0.4237 -0.6245
 9919TIP3    H151172   5.348   3.930  14.697 -0.9467  0.8183 -0.2939
 9919TIP3    H251173   5.425   4.046  14.756  1.3257 -0.2647 -1.0188
 9920TIP3   OH251174   2.785   3.547   4.072  0.2682  0.3278 -0.4438
 9920TIP3    H151175   2.847   3.583   4.136 -0.5888 -0.4859  0.9039
 9920TIP3    H251176   2.840   3.518   3.999  1.2395  1.6555 -0.2758
 9921TIP3   OH251177   4.780   4.902   0.011  0.1012  0.4053  0.6398
 9921TIP3    H151178   4.738   4.961   0.073  0.6394  0.0558  1.3597
 9921TIP3    H251179   4.853   4.953  -0.025  0.0238  0.4786  0.5874
 9922TIP3   OH251180   2.550   4.857   3.995  0.1731  0.5470 -0.2957
 9922TIP3    H151181   2.536   4.927   4.060  1.3334 -0.2781  0.8850
 9922TIP3    H251182   2.498   4.784   4.027  0.6559  0.1736 -0.3511
 9923TIP3   OH251183   0.014   0.782  16.746 -0.1899 -0.2188  0.0496
 9923TIP3    H151184  -0.064   0.803  16.694  0.1918  0.8100 -0.1380
 9923TIP3    H251185   0.087   0.808  16.690  0.2311  0.7366  1.0200
 9924TIP3   OH251186   1.296   5.967   2.026 -0.3247 -0.4179  0.0460
 9924TIP3    H151187   1.317   5.904   2.095  0.2933  1.6237  1.8316
 9924TIP3    H251188   1.358   6.039   2.039 -2.5392  1.6841 -0.2769
 9925TIP3   OH251189   6.021   2.416   5.784 -0.0261  0.4958  0.2034
 9925TIP3    H151190   6.030   2.351   5.854 -0.3410 -1.1989 -1.2685
 9925TIP3    H251191   5.942   2.465   5.807  0.0027  0.1277  1.1297
 9926TIP3   OH251192   2.140   3.298  14.056 -0.3129 -0.4885 -0.6562
 9926TIP3    H151193   2.153   3.386  14.091  0.4734 -0.0747 -1.9537
 9926TIP3    H251194   2.092   3.252  14.125  0.0922  0.6714  0.4267
 9927TIP3   OH251195   2.526   1.126  11.509 -0.3600 -0.2644  0.2360
 9927TIP3    H151196   2.480   1.121  11.424 -1.9954 -1.6707  1.1397
 9927TIP3    H251197   2.578   1.206  11.503 -0.8579 -0.0321 -1.8900
 9928TIP3   OH251198   5.032   6.757  16.048 -0.2582 -0.3664  0.2981
 9928TIP3    H151199   5.104   6.814  16.021  0.9554 -2.4550 -1.1972
 9928TIP3    H251200   5.075   6.685  16.094 -1.7185 -0.2562  1.9212
 9929TIP3   OH251201   1.417   5.638  13.191 -0.3416 -0.4384  0.1508
 9929TIP3    H151202   1.332   5.680  13.204 -0.0171  0.2756  0.0203
 9929TIP3    H251203   1.471   5.707  13.152  1.0465 -0.0812  2.5500
 9930TIP3   OH251204   3.610   6.597  14.969 -0.4504 -0.4949 -0.0082
 9930TIP3    H151205   3.536   6.585  15.029 -0.9539 -0.5333 -0.6240
 9930TIP3    H251206   3.687   6.604  15.026 -0.7168 -2.0866  0.5818
 9931TIP3   OH251207   0.923   4.912   3.289  0.8566 -0.1896  0.2292
 9931TIP3    H151208   0.932   4.874   3.377 -2.0092 -2.1984 -0.1992
 9931TIP3    H251209   0.949   5.003   3.300  1.8686 -0.6728  2.8243
 9932TIP3   OH251210   3.728   5.098  12.616 -0.3360  0.4574  0.2039
 9932TIP3    H151211   3.791   5.026  12.628 -1.8383 -1.0562 -0.5772
 9932TIP3    H251212   3.722   5.108  12.521 -0.3667  1.4540  0.3005
 9933TIP3   OH251213   6.194   4.410  17.157  0.2539 -0.3079 -0.2065
 9933TIP3    H151214   6.200   4.320  17.188 -0.4717 -0.0761  0.6480
 9933TIP3    H251215   6.271   4.454  17.194  1.2331 -0.8272 -1.5621
 9934TIP3   OH251216   1.210   3.431   1.124 -0.5493  0.5588  0.3910
 9934TIP3    H151217   1.223   3.439   1.219  0.4025  1.8748  0.1772
 9934TIP3    H251218   1.261   3.354   1.099 -0.4950  0.4281  0.8974
 9935TIP3   OH251219   1.828   5.887  13.144 -0.2837 -0.0899  0.2254
 9935TIP3    H151220   1.734   5.878  13.125 -0.3554 -1.0897  0.9859
 9935TIP3    H251221   1.846   5.817  13.207  0.6484  1.0448  1.2575
 9936TIP3   OH251222   0.291   2.859   2.397  0.6165 -0.0187 -0.0642
 9936TIP3    H151223   0.213   2.805   2.388  0.7234  0.0678 -1.8420
 9936TIP3    H251224   0.349   2.829   2.328  0.2824  3.0256 -1.8459
 9937TIP3   OH251225   3.594   0.651  16.947 -0.0063  0.2739 -0.1550
 9937TIP3    H151226   3.548   0.567  16.939 -1.2170  1.0140 -1.1964
 9937TIP3    H251227   3.532   0.708  16.992  0.2707  0.9981 -0.6735
 9938TIP3   OH251228   1.012   5.268   5.921  0.0301  0.0051  0.3860
 9938TIP3    H151229   0.922   5.290   5.896  0.5497  0.9710 -0.7216
 9938TIP3    H251230   1.020   5.298   6.012 -0.7270  0.0344  0.4449
 9939TIP3   OH251231   2.085   4.603  11.059 -0.4178 -0.3303  0.4211
 9939TIP3    H151232   2.010   4.543  11.062 -0.4513 -0.2899  0.4095
 9939TIP3    H251233   2.082   4.641  10.971  0.7828 -1.8061 -0.2946
 9940TIP3   OH251234   0.341   2.903   1.075 -0.8643  0.1458  0.6399
 9940TIP3    H151235   0.356   2.964   1.147 -0.0720  0.2645  0.3936
 9940TIP3    H251236   0.375   2.820   1.106  0.1762  0.3661  0.1512
 9941TIP3   OH251237   5.193   4.850  11.617 -0.6109  0.3132  0.2938
 9941TIP3    H151238   5.133   4.907  11.569 -0.6074  1.3317  1.4453
 9941TIP3    H251239   5.162   4.854  11.708 -1.0096 -2.0587  0.3242
 9942TIP3   OH251240   4.160   0.470  11.841 -0.0003  0.2436  0.4300
 9942TIP3    H151241   4.228   0.533  11.819 -0.9500  0.6785 -1.5539
 9942TIP3    H251242   4.180   0.393  11.789 -1.5176  0.7439 -0.9823
 9943TIP3   OH251243   0.447   5.066  15.206  0.3077 -0.1215 -0.0748
 9943TIP3    H151244   0.437   5.161  15.212 -2.0880 -0.1001 -2.5351
 9943TIP3    H251245   0.365   5.035  15.168  2.0202 -2.8409 -1.9432
 9944TIP3   OH251246   3.946   3.387  15.291  0.0524 -0.2043 -0.3687
 9944TIP3    H151247   3.915   3.300  15.313 -2.3843  0.4911 -0.7932
 9944TIP3    H251248   3.915   3.403  15.202  0.2023  1.1997 -0.2014
 9945TIP3   OH251249   2.271   3.668  11.601  0.2009  0.2910 -0.6696
 9945TIP3    H151250   2.212   3.743  11.589 -1.1200 -1.1255 -4.5494
 9945TIP3    H251251   2.213   3.595  11.622  1.3434 -0.0122  1.7750
 9946TIP3   OH251252   4.047   5.451  16.594 -0.1364  0.2693  0.1420
 9946TIP3    H151253   3.998   5.395  16.654 -0.7992 -0.7563 -1.3013
 9946TIP3    H251254   3.999   5.534  16.594 -0.2969  0.1860  0.7735
 9947TIP3   OH251255   1.361   4.697   5.007 -0.7322  0.1280  0.0828
 9947TIP3    H151256   1.348   4.779   5.055  2.0603  1.2593 -0.8589
 9947TIP3    H251257   1.312   4.709   4.925  0.1553  1.2038 -0.3266
 9948TIP3   OH251258   2.284   3.666  10.820 -0.0013  0.1743  0.0387
 9948TIP3    H151259   2.232   3.617  10.883  0.0872 -1.3317 -0.9733
 9948TIP3    H251260   2.223   3.728  10.780 -0.6717 -0.5454 -0.0885
 9949TIP3   OH251261   4.049   5.606   3.395 -0.0610  0.3207  0.1238
 9949TIP3    H151262   4.130   5.576   3.354 -1.4708 -0.0810 -2.5561
 9949TIP3    H251263   4.048   5.700   3.380 -0.4618  0.2078 -0.5984
 9950TIP3   OH251264   0.052   5.869   0.979  0.8433  0.0724 -0.0975
 9950TIP3    H151265   0.096   5.949   0.949  1.9407 -0.1304  0.8765
 9950TIP3    H251266   0.042   5.816   0.900  2.4720  0.1021 -0.3658
 9951TIP3   OH251267   4.563   5.338   4.147  0.0419  0.6124  0.4222
 9951TIP3    H151268   4.659   5.348   4.151  0.4559 -0.9243 -2.5025
 9951TIP3    H251269   4.535   5.401   4.081 -0.8362  0.3878  0.5676
 9952TIP3   OH251270   1.071   2.649   3.331  0.2587  0.7112 -0.4568
 9952TIP3    H151271   1.061   2.696   3.248  0.4711 -0.1459 -0.9738
 9952TIP3    H251272   1.165   2.643   3.345  0.2235  0.9098 -0.1149
 9953TIP3   OH251273   1.283   1.961   0.509 -0.0422  0.0084 -0.0774
 9953TIP3    H151274   1.221   2.030   0.485  0.5833  0.2892 -0.9389
 9953TIP3    H251275   1.295   1.971   0.604  0.8961  1.8442 -0.3439
 9954TIP3   OH251276   5.683   6.113  12.515  0.0704 -0.0384  0.6333
 9954TIP3    H151277   5.710   6.024  12.494 -1.4073 -0.3556 -0.0588
 9954TIP3    H251278   5.707   6.164  12.438 -0.3730 -0.1350  0.4243
 9955TIP3   OH251279   0.993   5.455  16.455 -0.5401 -0.3176 -0.9884
 9955TIP3    H151280   0.913   5.410  16.480  0.2151 -0.2797  1.7397
 9955TIP3    H251281   1.061   5.388  16.463 -0.1674 -0.1940 -2.7143
 9956TIP3   OH251282   2.284   6.561  14.275  0.0407 -0.1096 -0.2097
 9956TIP3    H151283   2.271   6.554  14.181 -0.3703 -0.6438 -0.1159
 9956TIP3    H251284   2.206   6.606  14.307  0.3904  0.4879 -0.1752
 9957TIP3   OH251285   5.694   5.254   4.308 -0.0180  0.3291 -0.0592
 9957TIP3    H151286   5.771   5.206   4.338  0.3580  1.4567  0.8747
 9957TIP3    H251287   5.620   5.214   4.354  0.4249  1.3175  1.5801
 9958TIP3   OH251288   5.766   5.851  16.831  0.0575 -0.3930  0.1398
 9958TIP3    H151289   5.822   5.910  16.882 -0.6385 -0.1146  0.5999
 9958TIP3    H251290   5.733   5.789  16.896 -1.2084  0.2484  0.1295
 9959TIP3   OH251291   3.783   4.720  11.774  0.4114  0.4208  0.1769
 9959TIP3    H151292   3.711   4.771  11.739 -0.0254 -0.0589  0.3636
 9959TIP3    H251293   3.761   4.629  11.752  0.0273  0.0782  1.8275
 9960TIP3   OH251294   6.711   0.513   0.335 -0.2765  0.1869 -0.1905
 9960TIP3    H151295   6.788   0.555   0.296  0.9395 -1.1363  0.6745
 9960TIP3    H251296   6.685   0.446   0.271  0.8321 -1.0055  0.5465
 9961TIP3   OH251297   4.584   2.057  13.538 -0.6975 -0.1307 -0.3675
 9961TIP3    H151298   4.648   1.987  13.535  1.1887  1.4998 -0.3981
 9961TIP3    H251299   4.604   2.104  13.619 -0.3883  1.6781 -1.4316
 9962TIP3   OH251300   2.510   4.915  13.344 -0.1406  0.1304 -0.7794
 9962TIP3    H151301   2.487   4.823  13.357 -1.9409  0.5416 -0.7807
 9962TIP3    H251302   2.457   4.942  13.269 -0.9810  1.5878  0.2896
 9963TIP3   OH251303   0.549   5.811   4.518 -0.3821 -0.1870 -0.0315
 9963TIP3    H151304   0.488   5.753   4.563 -0.6112  0.8820  1.1124
 9963TIP3    H251305   0.636   5.781   4.545 -0.4239 -1.0140 -0.7762
 9964TIP3   OH251306   0.164   5.385  14.146  0.1537  0.8909  0.0521
 9964TIP3    H151307   0.143   5.318  14.212  0.7761  2.2782  1.7481
 9964TIP3    H251308   0.251   5.417  14.171 -0.5697  3.0816  0.0041
 9965TIP3   OH251309   0.811   5.413   3.851  0.1818  0.1731 -0.1847
 9965TIP3    H151310   0.827   5.444   3.761 -0.7306 -0.9541 -0.7649
 9965TIP3    H251311   0.868   5.337   3.859 -1.6906 -1.3839 -0.8149
 9966TIP3   OH251312   3.201   4.181   4.679  0.2233  0.0110  0.0360
 9966TIP3    H151313   3.233   4.159   4.767 -0.0166 -1.1136 -0.1458
 9966TIP3    H251314   3.106   4.187   4.689  0.1636 -0.4785 -0.2163
 9967TIP3   OH251315   0.196   6.162  11.832 -0.4447  0.1310  0.4676
 9967TIP3    H151316   0.107   6.194  11.843  0.0410  1.7666  0.0112
 9967TIP3    H251317   0.190   6.068  11.846 -1.9921  0.3833  1.8412
 9968TIP3   OH251318   3.611   5.994  17.103  0.0226 -0.2936 -0.0708
 9968TIP3    H151319   3.556   5.953  17.037  0.0521  0.1958 -0.4035
 9968TIP3    H251320   3.550   6.032  17.166 -0.0278  0.3377 -0.4929
 9969TIP3   OH251321   3.510   2.163  13.978  0.0856  0.5823 -0.4359
 9969TIP3    H151322   3.479   2.167  13.887 -0.8531 -0.6218 -0.1977
 9969TIP3    H251323   3.472   2.082  14.013  1.1204  0.5917  0.7884
 9970TIP3   OH251324   6.773   6.015   3.106 -0.1130  0.2010  0.0484
 9970TIP3    H151325   6.727   6.047   3.184 -0.5286  2.1165 -0.9130
 9970TIP3    H251326   6.850   5.970   3.141 -0.9360 -0.0936  1.5864
 9971TIP3   OH251327   4.432   4.359   1.319 -0.3094 -0.0651 -0.2893
 9971TIP3    H151328   4.479   4.417   1.379 -0.3290  0.0970 -0.4311
 9971TIP3    H251329   4.498   4.332   1.255 -0.2760 -0.2788 -0.1648
 9972TIP3   OH251330   5.935   5.916   0.044 -0.2292 -0.2067 -0.2080
 9972TIP3    H151331   5.910   5.830   0.010 -1.4649  0.2317 -0.4489
 9972TIP3    H251332   6.030   5.921   0.029 -0.0737 -1.6831  0.1906
 9973TIP3   OH251333   6.276   6.101  13.556 -0.6091  0.2207  0.8359
 9973TIP3    H151334   6.371   6.089  13.557 -0.3982  1.3718 -0.8759
 9973TIP3    H251335   6.244   6.040  13.622  1.2165 -1.0374  0.6450
 9974TIP3   OH251336   1.547   5.086   0.571 -0.1244 -0.2640  0.4746
 9974TIP3    H151337   1.557   5.111   0.663 -0.9922  1.0161  0.2451
 9974TIP3    H251338   1.621   5.027   0.554  0.0122 -0.5688  1.9973
 9975TIP3   OH251339   3.125   1.322   0.137 -0.0856  0.1893  0.0748
 9975TIP3    H151340   3.180   1.271   0.197  2.4344  0.7977 -1.5840
 9975TIP3    H251341   3.096   1.397   0.190  1.5125  0.3687  0.7519
 9976TIP3   OH251342   0.291   4.516   0.423 -0.7513 -0.4200 -0.2913
 9976TIP3    H151343   0.248   4.474   0.497 -0.9859 -1.2453 -0.8815
 9976TIP3    H251344   0.292   4.609   0.445  1.9119 -0.8863  2.1612
 9977TIP3   OH251345   4.617   3.050   3.181 -0.0826  0.5333  0.2474
 9977TIP3    H151346   4.609   3.122   3.244  3.5891  0.2776  1.2080
 9977TIP3    H251347   4.696   3.070   3.131 -0.2841 -1.6721 -1.0712
 9978TIP3   OH251348   2.476   6.101   1.657  0.7616  0.2939 -0.3788
 9978TIP3    H151349   2.510   6.161   1.591  0.0751  0.4515 -0.5973
 9978TIP3    H251350   2.407   6.151   1.700 -0.3802 -0.6119 -1.1160
 9979TIP3   OH251351   1.949   0.304   0.540  0.0281  0.1451 -0.1762
 9979TIP3    H151352   1.960   0.320   0.634 -0.2552  0.0752 -0.1316
 9979TIP3    H251353   1.988   0.218   0.526  0.0841  0.1618 -0.1276
 9980TIP3   OH251354   5.465   2.598   6.060 -0.0498 -0.1442  0.4427
 9980TIP3    H151355   5.404   2.557   6.121 -0.4031 -1.0692 -0.5073
 9980TIP3    H251356   5.410   2.642   5.996  0.2567 -0.7404 -0.2572
 9981TIP3   OH251357   0.303   5.933  17.254  0.3290  0.5524 -0.6443
 9981TIP3    H151358   0.299   6.020  17.292 -1.3179  0.1530  0.1915
 9981TIP3    H251359   0.217   5.921  17.213  1.0046 -0.1773 -1.9278
 9982TIP3   OH251360   4.907   3.875  14.805 -0.4359  0.3255  0.5775
 9982TIP3    H151361   4.894   3.795  14.754  2.2419  0.1975 -0.0743
 9982TIP3    H251362   4.913   3.945  14.740 -1.4693  0.8906  1.0627
 9983TIP3   OH251363   0.145   3.251  14.904 -0.5077 -0.1609 -0.0363
 9983TIP3    H151364   0.179   3.165  14.929  0.5861 -0.0514 -1.0899
 9983TIP3    H251365   0.209   3.285  14.842 -2.4447  0.1328 -1.9862
 9984TIP3   OH251366   5.686   2.858  14.945 -0.3588  0.2575  0.4338
 9984TIP3    H151367   5.765   2.884  14.898 -0.8989  0.6112 -0.2982
 9984TIP3    H251368   5.653   2.783  14.895 -0.5728  0.2133  0.6403
 9985TIP3   OH251369   5.611   6.046  11.260  0.1756  0.3793 -0.1694
 9985TIP3    H151370   5.573   5.965  11.226 -0.5966  0.9440 -0.7128
 9985TIP3    H251371   5.615   6.033  11.354 -2.8620  0.8182  0.1328
 9986TIP3   OH251372   6.317   1.586  15.902 -0.0064  0.7004  0.0518
 9986TIP3    H151373   6.319   1.633  15.819 -1.2992  0.6186 -0.0465
 9986TIP3    H251374   6.403   1.602  15.942 -0.2484  2.7712 -0.1721
 9987TIP3   OH251375   1.145   5.498  10.494  0.6941 -0.0944 -0.5255
 9987TIP3    H151376   1.178   5.413  10.523  1.4714  0.8207  1.4676
 9987TIP3    H251377   1.220   5.538  10.449  1.2564  0.6288  1.0111
 9988TIP3   OH251378   1.959   5.596  15.995 -0.3419 -0.0452 -0.0878
 9988TIP3    H151379   1.977   5.558  16.081  1.3635  1.3407  0.2231
 9988TIP3    H251380   1.864   5.607  15.993 -0.6856 -2.2937  0.6215
 9989TIP3   OH251381   6.069   2.001   0.919 -0.1143 -0.0816 -0.8157
 9989TIP3    H151382   6.096   1.909   0.927  0.0350  0.0541  0.4872
 9989TIP3    H251383   6.151   2.050   0.917 -0.2066  0.0821 -0.6086
 9990TIP3   OH251384   0.548   6.247  12.757 -0.9299  0.0934  0.3738
 9990TIP3    H151385   0.638   6.274  12.774  0.6036 -2.4524 -2.6940
 9990TIP3    H251386   0.520   6.302  12.683 -0.5779 -1.3342 -0.8729
 9991TIP3   OH251387   3.417   4.269   3.014  0.3047 -0.1445  0.5056
 9991TIP3    H151388   3.477   4.332   3.054 -1.4075  2.1489 -0.3255
 9991TIP3    H251389   3.335   4.278   3.062 -0.9894  0.7742 -1.7021
 9992TIP3   OH251390   2.262   3.378  12.328 -0.3625  0.0485 -0.3240
 9992TIP3    H151391   2.185   3.416  12.286 -0.2234  0.5870 -0.1015
 9992TIP3    H251392   2.269   3.425  12.411  0.5221  0.3920 -0.5804
 9993TIP3   OH251393   2.050   6.129   1.188 -0.5673 -0.3195  0.0495
 9993TIP3    H151394   1.977   6.084   1.144 -0.6062  0.0150 -0.2320
 9993TIP3    H251395   2.118   6.135   1.121 -1.0181  1.1576 -0.3299
 9994TIP3   OH251396   4.475   3.722   6.561 -0.5612  0.4716  0.0182
 9994TIP3    H151397   4.389   3.692   6.531  0.0973 -1.9811  0.3716
 9994TIP3    H251398   4.485   3.809   6.521 -2.5092  0.1517 -1.3324
 9995TIP3   OH251399   2.635   6.211   5.308  0.5499 -0.3922  0.4969
 9995TIP3    H151400   2.566   6.167   5.258 -0.0721 -1.1622  1.9345
 9995TIP3    H251401   2.599   6.297   5.330  0.4507 -0.4062  0.3850
 9996TIP3   OH251402   2.080   2.827  16.173  0.1700  0.4458 -0.1842
 9996TIP3    H151403   2.130   2.751  16.143 -1.7260 -0.9318 -0.0425
 9996TIP3    H251404   2.011   2.838  16.107  0.8601  2.5672 -0.6229
 9997TIP3   OH251405   6.173   3.577  14.496  0.3854 -0.0002  0.6718
 9997TIP3    H151406   6.110   3.606  14.561 -0.0319 -0.1421  0.3315
 9997TIP3    H251407   6.165   3.482  14.494  0.6554 -0.0241  0.6747
 9998TIP3   OH251408   2.859   4.113  13.331  0.4096 -0.1373  0.2209
 9998TIP3    H151409   2.873   4.084  13.421  1.1071  2.0126  0.8631
 9998TIP3    H251410   2.771   4.082  13.309  0.3677 -0.9999  1.4964
 9999TIP3   OH251411   6.758   2.863  12.750  0.7172 -0.3025  0.0071
 9999TIP3    H151412   6.723   2.886  12.663  0.3828  0.2759  0.2914
 9999TIP3    H251413   6.853   2.862  12.738  0.6435 -2.0216 -0.8132
10000TIP3   OH251414   4.495   3.996  11.596 -0.2141  0.3206  0.0629
10000TIP3    H151415   4.430   3.927  11.605  0.1750 -0.2643 -1.3350
10000TIP3    H251416   4.542   3.996  11.680 -1.3178  0.0458  0.6896
10001TIP3   OH251417   4.005   5.331   2.659 -0.5149 -0.3788 -0.1145
10001TIP3    H151418   3.946   5.393   2.702 -0.7241 -0.5841 -0.1033
10001TIP3    H251419   3.948   5.263   2.624 -0.2108 -1.2167  0.9452
10002TIP3   OH251420   0.711   0.172   0.116  0.0018  0.0859  0.0834
10002TIP3    H151421   0.768   0.100   0.142  0.0135  0.3809  0.9048
10002TIP3    H251422   0.639   0.170   0.179 -1.1119 -0.5013 -1.1459
10003TIP3   OH251423   3.922   5.643   3.892  0.5424  0.0659 -0.1832
10003TIP3    H151424   3.954   5.569   3.839  1.6058  0.6668 -0.4074
10003TIP3    H251425   3.962   5.720   3.852 -0.9610  0.8376 -0.2648
10004TIP3   OH251426   0.569   0.637   2.049  0.0681 -0.4156 -0.3427
10004TIP3    H151427   0.497   0.601   1.996 -0.1994 -2.3487  1.2196
10004TIP3    H251428   0.647   0.592   2.017  0.0603 -0.8046  0.1722
10005TIP3   OH251429   3.691   0.506  11.198  0.1478 -0.4313  0.1226
10005TIP3    H151430   3.731   0.419  11.197 -1.4577 -1.2374  1.7628
10005TIP3    H251431   3.637   0.509  11.119  0.1269 -0.9485  0.1158
10006TIP3   OH251432   1.206   1.355   0.636  0.4434 -1.0170  0.0761
10006TIP3    H151433   1.276   1.289   0.640  0.6647 -0.7439  1.4311
10006TIP3    H251434   1.158   1.342   0.718  0.8329  0.8622  0.6472
10007TIP3   OH251435   4.701   4.269   1.833  0.1381  0.4810 -0.2723
10007TIP3    H151436   4.786   4.259   1.875  1.1211  2.4707 -1.5828
10007TIP3    H251437   4.692   4.364   1.820 -2.5373  0.3842  0.2689
10008TIP3   OH251438   5.007   1.497   5.447 -0.1990 -0.0557  0.4620
10008TIP3    H151439   4.984   1.439   5.374  1.1868 -1.0090  0.7272
10008TIP3    H251440   5.097   1.523   5.429 -0.5981  1.5450  0.6870
10009TIP3   OH251441   4.513   2.595   4.102 -0.0887 -0.5679 -0.0569
10009TIP3    H151442   4.588   2.551   4.141 -0.3509 -0.0311  1.0887
10009TIP3    H251443   4.462   2.626   4.176 -0.3342  0.9313 -0.8150
10010TIP3   OH251444   0.862   5.967   0.204  0.4601 -0.2789  0.3580
10010TIP3    H151445   0.867   5.923   0.289  1.2486  0.5894  0.7697
10010TIP3    H251446   0.948   5.951   0.164  0.9705  1.3458  0.7524
10011TIP3   OH251447   5.709   0.058  16.021  0.3154 -0.0320 -0.2896
10011TIP3    H151448   5.622   0.048  15.982  0.3173  0.6198 -0.4831
10011TIP3    H251449   5.696   0.042  16.114  0.5619 -3.0216 -0.6827
10012TIP3   OH251450   4.570   3.453  16.287 -0.4871 -0.3810 -0.4030
10012TIP3    H151451   4.540   3.362  16.278 -0.4421 -0.4374  0.0037
10012TIP3    H251452   4.490   3.505  16.276 -0.6759 -0.5131  0.2571
10013TIP3   OH251453   1.095   1.048   5.908 -0.1944 -0.0308  0.4735
10013TIP3    H151454   1.181   1.008   5.917  0.0127  0.3604  0.2972
10013TIP3    H251455   1.095   1.119   5.972 -0.4303 -0.1016  0.5528
10014TIP3   OH251456   1.667   4.402  17.187  0.6628  0.3099 -0.1962
10014TIP3    H151457   1.626   4.397  17.273  2.0737  1.6112  0.6020
10014TIP3    H251458   1.761   4.404  17.205  0.9903  0.4842 -1.7745
10015TIP3   OH251459   6.491   4.591  16.918  1.0734 -0.8211 -0.0256
10015TIP3    H151460   6.480   4.561  16.828 -0.5120 -0.8355  0.1388
10015TIP3    H251461   6.402   4.609  16.948  1.7951  2.7313  0.3687
10016TIP3   OH251462   5.871   5.495   5.366 -0.2970  0.5261  0.6585
10016TIP3    H151463   5.826   5.460   5.443 -0.7427 -1.6878 -0.5437
10016TIP3    H251464   5.958   5.519   5.399 -0.8683  0.7525  2.0907
10017TIP3   OH251465   4.151   0.397  16.931 -0.1969 -0.4178  0.2762
10017TIP3    H151466   4.137   0.355  17.016 -0.8417  0.1203  0.4470
10017TIP3    H251467   4.065   0.432  16.908  0.0555 -0.2642 -0.4402
10018TIP3   OH251468   5.749   4.227  13.541 -0.9988  0.0094 -0.2264
10018TIP3    H151469   5.721   4.306  13.588  1.6955 -0.2149  2.0410
10018TIP3    H251470   5.833   4.251  13.502  0.5510 -1.9755  1.6218
10019TIP3   OH251471   3.969   4.342   1.219 -0.0188 -0.0795  0.4634
10019TIP3    H151472   3.999   4.383   1.138  2.9974  0.2011  1.5865
10019TIP3    H251473   4.026   4.266   1.230 -1.5136 -1.1042  1.4839
10020TIP3   OH251474   1.933   0.877   2.938 -0.3882 -0.3288  0.2204
10020TIP3    H151475   1.932   0.969   2.911 -0.5385 -0.2851  0.3722
10020TIP3    H251476   1.942   0.828   2.856  1.6085 -0.1264  0.2744
10021TIP3   OH251477   0.328   5.583   4.372  0.1400 -0.2564  0.0747
10021TIP3    H151478   0.241   5.609   4.403 -1.5350 -2.1729 -2.5822
10021TIP3    H251479   0.350   5.647   4.304  0.8945  0.2611  0.7830
10022TIP3   OH251480   2.280   3.780  13.014  0.0503 -0.5379 -0.3049
10022TIP3    H151481   2.329   3.851  12.972  0.2638 -1.2208 -1.2619
10022TIP3    H251482   2.338   3.749  13.084  0.4850 -0.5491 -0.6630
10023TIP3   OH251483   2.804   1.046  11.321  0.9698 -0.1553  0.2510
10023TIP3    H151484   2.869   1.028  11.253  0.7341 -0.4943  0.1083
10023TIP3    H251485   2.835   0.998  11.397  0.1694 -1.5064 -0.2267
10024TIP3   OH251486   1.694   1.105  12.853  0.1945 -0.3915  0.7405
10024TIP3    H151487   1.766   1.045  12.833  0.5681  0.8855 -2.3035
10024TIP3    H251488   1.615   1.054  12.832  0.4465 -0.3431 -0.3932
10025TIP3   OH251489   5.121   3.963   3.373 -0.0013  0.1687 -0.1290
10025TIP3    H151490   5.088   3.948   3.284 -0.2937  0.6256 -0.1022
10025TIP3    H251491   5.044   3.988   3.423  0.2520  0.4336  0.1316
10026TIP3   OH251492   0.248   4.423   4.524 -0.3680  0.1260 -0.2077
10026TIP3    H151493   0.328   4.473   4.542 -0.3898  0.4708 -1.0314
10026TIP3    H251494   0.215   4.400   4.610  0.0653  0.8695  0.1712
10027TIP3   OH251495   4.689   5.926  15.699  0.3647 -0.6754 -0.0185
10027TIP3    H151496   4.767   5.892  15.655 -0.8412 -1.2067 -1.8786
10027TIP3    H251497   4.639   5.847  15.722  0.8873 -0.3957  2.2451
10028TIP3   OH251498   1.212   3.379  17.279  0.1439  0.1527 -0.0962
10028TIP3    H151499   1.156   3.437  17.332  0.3162  1.5010 -1.3367
10028TIP3    H251500   1.274   3.438  17.237  1.7942 -1.1969  0.3537
10029TIP3   OH251501   2.642   2.828   6.379  0.6912  0.0348 -0.0042
10029TIP3    H151502   2.733   2.816   6.408  0.3026 -1.3804  0.7194
10029TIP3    H251503   2.597   2.748   6.407 -1.4194  1.8208  2.1412
10030TIP3   OH251504   3.447   3.112   2.690  0.5519 -0.2740 -0.2511
10030TIP3    H151505   3.458   3.207   2.680  1.2628 -0.4936 -1.9536
10030TIP3    H251506   3.373   3.091   2.634  0.9868 -0.8321 -0.6286
10031TIP3   OH251507   2.161   1.384   3.440  0.5582  0.7106 -0.0793
10031TIP3    H151508   2.230   1.429   3.489  1.1511 -0.3806  0.1312
10031TIP3    H251509   2.209   1.334   3.374  0.0722 -0.8174  0.6733
10032TIP3   OH251510   6.007   3.564   5.867 -0.2079 -0.7239  0.1659
10032TIP3    H151511   6.015   3.656   5.894  2.3514 -1.0016  0.6895
10032TIP3    H251512   5.964   3.521   5.941 -2.0107  0.1182 -0.3502
10033TIP3   OH251513   6.507   6.571  11.745  0.1985  0.1223 -0.0225
10033TIP3    H151514   6.456   6.506  11.697  0.2226 -0.7235  1.0463
10033TIP3    H251515   6.497   6.652  11.695  1.0696 -0.9372 -1.9870
10034TIP3   OH251516   3.512   1.331  16.228  0.3464 -0.0861  0.0460
10034TIP3    H151517   3.582   1.285  16.181 -1.3154  0.0235 -2.7462
10034TIP3    H251518   3.466   1.262  16.275  1.5744 -0.3245  0.9506
10035TIP3   OH251519   6.568   4.876  10.658 -0.3831  0.0569 -0.2222
10035TIP3    H151520   6.519   4.869  10.740  1.2656  0.9405  0.8839
10035TIP3    H251521   6.598   4.966  10.654 -0.3660  0.0249 -1.8000
10036TIP3   OH251522   0.777   3.101  15.895  0.2319 -0.6978  0.7879
10036TIP3    H151523   0.738   3.098  15.982 -0.8326 -1.1427  0.3080
10036TIP3    H251524   0.746   3.022  15.852  1.5874 -1.0084  0.3372
10037TIP3   OH251525   3.208   5.699   4.530 -0.7325 -0.0105  0.9303
10037TIP3    H151526   3.279   5.662   4.477 -1.5168 -0.3947  0.1233
10037TIP3    H251527   3.215   5.794   4.515 -0.2763 -0.0268  1.0076
10038TIP3   OH251528   2.449   6.493  13.711 -0.4417  0.2853  0.2058
10038TIP3    H151529   2.408   6.570  13.672 -0.6096  0.0591 -0.0719
10038TIP3    H251530   2.475   6.439  13.636 -1.6885 -0.6312  0.4025
10039TIP3   OH251531   4.842   0.845  16.074 -0.0270 -0.4553 -0.4293
10039TIP3    H151532   4.788   0.796  16.136 -0.5112  1.4978  0.7605
10039TIP3    H251533   4.779   0.893  16.020  0.4430  1.9015  1.0113
10040TIP3   OH251534   0.457   3.163   1.646 -0.6012  0.6827 -0.1854
10040TIP3    H151535   0.376   3.113   1.640  0.5780 -1.2409 -1.3474
10040TIP3    H251536   0.434   3.251   1.617 -2.2199  0.1186 -0.6924
10041TIP3   OH251537   6.201   5.825   5.492  0.4128  0.0917  0.0801
10041TIP3    H151538   6.235   5.742   5.458  0.5193  0.6038 -1.0863
10041TIP3    H251539   6.176   5.875   5.415 -0.4162  0.8351  0.8036
10042TIP3   OH251540   4.311   6.568  11.833  0.3785  0.1385 -0.3658
10042TIP3    H151541   4.263   6.567  11.916  1.9310  1.1749  0.5900
10042TIP3    H251542   4.348   6.656  11.826  2.3706 -0.6603 -0.8777
10043TIP3   OH251543   4.882   3.961  12.167 -0.3170  0.0664  0.2236
10043TIP3    H151544   4.894   4.054  12.185 -0.0018 -0.2051  1.4672
10043TIP3    H251545   4.927   3.916  12.239 -1.5858 -1.0483  0.3497
10044TIP3   OH251546   0.470   1.066   1.338 -0.1914 -0.2863  0.2257
10044TIP3    H151547   0.491   1.102   1.424  1.1603 -2.3545  0.8370
10044TIP3    H251548   0.534   1.106   1.280 -0.1242 -0.0459  0.4603
10045TIP3   OH251549   3.973   1.228   4.420  0.2415  0.5213  0.1591
10045TIP3    H151550   4.038   1.287   4.459 -1.0400  2.1970 -0.1206
10045TIP3    H251551   3.894   1.241   4.473 -0.4661  0.1023 -0.7740
10046TIP3   OH251552   5.467   4.641  11.390 -0.1640  0.2234  0.4606
10046TIP3    H151553   5.534   4.661  11.456 -2.4755  0.1073  3.0403
10046TIP3    H251554   5.467   4.717  11.333  1.2645  0.8082  1.1655
10047TIP3   OH251555   4.786   2.778  14.314  0.1708  0.2504  0.2703
10047TIP3    H151556   4.836   2.859  14.324 -0.4327  0.7714 -0.7469
10047TIP3    H251557   4.852   2.709  14.323  0.8036  0.8683  0.5405
10048TIP3   OH251558   0.270   2.822   4.417 -0.1206  0.8251 -0.0667
10048TIP3    H151559   0.241   2.913   4.429  1.1416  1.1182  1.1387
10048TIP3    H251560   0.254   2.781   4.502 -1.6402 -0.3985 -0.9108
10049TIP3   OH251561   2.677   4.166   2.663 -0.1204  0.0076 -0.0051
10049TIP3    H151562   2.701   4.133   2.749 -0.4370  1.6417  0.7539
10049TIP3    H251563   2.719   4.106   2.601  3.7373  1.1247  1.2297
10050TIP3   OH251564   4.233   1.640  12.420 -0.2660 -0.1977 -0.1892
10050TIP3    H151565   4.310   1.664  12.368  0.8091 -0.2140  1.3275
10050TIP3    H251566   4.194   1.724  12.445  0.3714 -0.1289  0.6121
10051TIP3   OH251567   1.901   4.898  15.795  0.0062  0.0618  0.3759
10051TIP3    H151568   1.906   4.914  15.889  3.0069 -1.9347  0.6677
10051TIP3    H251569   1.952   4.969  15.756  0.1195 -0.0307  0.3586
10052TIP3   OH251570   2.273   6.749   1.450 -0.5095 -0.1432  0.5019
10052TIP3    H151571   2.270   6.816   1.517  0.3806 -0.4569  0.8683
10052TIP3    H251572   2.222   6.785   1.377  0.2230  1.0758  0.5583
10053TIP3   OH251573   4.076   1.154  12.477 -0.3209 -0.3205 -0.2042
10053TIP3    H151574   4.098   1.091  12.409  1.7414 -0.1044  0.1943
10053TIP3    H251575   4.092   1.107  12.559  1.7486  0.7889  0.1039
10054TIP3   OH251576   3.425   4.374  13.178  0.2074  0.4351 -0.3619
10054TIP3    H151577   3.331   4.370  13.196  0.2727  0.7066  0.0277
10054TIP3    H251578   3.465   4.403  13.260  0.6718 -0.0617 -0.4034
10055TIP3   OH251579   1.621   6.498  12.101 -0.2052  0.2694  0.0755
10055TIP3    H151580   1.555   6.530  12.040  0.1287  1.9024  0.5376
10055TIP3    H251581   1.691   6.466  12.045 -1.3226 -1.4796 -0.4254
10056TIP3   OH251582   4.433   1.709  15.071  0.3156 -0.5489  0.4266
10056TIP3    H151583   4.385   1.742  15.147  1.2318  0.8448  0.4443
10056TIP3    H251584   4.383   1.740  14.996  0.8505  0.4054  0.4510
10057TIP3   OH251585   3.732   0.784  14.026  0.5136 -0.2415  0.0078
10057TIP3    H151586   3.773   0.870  14.040 -0.1474  0.4199 -1.8567
10057TIP3    H251587   3.638   0.800  14.039  0.3010 -0.4753 -1.1772
10058TIP3   OH251588   5.957   0.723   0.732  0.0666  0.2911  0.2007
10058TIP3    H151589   5.897   0.711   0.806  0.3155 -2.3559  0.0772
10058TIP3    H251590   5.973   0.817   0.728 -4.4576  1.2633 -0.0771
10059TIP3   OH251591   3.101   4.673  11.519  0.1311  0.3987 -0.1798
10059TIP3    H151592   3.023   4.716  11.484 -2.1077 -1.1410  2.5828
10059TIP3    H251593   3.124   4.608  11.453 -0.6541  1.1081 -1.2004
10060TIP3   OH251594   1.635   5.358   2.239 -0.0075 -0.0330  0.0903
10060TIP3    H151595   1.660   5.411   2.316  0.9536  0.2483 -0.3915
10060TIP3    H251596   1.661   5.412   2.164 -0.4043 -0.5546 -0.4278
10061TIP3   OH251597   0.962   4.475  14.077 -0.1471 -0.4568 -0.2380
10061TIP3    H151598   0.892   4.423  14.117 -1.1133  0.2292 -1.0056
10061TIP3    H251599   1.023   4.410  14.043  1.4251 -1.1331  3.3911
10062TIP3   OH251600   5.290   2.978   5.632  0.0961 -0.4858  0.0417
10062TIP3    H151601   5.221   2.981   5.566 -0.3759  0.9606  0.5667
10062TIP3    H251602   5.244   2.963   5.714  0.5236 -0.6350  0.2586
10063TIP3   OH251603   3.549   5.296  10.841 -0.5993 -0.3318 -0.3044
10063TIP3    H151604   3.528   5.243  10.918 -1.5516  0.0539 -0.2837
10063TIP3    H251605   3.463   5.323  10.807 -0.1498  0.9176 -0.5045
10064TIP3   OH251606   0.997   1.929   0.043  0.1331 -0.1745 -0.2821
10064TIP3    H151607   1.007   1.928   0.139 -1.0891  1.3288 -0.0907
10064TIP3    H251608   0.946   1.851   0.023 -1.5055  0.6252  0.5864
10065TIP3   OH251609   0.176   6.220  15.464 -0.6025  0.5152 -0.4349
10065TIP3    H151610   0.250   6.260  15.419  0.8761 -2.2547 -0.6835
10065TIP3    H251611   0.115   6.197  15.394  0.5521 -1.5058 -0.8534
10066TIP3   OH251612   2.264   0.404   3.278 -0.3690  0.5276  0.0983
10066TIP3    H151613   2.310   0.475   3.322  1.1880 -0.1930 -0.3021
10066TIP3    H251614   2.333   0.342   3.254 -1.5696 -0.6342 -0.4632
10067TIP3   OH251615   0.007   0.564  13.800 -0.4486 -0.0476 -0.4133
10067TIP3    H151616  -0.027   0.647  13.766  2.2199  0.7100 -1.4452
10067TIP3    H251617  -0.038   0.553  13.884 -2.3899  1.3589 -1.1937
10068TIP3   OH251618   3.729   3.729   2.749  0.2980 -0.4442  0.3500
10068TIP3    H151619   3.646   3.733   2.701  1.0012 -0.2976 -0.9019
10068TIP3    H251620   3.793   3.703   2.683  1.6160  1.4531  0.8054
10069TIP3   OH251621   6.459   2.115   1.113 -0.3609  0.0528 -0.1029
10069TIP3    H151622   6.419   2.169   1.181 -0.3016 -0.2685  0.1833
10069TIP3    H251623   6.539   2.162   1.090 -1.1445  0.9862 -1.0541
10070TIP3   OH251624   5.395   3.035   3.954 -0.3456 -0.2818  0.9424
10070TIP3    H151625   5.314   3.016   4.001 -0.2782 -2.4967  0.3026
10070TIP3    H251626   5.455   3.068   4.021 -1.5541  0.7986  1.5381
10071TIP3   OH251627   5.937   2.513   4.604  0.4881 -0.2751 -0.0784
10071TIP3    H151628   5.882   2.588   4.628  2.1849  1.3552 -1.0096
10071TIP3    H251629   5.950   2.466   4.686 -0.6239  0.4297  0.5328
10072TIP3   OH251630   2.526   6.272   1.071 -0.6128 -0.0136  0.2191
10072TIP3    H151631   2.509   6.236   1.158 -1.5297  0.0310  0.0592
10072TIP3    H251632   2.611   6.234   1.047 -0.8657 -0.8923  0.6699
10073TIP3   OH251633   0.370   5.879   5.338 -0.2714  0.3002 -0.1288
10073TIP3    H151634   0.459   5.901   5.363 -0.2635  0.6535 -0.4675
10073TIP3    H251635   0.333   5.960   5.304 -0.3607 -0.1088 -1.0269
10074TIP3   OH251636   2.932   2.485  16.836 -0.4433  0.2606  0.1534
10074TIP3    H151637   2.948   2.391  16.844 -0.7195  0.3045  1.5543
10074TIP3    H251638   2.837   2.492  16.826 -0.7052  0.4476  2.2462
10075TIP3   OH251639   4.515   3.411   3.076  0.0078  0.6093 -0.2237
10075TIP3    H151640   4.570   3.476   3.034 -1.6791  2.0873 -0.2679
10075TIP3    H251641   4.557   3.393   3.159  1.1463  0.8327 -0.7383
10076TIP3   OH251642   4.233   4.600   2.568  0.0156 -0.4170  0.0973
10076TIP3    H151643   4.292   4.583   2.494  0.7516  0.3732  0.4828
10076TIP3    H251644   4.246   4.692   2.589 -1.0550 -0.3354  0.4766
10077TIP3   OH251645   6.715   2.503   0.325 -0.1295  0.2097  0.3504
10077TIP3    H151646   6.810   2.503   0.314 -0.0862 -1.7945  0.3695
10077TIP3    H251647   6.693   2.594   0.346  1.3966  1.4067 -2.5989
10078TIP3   OH251648   5.667   1.258  16.341 -0.0132 -0.5976 -0.9374
10078TIP3    H151649   5.732   1.328  16.335 -0.0010 -0.6419 -1.3478
10078TIP3    H251650   5.696   1.204  16.414 -0.0726 -0.1250 -0.5578
10079TIP3   OH251651   2.106   6.171   0.749  0.0652 -0.2262  0.4192
10079TIP3    H151652   2.077   6.125   0.670 -0.3312  0.7873 -0.0429
10079TIP3    H251653   2.199   6.151   0.757  0.0128 -0.6666 -0.0743
10080TIP3   OH251654   2.341   5.392   3.635  0.3630 -0.0028  0.3338
10080TIP3    H151655   2.351   5.370   3.543 -1.1023 -0.8204  0.3271
10080TIP3    H251656   2.364   5.312   3.682  0.3006  0.1447  0.6225
10081TIP3   OH251657   2.265   6.508   3.761  1.0190  0.0857 -0.4932
10081TIP3    H151658   2.248   6.455   3.839  0.2211  0.7413 -0.2055
10081TIP3    H251659   2.184   6.503   3.710  1.1012  0.6509 -0.6868
10082TIP3   OH251660   4.607   1.042   2.697 -0.7448 -0.1932  0.3394
10082TIP3    H151661   4.572   0.962   2.737 -0.5339 -0.5412 -0.1713
10082TIP3    H251662   4.633   1.016   2.609  1.0549 -0.0229  0.7732
10083TIP3   OH251663   5.338   1.355  12.096 -0.0623  0.3103  0.6166
10083TIP3    H151664   5.364   1.312  12.177  0.3109  1.0169  0.8740
10083TIP3    H251665   5.243   1.344  12.092 -0.1459  0.7118  1.4063
10084TIP3   OH251666   6.097   2.876  15.631  0.1189 -0.5533 -0.1160
10084TIP3    H151667   6.175   2.917  15.668 -0.2956 -1.0693  1.3876
10084TIP3    H251668   6.061   2.941  15.571  0.8150  0.3114  0.3890
10085TIP3   OH251669   0.933   0.641   6.567  0.0096 -0.2699  0.4179
10085TIP3    H151670   0.963   0.551   6.580 -0.7883 -0.4103  1.4884
10085TIP3    H251671   1.013   0.691   6.555  0.4550 -1.1486 -0.3958
10086TIP3   OH251672   4.671   1.563  16.422  0.5795 -0.0176 -0.3154
10086TIP3    H151673   4.602   1.528  16.366 -1.3737 -0.4645  2.1621
10086TIP3    H251674   4.707   1.486  16.467 -1.2033  0.6077  2.4473
10087TIP3   OH251675   4.382   1.907  11.083 -1.0113 -0.3535 -0.2530
10087TIP3    H151676   4.319   1.979  11.079 -1.1442 -0.4162  0.5200
10087TIP3    H251677   4.468   1.948  11.078 -1.0812 -0.1149  0.4156
10088TIP3   OH251678   5.703   6.053   3.343 -0.0689  0.1947 -0.3376
10088TIP3    H151679   5.701   5.995   3.419 -1.3734  0.0050 -0.4874
10088TIP3    H251680   5.615   6.091   3.339 -0.2593 -0.3218 -2.1490
10089TIP3   OH251681   3.551   2.743   2.576  0.4740 -0.0018 -0.1211
10089TIP3    H151682   3.542   2.733   2.482  1.0012  0.1219 -0.1866
10089TIP3    H251683   3.614   2.814   2.588 -0.1118  0.4617  0.3295
10090TIP3   OH251684   1.294   1.657  11.162  0.3994  0.1707 -0.4063
10090TIP3    H151685   1.247   1.589  11.114  0.1109  0.2867 -0.2954
10090TIP3    H251686   1.247   1.738  11.141 -0.6753  0.0185  1.2407
10091TIP3   OH251687   6.736   2.900  13.019 -0.0948  0.1127  0.0122
10091TIP3    H151688   6.753   2.888  12.926 -2.5030 -1.7980 -0.2774
10091TIP3    H251689   6.707   2.991  13.027  1.6609  0.8028 -0.7518
10092TIP3   OH251690   0.414   1.425   2.409 -0.1749 -0.6319  0.2957
10092TIP3    H151691   0.488   1.372   2.379 -0.2174 -0.1846 -0.6380
10092TIP3    H251692   0.356   1.429   2.333 -0.1506  0.7718  0.3367
10093TIP3   OH251693   2.524   1.917   4.416 -0.4852  1.0944  0.2349
10093TIP3    H151694   2.577   1.939   4.340  1.3116  0.0156  1.1280
10093TIP3    H251695   2.527   1.995   4.471  0.7074  0.8405  0.5500
10094TIP3   OH251696   4.095   4.264  15.187 -0.1538  0.2096 -0.6182
10094TIP3    H151697   4.081   4.309  15.103  0.4794 -0.3307 -1.0127
10094TIP3    H251698   4.043   4.315  15.249 -2.7971 -0.8942 -1.7778
10095TIP3   OH251699   4.805   3.121  11.152 -0.3366 -0.2863  0.1704
10095TIP3    H151700   4.839   3.159  11.233  1.0813 -0.3829 -0.3541
10095TIP3    H251701   4.711   3.112  11.168 -0.2565  0.7145  1.3878
10096TIP3   OH251702   3.368   4.522   2.724 -0.0728  0.6828 -0.5378
10096TIP3    H151703   3.405   4.533   2.811 -1.2677 -1.7912  0.3532
10096TIP3    H251704   3.416   4.586   2.670  1.0813  1.8843  1.7588
10097TIP3   OH251705   2.322   0.598   1.411 -0.5399  0.3576 -0.0351
10097TIP3    H151706   2.288   0.668   1.355  2.1209  3.9025  2.3282
10097TIP3    H251707   2.382   0.549   1.355 -0.6196  1.5314 -1.1854
10098TIP3   OH251708   0.125   4.857  12.088 -0.0795  0.3843 -0.3407
10098TIP3    H151709   0.092   4.795  12.154  0.8527  0.4052  0.1669
10098TIP3    H251710   0.163   4.802  12.020 -2.0255  0.3204 -1.4535
10099TIP3   OH251711   5.479   1.651   5.271  0.2623 -0.7228  0.7670
10099TIP3    H151712   5.536   1.699   5.211 -1.3049  0.6820  0.3379
10099TIP3    H251713   5.523   1.567   5.284  2.5726  0.4035  0.6933
10100TIP3   OH251714   0.270   4.513   3.073 -0.1817 -0.0555 -1.6007
10100TIP3    H151715   0.284   4.608   3.079  0.1552 -0.1625 -0.3534
10100TIP3    H251716   0.313   4.487   2.992  1.9067  0.4992 -0.7263
10101TIP3   OH251717   4.481   1.617   6.278  0.0083 -0.3341 -0.0654
10101TIP3    H151718   4.398   1.649   6.244  0.2777  0.6926  0.2215
10101TIP3    H251719   4.538   1.694   6.281  0.5526 -0.7503  1.0205
10102TIP3   OH251720   0.905   1.529  17.049 -0.3451 -0.2321 -0.0365
10102TIP3    H151721   0.873   1.597  16.989 -0.1889 -0.4222 -0.3345
10102TIP3    H251722   0.988   1.563  17.082 -1.8104  1.2685  2.4082
10103TIP3   OH251723   2.264   1.461  17.260 -0.5593 -0.0967 -0.0756
10103TIP3    H151724   2.202   1.409  17.208  2.0842 -2.5852 -0.9935
10103TIP3    H251725   2.272   1.414  17.343  0.6379 -0.2826 -0.2764
10104TIP3   OH251726   0.017   0.407   0.884 -0.0519  0.4984  0.3070
10104TIP3    H151727  -0.003   0.396   0.977  0.1450 -1.7023  0.1360
10104TIP3    H251728   0.100   0.361   0.871  0.3260  1.4465 -0.8252
10105TIP3   OH251729   6.744   1.108  14.330  0.1603  0.8011  0.1825
10105TIP3    H151730   6.750   1.015  14.309  0.3561  0.5004  1.4784
10105TIP3    H251731   6.666   1.138  14.284  1.6042  0.6867 -2.6060
10106TIP3   OH251732   4.213   4.993  13.502 -0.3495 -0.6549 -0.5905
10106TIP3    H151733   4.158   4.933  13.452 -1.8697 -0.7458  1.0634
10106TIP3    H251734   4.164   5.008  13.583  1.2026  0.7987  0.1448
10107TIP3   OH251735   1.047   0.182   3.344  0.3288  0.4790 -0.0228
10107TIP3    H151736   1.066   0.168   3.252 -0.3898  1.6181 -0.3577
10107TIP3    H251737   1.131   0.209   3.382  0.9309 -1.2201 -0.0478
10108TIP3   OH251738   6.185   4.090  16.687  0.1146  0.3509 -0.5783
10108TIP3    H151739   6.208   4.050  16.604  0.0099  0.6717 -0.7635
10108TIP3    H251740   6.257   4.067  16.746 -0.2015 -0.5549 -0.5302
10109TIP3   OH251741   6.627   0.346  14.410 -0.5460  0.3079 -0.2608
10109TIP3    H151742   6.549   0.309  14.451  0.6848 -0.0200  1.9729
10109TIP3    H251743   6.669   0.271  14.367 -0.0365 -0.1626  0.9910
10110TIP3   OH251744   2.995   4.449   5.882  0.1276  0.0919 -0.4146
10110TIP3    H151745   2.955   4.490   5.959 -0.7427 -1.3471 -0.0685
10110TIP3    H251746   2.940   4.477   5.809 -1.2262 -1.4104 -0.0161
10111TIP3   OH251747   4.940   5.642  15.394  1.1417 -0.0606 -0.5533
10111TIP3    H151748   4.938   5.650  15.299  0.0712  1.1255 -0.4632
10111TIP3    H251749   5.032   5.624  15.415  1.4412 -0.0608 -1.7864
10112TIP3   OH251750   0.616   0.484  14.585  0.6223 -0.3001 -0.4095
10112TIP3    H151751   0.689   0.433  14.620 -0.2736 -0.8716  0.7069
10112TIP3    H251752   0.563   0.505  14.662 -0.4690 -0.0398 -1.2163
10113TIP3   OH251753   3.411   5.301   1.633  0.1916  0.3103 -1.1356
10113TIP3    H151754   3.373   5.345   1.709 -0.3349  3.0510 -2.8441
10113TIP3    H251755   3.346   5.235   1.607  1.3157 -2.2443  1.9199
10114TIP3   OH251756   2.962   3.885  14.484 -0.1982  0.1764  0.1604
10114TIP3    H151757   2.902   3.811  14.490 -1.3826  1.1930  1.7708
10114TIP3    H251758   3.003   3.876  14.398 -2.9648 -0.3709 -1.2294
10115TIP3   OH251759   1.979   4.441  11.744 -0.3165  0.1238 -0.6379
10115TIP3    H151760   2.070   4.471  11.744 -0.1359 -0.3868  0.1869
10115TIP3    H251761   1.947   4.458  11.832 -0.4599 -1.3158 -0.3876
10116TIP3   OH251762   4.839   4.887   0.360 -0.4643  0.1096  0.3225
10116TIP3    H151763   4.882   4.845   0.435  0.5975  0.2546 -0.1777
10116TIP3    H251764   4.883   4.972   0.352  0.1136 -0.2757 -1.0151
10117TIP3   OH251765   2.521   6.456   3.795  0.5142 -0.5810  0.3763
10117TIP3    H151766   2.428   6.477   3.791  0.6616 -0.1045 -1.4042
10117TIP3    H251767   2.563   6.535   3.830  0.2488 -0.8562  1.3370
10118TIP3   OH251768   6.110   2.806   2.380  0.6664 -0.1532 -0.4175
10118TIP3    H151769   6.018   2.791   2.359  0.7539 -1.2833 -0.0445
10118TIP3    H251770   6.122   2.766   2.467  1.2744  0.8530 -0.0133
10119TIP3   OH251771   1.041   4.294  15.113  0.4164  0.1496 -0.3636
10119TIP3    H151772   0.973   4.229  15.135  0.0538  0.1317 -1.4806
10119TIP3    H251773   1.074   4.323  15.198  0.0496 -0.9362  0.1738
10120TIP3   OH251774   3.488   4.469   4.116 -0.2925  0.9552 -0.0689
10120TIP3    H151775   3.546   4.395   4.136 -1.2869  0.4905  1.2270
10120TIP3    H251776   3.439   4.483   4.197 -3.1682  0.2508 -1.5676
10121TIP3   OH251777   2.728   1.835   2.570  0.0147  0.1562  0.3882
10121TIP3    H151778   2.704   1.804   2.483  0.6144  0.2023  0.2004
10121TIP3    H251779   2.788   1.769   2.604 -1.5682 -0.7886  1.5065
10122TIP3   OH251780   1.335   4.081   5.827 -0.1448  0.6471  0.0604
10122TIP3    H151781   1.330   4.148   5.759 -0.2051  0.7019  0.1184
10122TIP3    H251782   1.413   4.106   5.878  0.6465 -0.1160 -0.7434
10123TIP3   OH251783   2.528   5.170  13.969 -0.1750 -0.4773  0.5855
10123TIP3    H151784   2.586   5.221  13.912  0.4147 -0.5072  1.1458
10123TIP3    H251785   2.440   5.201  13.947  0.0026 -0.7661 -0.6121
10124TIP3   OH251786   6.123   4.696   1.951  0.2262 -0.3913  0.5447
10124TIP3    H151787   6.074   4.768   1.910  0.5396 -0.7382 -0.4541
10124TIP3    H251788   6.200   4.739   1.989 -0.2458 -0.0170  1.1039
10125TIP3   OH251789   4.054   0.281   0.989  0.4029 -0.5769  0.4459
10125TIP3    H151790   4.062   0.258   0.897 -0.8575  1.5430 -0.2641
10125TIP3    H251791   3.963   0.311   0.999  0.4822 -0.8429  2.4042
10126TIP3   OH251792   1.193   5.239  16.475  0.7057 -0.5961 -0.6575
10126TIP3    H151793   1.223   5.241  16.565  0.1670  0.4638 -0.4917
10126TIP3    H251794   1.204   5.147  16.448  3.1293 -0.4578 -0.3230
10127TIP3   OH251795   6.530   5.669  13.275 -0.8848 -0.3241  0.2222
10127TIP3    H151796   6.586   5.741  13.245 -2.5636  1.6620  1.5893
10127TIP3    H251797   6.527   5.609  13.201 -0.8589  1.9160 -1.7187
10128TIP3   OH251798   3.086   6.626   0.360  0.3772  0.0499  0.1417
10128TIP3    H151799   3.140   6.587   0.429  1.2154  1.0850  0.0993
10128TIP3    H251800   3.133   6.706   0.335 -0.9172  0.7035 -0.2749
10129TIP3   OH251801   1.121   2.524   2.432 -0.6510  0.8883  0.1068
10129TIP3    H151802   1.188   2.469   2.474 -0.4371  0.8054 -0.3289
10129TIP3    H251803   1.105   2.480   2.348 -0.6906  1.3351 -0.1191
10130TIP3   OH251804   2.983   5.139  16.448  0.2387 -0.3421  0.0838
10130TIP3    H151805   3.064   5.119  16.402  0.8656  1.5629  0.3051
10130TIP3    H251806   3.002   5.120  16.540 -0.3500 -2.0980 -0.1007
10131TIP3   OH251807   2.818   1.613  13.340 -0.0180  0.2840 -0.4607
10131TIP3    H151808   2.824   1.635  13.433 -0.9670  2.5327 -0.8532
10131TIP3    H251809   2.909   1.615  13.310  0.1946  0.8909  0.1647
10132TIP3   OH251810   2.258   3.854  12.574 -0.4797 -0.0138  0.2228
10132TIP3    H151811   2.352   3.854  12.556 -0.8948  1.4062 -2.5848
10132TIP3    H251812   2.244   3.931  12.629 -0.1688  0.7605 -0.7513
10133TIP3   OH251813   2.247   1.680  13.165  0.2088 -0.2997  0.2230
10133TIP3    H151814   2.281   1.615  13.227  1.4641  0.7272  0.6386
10133TIP3    H251815   2.316   1.687  13.098 -1.2372 -1.6150 -1.5322
10134TIP3   OH251816   6.087   1.938   4.862 -0.5551 -0.3751 -0.6973
10134TIP3    H151817   6.114   1.877   4.931  2.3104  2.3895  0.8621
10134TIP3    H251818   6.139   1.913   4.786 -1.3066 -1.4141 -0.8887
10135TIP3   OH251819   3.960   5.075  16.055  0.4032 -0.2242 -0.0548
10135TIP3    H151820   3.988   5.101  15.967 -1.2030 -1.0062 -0.8459
10135TIP3    H251821   3.870   5.107  16.061 -0.2456 -2.0509  0.4614
10136TIP3   OH251822   5.984   5.209   4.135 -0.2024  0.2306  0.1851
10136TIP3    H151823   6.073   5.230   4.161  0.7736 -3.1872  0.0684
10136TIP3    H251824   5.973   5.252   4.051  1.3299  0.7691  0.2331
10137TIP3   OH251825   2.881   1.057  11.854 -0.0371 -0.4923 -0.1337
10137TIP3    H151826   2.849   0.991  11.916 -0.0772  0.5581  0.9823
10137TIP3    H251827   2.806   1.078  11.800 -1.0005  1.1279  1.7372
10138TIP3   OH251828   2.305   0.067   2.072 -0.5074  0.7559 -0.2903
10138TIP3    H151829   2.329   0.059   1.980 -0.0256 -1.2438 -0.0488
10138TIP3    H251830   2.381   0.106   2.114 -0.0753  0.1475 -0.4974
10139TIP3   OH251831   2.276   5.809   3.478 -0.0122  0.3046 -0.7961
10139TIP3    H151832   2.371   5.806   3.461 -0.2581 -2.5877 -2.2667
10139TIP3    H251833   2.265   5.762   3.560 -0.1591  1.5574 -0.0603
10140TIP3   OH251834   2.316   6.393   4.836  0.2617  0.2480  0.2520
10140TIP3    H151835   2.409   6.381   4.855  0.8434  0.8038 -2.0155
10140TIP3    H251836   2.291   6.470   4.887  1.5729  1.2855 -0.5934
10141TIP3   OH251837   3.801   4.399   6.117  0.1226  0.4763  0.3616
10141TIP3    H151838   3.858   4.475   6.105  1.6093 -0.2479  2.2995
10141TIP3    H251839   3.727   4.432   6.167 -0.0835  0.9745 -0.2580
10142TIP3   OH251840   0.617   0.296   1.790 -0.9940  0.2978 -0.1841
10142TIP3    H151841   0.602   0.277   1.698  0.6090  0.6800 -0.5507
10142TIP3    H251842   0.612   0.211   1.834 -1.0493  0.0205 -0.7240
10143TIP3   OH251843   3.014   3.219   6.600  0.4535  0.2323 -0.0500
10143TIP3    H151844   3.055   3.169   6.670  0.4986  0.9620  0.4560
10143TIP3    H251845   2.924   3.233   6.630  1.0627  2.4283  0.9102
10144TIP3   OH251846   6.044   1.501  11.314  0.4861 -0.2225  0.3074
10144TIP3    H151847   5.977   1.555  11.355  2.0184  0.7378  1.7014
10144TIP3    H251848   5.998   1.423  11.285 -1.4768  1.0506 -0.1526
10145TIP3   OH251849   2.941   5.016   0.918 -0.7060 -0.6340 -0.3521
10145TIP3    H151850   2.861   4.963   0.929  0.3496 -2.0302  1.0714
10145TIP3    H251851   2.962   5.008   0.825 -2.0491 -0.4906 -0.6890
10146TIP3   OH251852   2.656   5.136  15.897  0.2449 -0.2439  0.1380
10146TIP3    H151853   2.621   5.075  15.833 -1.2237 -0.9177  1.5236
10146TIP3    H251854   2.732   5.091  15.935  0.2938 -0.4098 -0.1574
10147TIP3   OH251855   0.958   2.242  15.043 -0.0368  0.4077  0.2187
10147TIP3    H151856   1.032   2.240  14.982  1.1292 -0.1273  1.5898
10147TIP3    H251857   0.886   2.203  14.994  0.8806 -0.0754 -0.8055
10148TIP3   OH251858   4.996   5.804  12.716  0.3942  0.0882  0.3859
10148TIP3    H151859   4.906   5.813  12.686 -0.2526 -0.5931  2.0115
10148TIP3    H251860   5.046   5.784  12.637 -0.7700  1.0023 -0.6216
10149TIP3   OH251861   4.004   3.010  14.013  0.0292  0.5508  0.4316
10149TIP3    H151862   3.935   3.060  14.056 -1.3235 -2.0375  1.4990
10149TIP3    H251863   4.085   3.041  14.054 -0.9313  0.5420  2.4751
10150TIP3   OH251864   2.883   3.161  13.584 -0.0206  0.5400 -0.2154
10150TIP3    H151865   2.900   3.139  13.676 -2.3278  1.8941  0.6362
10150TIP3    H251866   2.826   3.091  13.552  3.1726 -1.6107 -1.6889
10151TIP3   OH251867   2.091   5.537   5.084 -0.0110  0.0156  0.0831
10151TIP3    H151868   2.124   5.466   5.028 -1.0349  0.4955 -1.1879
10151TIP3    H251869   2.040   5.492   5.152  0.1629 -0.5108 -0.1288
10152TIP3   OH251870   4.756   4.420   3.838  0.1328  0.1296 -0.3358
10152TIP3    H151871   4.795   4.359   3.775 -0.1755  0.5412 -0.9248
10152TIP3    H251872   4.677   4.453   3.796  1.2508  2.3685 -0.8367
10153TIP3   OH251873   1.935   3.662   3.639 -0.3319 -0.2670 -0.3259
10153TIP3    H151874   1.957   3.570   3.651  1.6269  0.4570  2.8427
10153TIP3    H251875   1.983   3.688   3.560 -1.1770 -1.9632 -1.4606
10154TIP3   OH251876   3.367   0.650  13.920  0.0963  0.0034  0.3516
10154TIP3    H151877   3.347   0.557  13.908 -1.1344  0.4894 -1.9935
10154TIP3    H251878   3.382   0.659  14.014  1.4750 -2.7554  0.5051
10155TIP3   OH251879   2.011   3.613  11.703 -0.1700 -0.3211  0.2506
10155TIP3    H151880   2.012   3.704  11.675  1.0671 -0.0284  1.1408
10155TIP3    H251881   2.019   3.616  11.798  1.4014 -1.3452  0.1965
10156TIP3   OH251882   2.214   4.965   3.113  0.3875  0.2519 -0.0268
10156TIP3    H151883   2.294   4.957   3.061 -0.1284  0.4452 -0.8676
10156TIP3    H251884   2.244   4.963   3.204  1.3381  0.2478 -0.3326
10157TIP3   OH251885   6.006   5.379   5.778 -0.1121  0.4427  0.1664
10157TIP3    H151886   5.994   5.442   5.848 -0.0663  3.3789 -2.2803
10157TIP3    H251887   5.927   5.385   5.725 -0.1176 -1.6275 -0.1633
10158TIP3   OH251888   4.205   4.301   4.418 -0.0056  0.0892 -0.0217
10158TIP3    H151889   4.275   4.236   4.414  2.3406  2.4172  0.2866
10158TIP3    H251890   4.208   4.346   4.333 -2.1979 -0.7151 -0.5865
10159TIP3   OH251891   4.274   0.638   0.651  0.0427 -0.2456  0.1705
10159TIP3    H151892   4.225   0.635   0.733  0.2657 -2.0689  0.2873
10159TIP3    H251893   4.209   0.662   0.585 -1.6547 -4.3830  0.0157
10160TIP3   OH251894   0.617   1.031   4.717  0.7023  0.0674 -0.0563
10160TIP3    H151895   0.560   1.045   4.793  0.0434  2.4721 -0.9135
10160TIP3    H251896   0.638   1.119   4.686  0.9619 -0.8372 -2.6695
10161TIP3   OH251897   2.050   6.319  17.259 -0.8905 -0.1728  0.5744
10161TIP3    H151898   2.022   6.351  17.173 -1.3577 -1.2443  0.3086
10161TIP3    H251899   1.969   6.294  17.302 -0.7874  1.5240  1.8515
10162TIP3   OH251900   0.742   4.216   3.617 -0.2707 -0.5149  0.1060
10162TIP3    H151901   0.690   4.164   3.555  0.7584  0.5700 -1.7258
10162TIP3    H251902   0.831   4.211   3.584 -0.2336  3.1305 -0.7354
10163TIP3   OH251903   3.669   2.527  13.537  0.2778  0.3002 -1.0369
10163TIP3    H151904   3.680   2.489  13.624  0.2220 -1.0649 -1.6065
10163TIP3    H251905   3.759   2.542  13.507  0.3180 -0.1467 -1.1382
10164TIP3   OH251906   0.343   5.994  15.502 -0.2277  0.4120 -0.0932
10164TIP3    H151907   0.323   6.087  15.494 -1.0062  0.2753  0.1840
10164TIP3    H251908   0.301   5.954  15.426  0.4803  0.3330 -0.4560
10165TIP3   OH251909   5.500   6.261  16.525  0.2151  0.5663  0.9132
10165TIP3    H151910   5.476   6.228  16.438  0.3718  0.0144  1.0710
10165TIP3    H251911   5.588   6.298  16.512 -0.2731  1.6572  0.5614
10166TIP3   OH251912   3.527   4.788  11.697  0.0235 -0.0564  0.0879
10166TIP3    H151913   3.519   4.780  11.602 -1.5769  0.9440  0.1086
10166TIP3    H251914   3.437   4.785  11.729  0.3237  2.2455  1.3406
10167TIP3   OH251915   5.768   1.981   2.585 -0.1527  0.4005 -0.0792
10167TIP3    H151916   5.799   1.923   2.655 -0.2234 -0.3293 -0.6335
10167TIP3    H251917   5.674   1.990   2.600 -0.6602 -1.7584 -1.4362
10168TIP3   OH251918   1.661   2.580  12.035  0.4148  0.3358 -0.7513
10168TIP3    H151919   1.732   2.604  12.095 -0.1809 -1.5003  0.8115
10168TIP3    H251920   1.702   2.524  11.969  0.7818  1.0102 -1.1015
10169TIP3   OH251921   3.596   1.803  12.073  0.5464 -0.3058  0.3807
10169TIP3    H151922   3.611   1.714  12.039 -0.9985 -1.1707  1.8171
10169TIP3    H251923   3.607   1.794  12.167  0.4125  1.0747  0.5413
10170TIP3   OH251924   0.983   6.347   3.378  0.3142 -0.0165 -0.1035
10170TIP3    H151925   1.078   6.352   3.381  0.2323  1.3434  1.4079
10170TIP3    H251926   0.962   6.355   3.285  1.6298  0.9113 -0.3483
10171TIP3   OH251927   2.691   5.756  14.493 -0.4122  0.5591 -0.1245
10171TIP3    H151928   2.627   5.780  14.427 -0.0740 -1.0374 -1.0843
10171TIP3    H251929   2.643   5.702  14.556  0.0522 -1.2328 -1.2167
10172TIP3   OH251930   3.805   5.708   4.143  0.3553  0.2122  0.7184
10172TIP3    H151931   3.828   5.723   4.051 -0.3332  0.4861  0.5861
10172TIP3    H251932   3.748   5.782   4.165 -0.6597 -0.6205  0.9465
10173TIP3   OH251933   5.611   5.452   5.285  0.0239 -0.1767 -0.0019
10173TIP3    H151934   5.704   5.452   5.304  0.2631 -0.1846 -1.0960
10173TIP3    H251935   5.577   5.530   5.330  0.7783  0.5062 -0.5842
10174TIP3   OH251936   6.676   3.736   0.868 -0.0617 -0.3644  0.2529
10174TIP3    H151937   6.614   3.670   0.900  0.7336 -1.0953  0.3314
10174TIP3    H251938   6.763   3.699   0.888  0.4008  1.0848  1.0528
10175TIP3   OH251939   0.551   2.404  13.656  0.0807  0.1964 -0.5804
10175TIP3    H151940   0.595   2.463  13.718 -0.2327 -0.7561  0.5937
10175TIP3    H251941   0.619   2.381  13.592  0.4959  0.9631 -0.4269
10176TIP3   OH251942   2.365   4.530  13.158 -0.4868  0.1162 -0.1160
10176TIP3    H151943   2.286   4.477  13.145 -0.0071 -0.4879 -0.6648
10176TIP3    H251944   2.398   4.502  13.243 -1.4249  1.1313  0.6031
10177TIP3   OH251945   2.081   2.532  12.811 -0.3173  0.0151  0.4479
10177TIP3    H151946   2.088   2.499  12.901  0.3504 -1.5974 -0.1477
10177TIP3    H251947   2.171   2.543  12.782 -0.5243  1.5083  0.2770
10178TIP3   OH251948   2.998   5.590  15.102 -0.1691 -0.1363 -0.2774
10178TIP3    H151949   3.067   5.553  15.157  1.4536  1.0964 -1.3878
10178TIP3    H251950   2.964   5.664  15.152  0.9351  0.6557 -0.6611
10179TIP3   OH251951   4.778   5.850  13.097 -0.2365  0.3603 -0.2642
10179TIP3    H151952   4.711   5.871  13.032 -0.5056 -0.0706 -0.1283
10179TIP3    H251953   4.859   5.887  13.060 -0.8144  2.3346  0.3408
10180TIP3   OH251954   5.787   5.875  12.462 -0.0912  0.0963 -0.4762
10180TIP3    H151955   5.774   5.809  12.530  0.3333  0.0255 -0.4628
10180TIP3    H251956   5.809   5.824  12.384 -2.9720 -0.0247 -1.3421
10181TIP3   OH251957   3.260   3.950  15.348  0.6617 -0.5874  0.0802
10181TIP3    H151958   3.198   3.943  15.420  1.2679 -1.4157  0.5404
10181TIP3    H251959   3.284   4.043  15.347 -0.5797 -0.2497 -0.1263
10182TIP3   OH251960   2.549   3.419  16.191 -0.1483 -0.0037 -0.7043
10182TIP3    H151961   2.630   3.372  16.172  0.5939  0.6904  0.6228
10182TIP3    H251962   2.542   3.485  16.122 -1.3148 -2.0913 -2.7238
10183TIP3   OH251963   0.975   5.394   4.419  0.4313  0.8054 -0.1348
10183TIP3    H151964   0.893   5.414   4.374  0.0831 -0.6387 -0.2101
10183TIP3    H251965   0.965   5.302   4.446  2.1837  0.4729 -0.5228
10184TIP3   OH251966   1.705   1.489  15.272 -0.6279 -0.2260  0.1142
10184TIP3    H151967   1.637   1.424  15.254 -1.3930  0.7796 -0.7268
10184TIP3    H251968   1.738   1.514  15.186 -1.0095  1.1909  0.3564
10185TIP3   OH251969   6.629   6.233  13.308 -0.4483 -0.0811  0.3012
10185TIP3    H151970   6.678   6.248  13.228 -1.1130  0.3594 -0.0357
10185TIP3    H251971   6.637   6.315  13.357 -2.5829  0.8001 -0.7208
10186TIP3   OH251972   6.431   5.218  12.742 -0.4284  0.2755 -0.7682
10186TIP3    H151973   6.448   5.165  12.820  0.2333 -0.7455 -1.5753
10186TIP3    H251974   6.455   5.307  12.768 -0.4056 -0.0075  0.2486
10187TIP3   OH251975   4.229   2.110   4.166  0.3326  0.4053 -0.4230
10187TIP3    H151976   4.281   2.046   4.118 -0.0354 -0.8664  0.8057
10187TIP3    H251977   4.147   2.115   4.118 -1.3361 -3.2741  1.6226
10188TIP3   OH251978   6.657   4.761   2.113  0.7649 -0.5655 -0.1851
10188TIP3    H151979   6.659   4.768   2.208 -0.7726  0.1335 -0.1655
10188TIP3    H251980   6.705   4.681   2.093  0.6952 -0.9738  1.2137
10189TIP3   OH251981   2.922   1.345   1.003 -0.2850 -0.0856  0.2148
10189TIP3    H151982   2.841   1.383   0.968 -1.1010 -0.7326  1.3253
10189TIP3    H251983   2.932   1.263   0.955  2.1241  1.9051 -3.0474
10190TIP3   OH251984   1.645   6.708   5.095 -0.1166  0.7213 -0.1573
10190TIP3    H151985   1.688   6.674   5.016 -1.7111  0.6172 -1.0209
10190TIP3    H251986   1.608   6.630   5.137 -0.3391  0.9283  0.0328
10191TIP3   OH251987   3.413   4.488  13.703  0.5125  0.3449 -0.1572
10191TIP3    H151988   3.432   4.512  13.794  2.0734  2.0412 -0.8780
10191TIP3    H251989   3.466   4.409  13.688  0.5876  0.3088  0.2700
10192TIP3   OH251990   0.622   2.511   2.735 -0.0622  0.3022 -0.4144
10192TIP3    H151991   0.703   2.534   2.781  0.0599 -0.0723 -0.4320
10192TIP3    H251992   0.644   2.518   2.642 -0.2240  0.7746 -0.4200
10193TIP3   OH251993   3.450   6.341  14.152  0.0268  0.2175  0.3676
10193TIP3    H151994   3.389   6.332  14.079  0.0318  1.2017  0.2279
10193TIP3    H251995   3.523   6.391  14.116 -0.1200  1.0063  1.1222
10194TIP3   OH251996   2.087   0.826  13.479  0.3399 -0.4706 -0.1691
10194TIP3    H151997   2.133   0.744  13.463  0.2675 -0.0341 -3.2019
10194TIP3    H251998   2.110   0.850  13.568  0.4358 -3.7042  0.7995
10195TIP3   OH251999   5.250   4.564  11.626  0.6427 -0.3108 -0.4457
10195TIP3    H152000   5.309   4.505  11.578 -0.6387 -0.5851 -1.7501
10195TIP3    H252001   5.272   4.651  11.594 -1.1199 -0.5922 -2.7037
10196TIP3   OH252002   1.320   5.040  16.328  0.7138  0.3346 -0.0542
10196TIP3    H152003   1.362   4.977  16.387  0.4440  0.6057  0.4300
10196TIP3    H252004   1.267   4.986  16.269 -1.5379  0.2358  1.9585
10197TIP3   OH252005   1.263   1.038  11.917 -0.2550 -0.5540  0.6035
10197TIP3    H152006   1.332   1.065  11.978 -1.4578 -0.2275  1.8513
10197TIP3    H252007   1.279   1.090  11.839 -0.2312  0.9642  1.5890
10198TIP3   OH252008   5.598   4.165  14.907  0.0690  0.4700  0.1168
10198TIP3    H152009   5.544   4.230  14.861 -0.4236 -0.6778 -0.9874
10198TIP3    H252010   5.657   4.217  14.961 -1.8303  1.8056  1.0366
10199TIP3   OH252011   5.456   6.364  10.552 -0.2184  0.1853  0.0745
10199TIP3    H152012   5.440   6.300  10.622 -0.5445  0.2234  0.0386
10199TIP3    H252013   5.540   6.403  10.573 -0.6030  0.6462  0.7963
10200TIP3   OH252014   5.007   2.500  14.525  0.1676 -0.0585 -0.1369
10200TIP3    H152015   5.062   2.438  14.573  0.6955 -0.5442 -1.3182
10200TIP3    H252016   4.929   2.511  14.580  0.5090 -0.9915  0.5669
10201TIP3   OH252017   5.277   2.606  11.957  0.5089 -0.0701 -0.6044
10201TIP3    H152018   5.245   2.534  12.012 -2.7934  0.7356 -1.2168
10201TIP3    H252019   5.271   2.683  12.013 -1.2308  0.4825 -1.4542
10202TIP3   OH252020   5.832   2.729   2.326 -0.3454  0.1720  0.1882
10202TIP3    H152021   5.775   2.665   2.283 -1.7768  1.7242 -0.3331
10202TIP3    H252022   5.806   2.813   2.289  1.0841  1.1393  1.2668
10203TIP3   OH252023   2.760   1.782   3.224 -1.0265 -0.8076  0.6525
10203TIP3    H152024   2.816   1.806   3.151  2.0357 -1.1146  2.6738
10203TIP3    H252025   2.758   1.686   3.222  0.5432 -0.9240  1.8160
10204TIP3   OH252026   6.215   5.320  12.043  0.7990 -0.2795  0.6429
10204TIP3    H152027   6.123   5.341  12.057  0.8226  0.0396  0.3327
10204TIP3    H252028   6.260   5.355  12.119  1.0142  1.9919 -0.4493
10205TIP3   OH252029   5.286   1.175  15.530 -0.2591  0.5066 -0.1004
10205TIP3    H152030   5.198   1.176  15.567  0.6010  1.2566  2.0935
10205TIP3    H252031   5.330   1.103  15.575 -0.1993 -1.0888 -2.5118
10206TIP3   OH252032   6.586   3.327   1.267 -0.4036 -0.0510  0.2243
10206TIP3    H152033   6.663   3.303   1.216  0.1767 -0.3362  1.2036
10206TIP3    H252034   6.528   3.252   1.262 -0.7315  0.2487 -0.6977
10207TIP3   OH252035   2.357   3.122   6.083 -0.0869  0.6860 -0.2036
10207TIP3    H152036   2.375   3.062   6.155 -0.7589 -0.2575 -0.8042
10207TIP3    H252037   2.269   3.156   6.101 -0.2254  0.5064 -0.5265
10208TIP3   OH252038   0.761   6.432   5.858 -0.1016  0.9716  0.1064
10208TIP3    H152039   0.813   6.379   5.798 -1.4545  0.7695 -0.9282
10208TIP3    H252040   0.713   6.368   5.911 -2.3327  1.0286 -1.6600
10209TIP3   OH252041   0.144   5.893  13.732  0.6713  0.5536 -0.2642
10209TIP3    H152042   0.061   5.877  13.687  0.2268 -0.8666  0.9485
10209TIP3    H252043   0.206   5.832  13.691  0.6053  0.2201  0.1216
10210TIP3   OH252044   1.145   6.023  12.172 -0.5187  0.3489 -0.3959
10210TIP3    H152045   1.058   6.025  12.212 -0.3300 -1.2750  0.1828
10210TIP3    H252046   1.145   6.096  12.110 -2.3211  0.3198 -0.4777
10211TIP3   OH252047   3.609   3.911   0.475  0.0749  0.7013 -0.0469
10211TIP3    H152048   3.609   3.999   0.438 -1.4235  0.8715  0.2934
10211TIP3    H252049   3.561   3.858   0.411  2.3096 -0.2650 -1.0303
10212TIP3   OH252050   0.079   4.099  11.631  0.1910 -0.3594  0.3385
10212TIP3    H152051   0.152   4.135  11.580  0.1674  0.1267  0.6418
10212TIP3    H252052   0.063   4.164  11.700  0.2964 -1.0608  1.0406
10213TIP3   OH252053   4.893   0.983   2.822  0.2100  0.6178 -0.0823
10213TIP3    H152054   4.892   0.917   2.752 -0.2807  1.4083 -0.8457
10213TIP3    H252055   4.935   0.939   2.896  0.4738 -0.3385 -0.7784
10214TIP3   OH252056   6.177   2.691  11.767 -0.3872  0.5172  0.6510
10214TIP3    H152057   6.119   2.656  11.835 -1.6222 -0.9986 -1.0929
10214TIP3    H252058   6.233   2.618  11.743  0.1934  1.1043  0.1889
10215TIP3   OH252059   4.951   6.648  15.371  0.4611  0.2533 -0.1401
10215TIP3    H152060   4.963   6.743  15.370  0.9584  0.1875 -0.3980
10215TIP3    H252061   5.029   6.614  15.415  0.7696 -0.1027 -0.9407
10216TIP3   OH252062   2.855   1.453   4.386 -0.5368 -0.3681  1.0797
10216TIP3    H152063   2.797   1.497   4.324  0.5430  1.1922  1.1119
10216TIP3    H252064   2.824   1.482   4.472 -0.2628 -0.2460  1.1370
10217TIP3   OH252065   5.301   3.787  14.078 -0.7870 -0.3287 -0.6661
10217TIP3    H152066   5.241   3.858  14.100 -0.6657  0.2000 -1.9811
10217TIP3    H252067   5.334   3.756  14.163 -0.6322  1.3496 -0.0825
10218TIP3   OH252068   5.951   1.591   3.398 -0.0897 -0.3121  0.2697
10218TIP3    H152069   5.898   1.524   3.354  0.6252  0.4578 -1.8439
10218TIP3    H252070   5.887   1.641   3.449 -1.0674 -0.7663 -0.4739
10219TIP3   OH252071   3.628   3.728  13.187  0.5716 -0.1242 -0.7442
10219TIP3    H152072   3.542   3.687  13.194  1.2051 -1.3440  0.4099
10219TIP3    H252073   3.618   3.812  13.231  0.8940 -1.9089  3.1292
10220TIP3   OH252074   2.031   4.532   2.220 -0.2171 -0.4957  0.6199
10220TIP3    H152075   2.038   4.626   2.236 -0.8943 -0.2577 -0.3511
10220TIP3    H252076   1.989   4.526   2.134 -0.3620 -1.6902  0.7574
10221TIP3   OH252077   0.204   3.507  14.151 -0.1794 -0.4601  0.1551
10221TIP3    H152078   0.134   3.446  14.175 -0.3479 -0.3897 -0.1412
10221TIP3    H252079   0.209   3.569  14.223 -1.7053  0.6535 -0.6334
10222TIP3   OH252080   3.161   1.709   6.237  0.5310 -0.3903  0.3567
10222TIP3    H152081   3.165   1.731   6.144 -0.5274 -1.2136  0.0878
10222TIP3    H252082   3.174   1.792   6.282  0.5012  0.1172 -0.5437
10223TIP3   OH252083   2.325   2.671   3.678 -0.0242 -0.3942 -0.2014
10223TIP3    H152084   2.364   2.642   3.761 -0.9719  0.4828  0.5845
10223TIP3    H252085   2.283   2.754   3.700  0.7700  0.4907 -1.8672
10224TIP3   OH252086   4.147   2.928   1.855 -0.0286 -0.5736 -0.4337
10224TIP3    H152087   4.085   2.871   1.811  1.5517 -1.3461 -1.8055
10224TIP3    H252088   4.126   3.016   1.823 -0.6917 -0.7581 -0.5123
10225TIP3   OH252089   5.635   2.818   5.921 -0.3018  0.1746 -0.1272
10225TIP3    H152090   5.602   2.813   5.831 -0.5337  1.0064 -0.0940
10225TIP3    H252091   5.593   2.745   5.966 -0.8434  0.2623 -0.4854
10226TIP3   OH252092   4.894   0.002   2.051 -0.2837  0.2289 -0.1120
10226TIP3    H152093   4.888   0.091   2.085 -1.2997  0.9024 -1.8859
10226TIP3    H252094   4.920   0.013   1.959  1.9433 -1.4596  0.2213
10227TIP3   OH252095   3.395   3.117   2.016  0.3549 -0.0493  0.4215
10227TIP3    H152096   3.365   3.152   2.100  0.7200 -1.4094  1.1433
10227TIP3    H252097   3.486   3.146   2.009  0.2682  0.2217  0.3977
10228TIP3   OH252098   3.935   2.035   4.667  0.2928  0.1117  0.6033
10228TIP3    H152099   3.840   2.032   4.660  0.2955  1.9525 -1.4610
10228TIP3    H252100   3.965   2.049   4.577  2.3606  1.9871  1.4952
10229TIP3   OH252101   1.691   5.847  11.153  0.0389  0.1788  0.2421
10229TIP3    H152102   1.665   5.931  11.192 -0.6807  0.3927 -0.6409
10229TIP3    H252103   1.706   5.789  11.227  0.8373  1.1656  0.8803
10230TIP3   OH252104   3.991   0.417   3.869 -0.0982  0.3561  0.7217
10230TIP3    H152105   3.910   0.378   3.903  0.0210  0.0721  0.6757
10230TIP3    H252106   3.988   0.508   3.900  0.0275  0.0912  1.5254
10231TIP3   OH252107   3.611   1.436  12.404 -0.4673 -0.2020 -0.1151
10231TIP3    H152108   3.639   1.370  12.340  1.3214 -0.1185  0.5388
10231TIP3    H252109   3.563   1.387  12.471 -2.1634 -0.3208 -1.3421
10232TIP3   OH252110   4.758   1.036  14.481 -0.0354 -0.2049 -0.0678
10232TIP3    H152111   4.824   1.021  14.549 -0.3368  0.2529  0.3388
10232TIP3    H252112   4.730   1.127  14.495  1.0088  0.4124 -1.7885
10233TIP3   OH252113   4.225   6.381  14.875  0.5966 -0.1958  0.0071
10233TIP3    H152114   4.192   6.445  14.812  1.3917 -0.9801 -1.2297
10233TIP3    H252115   4.189   6.410  14.959  0.5609  1.5926 -0.5956
10234TIP3   OH252116   3.252   4.480   5.508 -0.5302  0.0254 -0.1339
10234TIP3    H152117   3.170   4.465   5.462 -0.7278 -0.0329  0.2366
10234TIP3    H252118   3.271   4.396   5.550 -0.6406  0.2473  0.3562
10235TIP3   OH252119   3.887   4.682  16.431  0.7024 -0.1951 -0.6513
10235TIP3    H152120   3.977   4.669  16.461  0.6778 -0.4285 -0.6743
10235TIP3    H252121   3.841   4.714  16.509  1.2469  1.9346 -1.1565
10236TIP3   OH252122   6.549   6.122   1.531  0.4135  0.4286  0.0953
10236TIP3    H152123   6.486   6.060   1.494 -0.7446  1.2410  0.6354
10236TIP3    H252124   6.518   6.207   1.501  1.8305  0.7771 -0.4142
10237TIP3   OH252125   5.386   6.153  10.737 -0.0859 -0.2698 -0.7397
10237TIP3    H152126   5.464   6.106  10.767  0.0730 -1.0571 -2.2943
10237TIP3    H252127   5.312   6.102  10.770  0.0467  0.0773  0.1192
10238TIP3   OH252128   4.974   1.606   2.185  0.0018  0.5210  0.2123
10238TIP3    H152129   4.920   1.647   2.118 -0.1370  0.4774  0.2966
10238TIP3    H252130   4.955   1.656   2.265  1.2287  1.5030 -0.0623
10239TIP3   OH252131   3.301   4.445   4.752  0.5426  0.9895  0.4011
10239TIP3    H152132   3.372   4.495   4.792  0.6905  0.5681  0.6643
10239TIP3    H252133   3.333   4.355   4.749  0.0449  0.8064  0.4704
10240TIP3   OH252134   0.865   3.150   1.957 -0.5420  0.6006 -0.5205
10240TIP3    H152135   0.822   3.213   2.015 -0.6418  0.3844 -0.3568
10240TIP3    H252136   0.794   3.110   1.908 -0.4445  0.8767 -0.8896
10241TIP3   OH252137   6.628   4.062   1.749  0.1668 -0.1100 -0.3684
10241TIP3    H152138   6.712   4.092   1.782 -0.9037  0.4676  2.0440
10241TIP3    H252139   6.648   3.981   1.702  2.1816  0.6139 -0.8423
10242TIP3   OH252140   0.293   6.291  13.648  0.0570  0.2760  0.0428
10242TIP3    H152141   0.377   6.322  13.617 -0.0668  2.0169  1.2970
10242TIP3    H252142   0.313   6.248  13.731 -0.1252 -0.6733 -0.3892
10243TIP3   OH252143   5.319   1.541  16.542 -0.0635  0.0791  0.3202
10243TIP3    H152144   5.312   1.615  16.482  1.7053 -1.7586 -2.4076
10243TIP3    H252145   5.388   1.565  16.603 -0.1807  1.0347  0.0893
10244TIP3   OH252146   6.700   5.597   4.598  0.3147  0.1235 -0.4883
10244TIP3    H152147   6.664   5.528   4.653  1.2831  0.9009  1.1664
10244TIP3    H252148   6.624   5.630   4.549 -0.4795 -0.8621  0.0340
10245TIP3   OH252149   5.466   2.923   3.547 -0.1892  0.0090 -0.5772
10245TIP3    H152150   5.528   2.851   3.533  2.3427  1.8024  0.6180
10245TIP3    H252151   5.502   2.996   3.496 -1.1023  1.2130  0.4401
10246TIP3   OH252152   5.014   3.306   3.340 -0.2717  0.0726 -0.5063
10246TIP3    H152153   4.954   3.252   3.391 -0.6791  1.5797  0.7130
10246TIP3    H252154   5.101   3.283   3.372 -0.4800  0.5134  0.4161
10247TIP3   OH252155   4.036   4.134  16.493  0.1791 -0.0095  0.5675
10247TIP3    H152156   4.010   4.056  16.542  0.7100 -0.8568 -0.4788
10247TIP3    H252157   4.130   4.125  16.481  0.2652  0.8581  0.5266
10248TIP3   OH252158   3.676   2.152   2.830 -0.4261  0.4285  0.2703
10248TIP3    H152159   3.726   2.187   2.904 -0.4974  1.3243 -0.0857
10248TIP3    H252160   3.611   2.094   2.871  0.6134 -0.4208  0.7636
10249TIP3   OH252161   0.084   5.225  16.601 -0.3500  0.6751  0.5003
10249TIP3    H152162   0.021   5.234  16.530  0.0725  0.0712  0.0428
10249TIP3    H252163   0.105   5.316  16.626  0.5468  0.9443 -1.0873
10250TIP3   OH252164   0.965   3.901  12.641  0.4511  0.1973  0.3351
10250TIP3    H152165   0.950   3.979  12.588 -0.0313 -0.2531 -0.1899
10250TIP3    H252166   0.885   3.891  12.692  0.0630 -0.5788 -0.4048
10251TIP3   OH252167   4.785   0.495  10.898  0.2674  0.1538  0.5836
10251TIP3    H152168   4.696   0.460  10.889 -0.0279  0.5869  1.7013
10251TIP3    H252169   4.842   0.421  10.876 -0.3616 -0.4715  1.0266
10252TIP3   OH252170   4.270   3.565  16.645 -0.6439 -0.1586  0.0691
10252TIP3    H152171   4.196   3.604  16.692  0.7103 -0.4570  2.6308
10252TIP3    H252172   4.320   3.640  16.614 -1.8913  0.0445 -1.5369
10253TIP3   OH252173   2.109   3.465  13.251  0.3900  0.3433  0.3072
10253TIP3    H152174   2.065   3.417  13.322 -0.5828  0.6582 -0.0579
10253TIP3    H252175   2.146   3.542  13.294 -0.3191  0.6069  0.4691
10254TIP3   OH252176   1.538   4.087   0.625  0.3557 -0.2027 -0.2019
10254TIP3    H152177   1.589   4.008   0.607  0.9170 -0.2053  1.2763
10254TIP3    H252178   1.486   4.100   0.545  1.8493 -0.8136 -1.3304
10255TIP3   OH252179   5.978   3.006   1.061  0.0069 -0.1668 -0.2992
10255TIP3    H152180   6.027   3.040   1.135  3.2097  0.7602 -2.6398
10255TIP3    H252181   5.910   3.071   1.045  0.7071  0.7784  0.4556
10256TIP3   OH252182   4.074   3.043   3.283 -0.2229  0.0519  0.1252
10256TIP3    H152183   4.118   3.051   3.368 -0.4537 -0.9643  0.3447
10256TIP3    H252184   4.145   3.051   3.219  0.4225 -2.2143  0.4931
10257TIP3   OH252185   3.357   2.795   4.918  0.3712  0.2300  0.2352
10257TIP3    H152186   3.441   2.763   4.951  0.8443  1.4654  0.3136
10257TIP3    H252187   3.295   2.776   4.989  0.5859 -0.6648  0.1896
10258TIP3   OH252188   2.659   5.378  14.492  0.3263 -0.4973  0.0517
10258TIP3    H152189   2.682   5.378  14.399  2.5146  1.6076  0.4966
10258TIP3    H252190   2.741   5.401  14.537 -0.6261 -1.6151  2.5320
10259TIP3   OH252191   4.233   0.907  11.907  0.4734 -0.3366 -0.1321
10259TIP3    H152192   4.146   0.939  11.930 -0.4575 -2.4846 -0.4007
10259TIP3    H252193   4.219   0.857  11.826  1.6208 -2.0548  0.6735
10260TIP3   OH252194   2.171   1.524  13.494  0.2237 -0.4058 -0.4346
10260TIP3    H152195   2.131   1.464  13.431  1.4947  0.2955 -2.0002
10260TIP3    H252196   2.228   1.469  13.547  0.9045 -0.6855 -1.4415
10261TIP3   OH252197   2.127   5.505   2.818  0.2991 -0.2658  0.4712
10261TIP3    H152198   2.123   5.481   2.911 -0.7450 -2.6301 -0.1229
10261TIP3    H252199   2.037   5.526   2.795  0.4258 -0.4656 -0.2100
10262TIP3   OH252200   3.670   0.081   5.546 -0.4898  0.1398  0.7486
10262TIP3    H152201   3.748   0.098   5.494 -0.7548  0.9092  0.5851
10262TIP3    H252202   3.600   0.127   5.500 -1.1103 -0.8246  0.6991
10263TIP3   OH252203   1.734   3.064  12.055  0.1679 -0.3306 -0.8764
10263TIP3    H152204   1.676   3.117  12.109  0.2838 -0.1269 -0.9487
10263TIP3    H252205   1.675   3.006  12.006  0.1597 -2.1162  1.1047
10264TIP3   OH252206   5.120   5.988   0.236 -0.1596 -0.3674 -0.3739
10264TIP3    H152207   5.198   5.991   0.181  1.0757  0.9377  1.3198
10264TIP3    H252208   5.136   5.916   0.297 -0.6521 -0.5922 -0.5023
10265TIP3   OH252209   2.989   1.551  12.062  0.0037 -0.0484 -0.4737
10265TIP3    H152210   2.986   1.487  11.991 -0.3653  0.4873 -0.9531
10265TIP3    H252211   2.921   1.522  12.124  1.2756 -1.3154  0.3842
10266TIP3   OH252212   5.536   5.687   5.391 -0.0462  0.9684 -0.0945
10266TIP3    H152213   5.607   5.751   5.396  0.2169  0.6474  0.5172
10266TIP3    H252214   5.472   5.717   5.456 -0.1988  0.9432 -0.2346
10267TIP3   OH252215   0.114   2.914  14.267  0.4710  0.2946  0.2761
10267TIP3    H152216   0.037   2.949  14.313  1.3794  1.0653  1.2714
10267TIP3    H252217   0.090   2.825  14.243 -0.7827  0.5712  0.4471
10268TIP3   OH252218   3.654   6.141  16.065 -0.1726 -0.2955  0.7503
10268TIP3    H152219   3.718   6.084  16.109 -1.0591 -1.2313  0.8648
10268TIP3    H252220   3.584   6.151  16.129 -0.6115 -0.1236  0.2494
10269TIP3   OH252221   5.601   2.311  12.874 -0.0968 -0.3815 -0.1484
10269TIP3    H152222   5.672   2.325  12.812 -0.3301 -0.1361 -0.3618
10269TIP3    H252223   5.619   2.371  12.946 -2.6231  3.3715 -2.3286
10270TIP3   OH252224   4.879   1.107   5.871 -0.2396 -0.3452  0.0063
10270TIP3    H152225   4.895   1.149   5.787  0.1991  1.3039  0.8675
10270TIP3    H252226   4.897   1.014   5.855  1.1706  0.1128 -1.3840
10271TIP3   OH252227   5.822   6.088  14.297 -0.0808  0.6982 -0.3436
10271TIP3    H152228   5.782   6.049  14.375  0.6035 -0.5848 -0.5987
10271TIP3    H252229   5.755   6.081  14.229  0.0508 -0.1316 -0.4002
10272TIP3   OH252230   2.607   2.298  11.508  0.4199  0.2708  0.0357
10272TIP3    H152231   2.676   2.310  11.443  1.6706 -2.8435  0.6311
10272TIP3    H252232   2.633   2.221  11.558 -1.9928  0.7639  2.3218
10273TIP3   OH252233   0.173   4.148   4.971  0.2301  0.0437 -0.1996
10273TIP3    H152234   0.255   4.180   5.010  1.0911 -2.8169  0.6330
10273TIP3    H252235   0.105   4.204   5.009  1.5896  1.0513  0.8792
10274TIP3   OH252236   2.262   5.476  12.382  0.3463 -0.5584  0.2116
10274TIP3    H152237   2.263   5.386  12.351  0.1586 -0.3645 -0.3790
10274TIP3    H252238   2.219   5.525  12.312  1.5419  0.1849 -0.0427
10275TIP3   OH252239   6.630   0.834   5.253 -0.1909 -0.3909 -0.1849
10275TIP3    H152240   6.627   0.919   5.209 -1.1762 -1.2089 -1.8256
10275TIP3    H252241   6.549   0.830   5.304 -0.6795 -0.7132 -0.9466
10276TIP3   OH252242   2.774   1.160   1.549 -0.6419  0.3100  1.0642
10276TIP3    H152243   2.780   1.255   1.552 -1.7852  0.5543 -1.5472
10276TIP3    H252244   2.804   1.136   1.461 -1.6645 -1.6013  1.1666
10277TIP3   OH252245   0.505   1.858  15.162  0.4352 -0.4275 -0.2834
10277TIP3    H152246   0.599   1.846  15.151  1.2504  1.9671  2.6447
10277TIP3    H252247   0.495   1.951  15.181 -2.1870 -1.0329  1.9498
10278TIP3   OH252248   0.711   5.132  12.225  0.0106 -0.8981 -0.5819
10278TIP3    H152249   0.804   5.150  12.238 -0.1297  0.2271 -1.0050
10278TIP3    H252250   0.676   5.121  12.313  0.2416  0.3697 -0.3115
10279TIP3   OH252251   5.245   5.436  11.237 -0.4914 -0.0281  0.6208
10279TIP3    H152252   5.329   5.482  11.228 -0.3731 -0.3856 -0.2381
10279TIP3    H252253   5.198   5.457  11.157 -1.3630  0.4123  1.2308
10280TIP3   OH252254   5.599   1.827   5.080 -0.4741 -0.5227  0.1175
10280TIP3    H152255   5.525   1.869   5.036 -0.9642 -0.3434  1.0785
10280TIP3    H252256   5.674   1.844   5.023 -1.0802 -0.2674 -0.6152
10281TIP3   OH252257   2.896   0.852   5.348  0.1429 -0.0004 -0.1636
10281TIP3    H152258   2.841   0.808   5.413  0.4950  1.7825  1.4071
10281TIP3    H252259   2.977   0.872   5.394  0.9347  0.1350 -1.5607
10282TIP3   OH252260   4.736   2.758  11.749 -0.1863  0.1524  0.1397
10282TIP3    H152261   4.778   2.742  11.664  1.0085  1.0137  0.5518
10282TIP3    H252262   4.792   2.715  11.813 -0.0410  1.1191  0.6787
10283TIP3   OH252263   6.293   6.082  15.372 -0.2639  0.7171  0.5249
10283TIP3    H152264   6.358   6.121  15.313  1.3638 -0.3685  1.5189
10283TIP3    H252265   6.255   6.157  15.419 -0.0446  1.4009 -0.3561
10284TIP3   OH252266   0.483   3.085   2.074 -0.2008 -0.0751 -0.7538
10284TIP3    H152267   0.390   3.063   2.077 -0.4144  0.9173  0.1711
10284TIP3    H252268   0.508   3.097   2.165  1.3119 -2.1869 -0.8098
10285TIP3   OH252269   1.683   1.298  15.582 -0.3760 -0.4609 -0.3012
10285TIP3    H152270   1.600   1.342  15.599 -0.3418 -0.2270 -0.7278
10285TIP3    H252271   1.725   1.351  15.515  0.9507  0.4427  1.2022
10286TIP3   OH252272   6.225   1.183  14.633 -0.6977  0.4779  0.4748
10286TIP3    H152273   6.220   1.279  14.630 -0.3234  0.4754 -0.4867
10286TIP3    H252274   6.151   1.154  14.578  1.1042  0.2807 -2.0113
10287TIP3   OH252275   1.720   1.611   6.336  0.3489 -0.2891 -0.3677
10287TIP3    H152276   1.746   1.530   6.292  0.7037 -0.6455  0.4664
10287TIP3    H252277   1.770   1.679   6.292  2.6102 -0.9212  0.9943
10288TIP3   OH252278   5.923   1.095   4.294  0.0038 -0.0836  0.2340
10288TIP3    H152279   5.840   1.117   4.336 -0.4811  0.8080 -1.1363
10288TIP3    H252280   5.972   1.177   4.294  1.1085 -0.6992  1.4325
10289TIP3   OH252281   6.108   3.650  15.606  0.2323 -0.2480 -0.1785
10289TIP3    H152282   6.190   3.697  15.588 -0.2891  0.8401  0.2143
10289TIP3    H252283   6.039   3.713  15.586 -0.4788 -0.5977  1.0674
10290TIP3   OH252284   4.741   1.946   2.587  0.0672 -0.1626 -0.1651
10290TIP3    H152285   4.747   1.991   2.503  1.7083  1.8725  0.9481
10290TIP3    H252286   4.703   2.012   2.646  0.9369 -0.8024  1.1513
10291TIP3   OH252287   0.402   1.322   5.350  0.3915 -0.1315 -0.2841
10291TIP3    H152288   0.395   1.289   5.439 -0.0056  1.2625  0.2429
10291TIP3    H252289   0.445   1.407   5.359  0.0004  0.2075 -1.3696
10292TIP3   OH252290   0.539   0.068  17.299 -0.5922  0.0864 -0.3796
10292TIP3    H152291   0.571   0.118  17.373 -2.6491 -0.5125  0.9977
10292TIP3    H252292   0.607   0.003  17.282 -0.1938  0.0803  1.1559
10293TIP3   OH252293   2.511   6.176   3.722 -0.2509 -0.6021 -0.1303
10293TIP3    H152294   2.501   6.265   3.755  2.4874 -0.7956  1.5910
10293TIP3    H252295   2.595   6.178   3.676 -1.4167 -1.7104 -2.4472
10294TIP3   OH252296   6.665   2.288   1.004 -0.5163  0.0041  0.4194
10294TIP3    H152297   6.758   2.268   0.990 -0.7572  0.0919 -1.5921
10294TIP3    H252298   6.633   2.314   0.917 -2.4232 -0.0153  1.0827
10295TIP3   OH252299   0.225   2.941   3.491  0.0133 -0.0960 -0.1036
10295TIP3    H152300   0.201   2.878   3.559  1.3100  0.8009  1.2306
10295TIP3    H252301   0.150   2.941   3.431 -0.3956 -2.2234  0.3322
10296TIP3   OH252302   4.360   6.076   1.279  0.1527 -0.2527 -0.0667
10296TIP3    H152303   4.398   6.098   1.194 -2.0788 -0.8180 -1.3005
10296TIP3    H252304   4.343   5.982   1.274  1.0935 -0.5394  1.5153
10297TIP3   OH252305   4.826   4.093   0.119  0.4501  0.2913 -0.3491
10297TIP3    H152306   4.901   4.073   0.063  0.5809  0.3248 -0.1890
10297TIP3    H252307   4.850   4.175   0.162  1.7900 -1.2973  2.2011
10298TIP3   OH252308   4.076   3.186   5.380 -0.1377  0.1996 -0.5639
10298TIP3    H152309   4.119   3.194   5.295  0.3421  1.9948 -0.1791
10298TIP3    H252310   3.984   3.203   5.362 -0.2938 -0.9229 -0.9364
10299TIP3   OH252311   6.577   3.079  17.191 -0.5824  0.1288  0.4991
10299TIP3    H152312   6.553   2.990  17.166  1.2504 -0.5983  1.1799
10299TIP3    H252313   6.509   3.134  17.151 -0.2526 -1.3160 -2.2877
10300TIP3   OH252314   2.987   2.126  16.375  0.3851 -0.1771 -0.0689
10300TIP3    H152315   3.000   2.050  16.318  1.2955  0.8335 -1.2856
10300TIP3    H252316   2.925   2.181  16.327  0.0005  0.0071  0.6340
10301TIP3   OH252317   3.886   0.379  14.761 -0.8261 -0.0625 -0.3303
10301TIP3    H152318   3.867   0.472  14.775  0.6675 -0.0633  2.2497
10301TIP3    H252319   3.981   0.371  14.772 -1.0811 -2.0771  0.9829
10302TIP3   OH252320   4.764   1.641  15.323  0.3469  0.4114  0.0577
10302TIP3    H152321   4.757   1.674  15.413  0.4602  1.7505 -0.3994
10302TIP3    H252322   4.784   1.548  15.333 -0.2922  0.3896  1.4119
10303TIP3   OH252323   6.300   5.133   4.788  0.0890 -0.1748  0.2605
10303TIP3    H152324   6.259   5.192   4.851  0.0278 -0.5601  0.5846
10303TIP3    H252325   6.317   5.053   4.838 -3.1118 -1.8287 -1.0384
10304TIP3   OH252326   0.385   1.901  13.257 -0.0189  0.4373 -0.2476
10304TIP3    H152327   0.404   1.878  13.348  0.2022  0.9550 -0.1590
10304TIP3    H252328   0.362   1.994  13.261  0.4509  0.5754 -0.7907
10305TIP3   OH252329   4.162   1.724   1.269 -0.9010  0.6842  0.1004
10305TIP3    H152330   4.215   1.722   1.349  1.8127  1.8317 -1.5229
10305TIP3    H252331   4.178   1.811   1.233 -1.4999 -0.0486 -2.0536
10306TIP3   OH252332   1.065   2.305   5.311  0.8354 -0.7799  0.3313
10306TIP3    H152333   1.035   2.368   5.377  1.9075  0.1675 -0.0561
10306TIP3    H252334   1.147   2.270   5.346  0.9516 -0.9386 -0.0918
10307TIP3   OH252335   6.061   0.696   0.485  0.2162  0.2555  0.4713
10307TIP3    H152336   6.040   0.682   0.577  4.0304 -3.9738  1.0494
10307TIP3    H252337   6.001   0.638   0.438 -0.2048  0.6731  0.4867
10308TIP3   OH252338   5.322   2.302  12.950  0.2433 -0.5319 -0.1393
10308TIP3    H152339   5.308   2.360  13.025  1.2087 -0.6270  0.1418
10308TIP3    H252340   5.409   2.327  12.917  1.2552 -2.6060  0.7510
10309TIP3   OH252341   5.797   3.241  13.700  0.6032 -0.0300 -0.5772
10309TIP3    H152342   5.837   3.275  13.780 -0.8519  1.3167 -0.3581
10309TIP3    H252343   5.819   3.305  13.632  0.7370 -0.4754 -0.9571
10310TIP3   OH252344   0.153   5.972   2.574  0.1535  0.9584 -0.5633
10310TIP3    H152345   0.236   6.012   2.598  0.1194  1.5018 -1.3169
10310TIP3    H252346   0.175   5.880   2.559  0.6356  1.1044 -0.7945
10311TIP3   OH252347   3.687   3.770  10.670 -0.0129  0.5302  0.3745
10311TIP3    H152348   3.599   3.735  10.680  0.5721 -0.8979  0.7553
10311TIP3    H252349   3.698   3.779  10.575 -0.0644 -0.6816  0.2364
10312TIP3   OH252350   2.741   3.275   5.734  0.6540 -0.0752  0.0080
10312TIP3    H152351   2.709   3.339   5.670  0.4747  0.2589  0.4253
10312TIP3    H252352   2.668   3.265   5.796  0.4479 -1.1295 -0.3725
10313TIP3   OH252353   0.408   6.345   3.017  0.5796  0.4941 -0.0988
10313TIP3    H152354   0.454   6.358   3.099  0.6450  0.0664 -0.0688
10313TIP3    H252355   0.318   6.374   3.034  0.5447  0.2189  0.1767
10314TIP3   OH252356   4.376   1.973   3.958  0.1228  0.0626  0.5618
10314TIP3    H152357   4.388   2.021   3.876 -2.3236 -0.8223 -0.3834
10314TIP3    H252358   4.457   1.923   3.968  0.0267 -0.7297 -1.9720
10315TIP3   OH252359   2.475   5.218   1.297  0.9299 -0.6761 -0.4701
10315TIP3    H152360   2.559   5.175   1.314  0.2621 -1.5006  0.8930
10315TIP3    H252361   2.498   5.299   1.251  2.6684  0.1473  1.6870
10316TIP3   OH252362   5.202   1.341   5.770  0.0889 -0.2120 -0.2146
10316TIP3    H152363   5.120   1.387   5.789 -0.5011 -0.7911 -1.2804
10316TIP3    H252364   5.256   1.356   5.848 -1.3499 -0.5650  0.9111
10317TIP3   OH252365   3.556   3.360  11.938  1.0320  0.0180 -0.0449
10317TIP3    H152366   3.530   3.424  12.003  1.1455  1.1791 -1.1074
10317TIP3    H252367   3.515   3.278  11.967 -0.5180  0.9337  0.4491
10318TIP3   OH252368   4.376   0.584   4.361 -0.1171  0.1819  0.1124
10318TIP3    H152369   4.321   0.662   4.356  1.0969  1.2673  2.2149
10318TIP3    H252370   4.382   0.565   4.455  1.7337 -0.8723 -0.1742
10319TIP3   OH252371   2.847   0.957   2.669 -0.1884  0.3007 -0.7256
10319TIP3    H152372   2.927   0.993   2.631  0.4874 -0.2219  0.1683
10319TIP3    H252373   2.813   0.899   2.602  1.0973 -0.7711 -0.4867
10320TIP3   OH252374   5.500   0.514  12.053 -0.1469 -0.2348  0.2610
10320TIP3    H152375   5.408   0.487  12.060 -2.0161  4.8381  0.1158
10320TIP3    H252376   5.502   0.569  11.974  2.1172  2.3194  1.9233
10321TIP3   OH252377   2.711   3.100   0.816 -0.3953  0.1987 -0.3144
10321TIP3    H152378   2.633   3.045   0.816  0.4478 -1.0932  1.3818
10321TIP3    H252379   2.784   3.039   0.828  0.6891  1.5575  0.3184
10322TIP3   OH252380   0.439   5.866  11.598 -0.4381 -0.4520 -0.1484
10322TIP3    H152381   0.519   5.854  11.547  0.5297  1.2830  0.8803
10322TIP3    H252382   0.392   5.937  11.553  0.2726  0.8731  1.1269
10323TIP3   OH252383   3.579   5.623   0.726  0.1379  0.3699 -0.4870
10323TIP3    H152384   3.609   5.689   0.788  2.3022  0.4196 -1.4852
10323TIP3    H252385   3.578   5.542   0.775  0.5103  0.6321 -0.0432
10324TIP3   OH252386   0.193   3.620  13.916 -0.3462 -0.1021  0.3905
10324TIP3    H152387   0.215   3.571  13.995  0.0530 -1.2638 -0.4255
10324TIP3    H252388   0.111   3.581  13.886 -1.5272  1.5802  1.2226
10325TIP3   OH252389   1.402   1.864   2.155  0.0036 -0.0729  0.2136
10325TIP3    H152390   1.383   1.818   2.073  0.7151  1.0768 -0.6351
10325TIP3    H252391   1.326   1.921   2.168  0.7498  1.2140 -0.7629
10326TIP3   OH252392   4.486   1.348  17.242  0.0018  0.6638  0.3201
10326TIP3    H152393   4.524   1.431  17.271 -0.3237  0.3945  1.5690
10326TIP3    H252394   4.556   1.306  17.190  0.0407  1.8573 -0.6328
10327TIP3   OH252395   4.311   2.422   3.515 -0.3166  0.1864 -0.0489
10327TIP3    H152396   4.379   2.379   3.464  0.2815  3.8624 -2.7879
10327TIP3    H252397   4.231   2.413   3.463 -0.7862  0.1336  0.6565
10328TIP3   OH252398   0.504   2.825   6.138 -0.3529  0.1861 -0.0580
10328TIP3    H152399   0.442   2.896   6.149 -0.0017  0.4694  0.1102
10328TIP3    H252400   0.590   2.868   6.134 -0.2135 -0.1466 -0.8955
10329TIP3   OH252401   4.193   1.751   0.630  0.5082 -0.1581 -0.0021
10329TIP3    H152402   4.196   1.708   0.545  0.8005  1.1087 -0.6586
10329TIP3    H252403   4.102   1.777   0.642  0.3331 -0.9100  0.3922
10330TIP3   OH252404   0.463   1.027   2.955 -0.3544 -0.5890  0.2460
10330TIP3    H152405   0.503   1.054   3.038  2.6754 -0.1446 -1.2126
10330TIP3    H252406   0.504   0.943   2.935  0.3931  0.1594 -1.6162
10331TIP3   OH252407   1.585   3.928  13.634  0.3143  0.1697 -0.1983
10331TIP3    H152408   1.556   3.880  13.711 -0.4563  0.2337 -0.4376
10331TIP3    H252409   1.504   3.950  13.587  0.6753  1.3265 -0.3158
10332TIP3   OH252410   0.357   0.521  15.237 -0.6511  0.1883  0.3444
10332TIP3    H152411   0.439   0.541  15.282  0.1492 -2.9332  0.5241
10332TIP3    H252412   0.383   0.510  15.145 -1.0526  0.1426  0.2361
10333TIP3   OH252413   4.327   5.085  17.371  0.3077  0.4235  0.1626
10333TIP3    H152414   4.417   5.117  17.373 -0.1918  1.8536  0.6682
10333TIP3    H252415   4.316   5.036  17.452  0.0574  1.9242  1.0609
10334TIP3   OH252416   1.820   0.193  10.260  0.4820 -0.1689  0.6268
10334TIP3    H152417   1.749   0.253  10.236  2.3575  1.3871 -1.4337
10334TIP3    H252418   1.820   0.127  10.191  1.0831 -0.0999  0.5550
10335TIP3   OH252419   5.461   0.291   5.089 -0.0435 -0.4904 -0.5581
10335TIP3    H152420   5.466   0.314   5.182 -1.4891  0.8785 -0.7848
10335TIP3    H252421   5.465   0.195   5.088 -0.7098 -0.5629  0.9689
10336TIP3   OH252422   6.236   5.130  16.446  0.1271  0.0632 -0.0303
10336TIP3    H152423   6.267   5.087  16.526 -0.1009  0.2150  0.1426
10336TIP3    H252424   6.162   5.076  16.418  0.9365 -0.6803 -0.8077
10337TIP3   OH252425   3.642   2.341   0.281  0.0283 -0.3272  0.2758
10337TIP3    H152426   3.650   2.413   0.218  2.8482 -0.0703  0.8073
10337TIP3    H252427   3.592   2.274   0.234  2.4087 -0.3587 -2.5504
10338TIP3   OH252428   1.101   2.972   0.345  0.0158  0.1183 -0.1692
10338TIP3    H152429   1.158   2.976   0.422  1.9227  0.5621 -1.5375
10338TIP3    H252430   1.068   2.882   0.345  0.2395  0.0149  0.9748
10339TIP3   OH252431   0.691   2.995   3.355 -0.1717 -0.9550  0.6269
10339TIP3    H152432   0.655   2.986   3.443 -0.2294 -2.7029  0.4500
10339TIP3    H252433   0.626   3.047   3.308 -0.8424 -1.2490  1.2197
10340TIP3   OH252434   2.305   0.634   6.176 -0.0202  0.5241  0.4527
10340TIP3    H152435   2.226   0.656   6.224  0.8058  2.8811  0.8579
10340TIP3    H252436   2.275   0.615   6.087 -1.1452  0.1265  0.9007
10341TIP3   OH252437   0.663   1.079  15.848  0.2082 -0.2827  0.0289
10341TIP3    H152438   0.649   1.173  15.849 -0.4476 -0.3817  0.4036
10341TIP3    H252439   0.577   1.041  15.830 -0.0611 -0.8971  2.3433
10342TIP3   OH252440   0.252   1.751  14.807 -0.3228 -0.3699  0.2111
10342TIP3    H152441   0.157   1.740  14.801 -0.2940  0.1208 -1.7095
10342TIP3    H252442   0.267   1.844  14.793  0.4211 -0.3153  1.2264
10343TIP3   OH252443   3.554   3.833  11.358  0.2630 -0.0292 -0.1642
10343TIP3    H152444   3.588   3.923  11.364 -0.1439  0.2042 -1.0745
10343TIP3    H252445   3.536   3.808  11.448  1.8867  0.2086  0.2579
10344TIP3   OH252446   5.798   4.438   4.361  0.4113  0.3381  0.0869
10344TIP3    H152447   5.710   4.464   4.389 -0.2534 -1.4489 -0.2266
10344TIP3    H252448   5.789   4.420   4.267  0.7079 -1.3847  0.3620
10345TIP3   OH252449   3.510   6.445   5.592 -0.1647  0.5645 -0.2724
10345TIP3    H152450   3.474   6.374   5.645  0.6143  1.4391  1.5254
10345TIP3    H252451   3.602   6.422   5.581 -0.2660  0.5149 -1.0789
10346TIP3   OH252452   0.980   5.703   2.875  0.0419 -0.4730  0.9967
10346TIP3    H152453   0.908   5.677   2.817  1.0360  1.2048 -1.1110
10346TIP3    H252454   1.057   5.659   2.838  0.6059  0.2166  1.3285
10347TIP3   OH252455   4.392   2.596   2.534  0.4130  0.1826  0.7683
10347TIP3    H152456   4.341   2.657   2.588  0.8705  1.3144 -0.0404
10347TIP3    H252457   4.405   2.642   2.451 -0.1948 -1.4839 -0.3070
10348TIP3   OH252458   0.461   4.621   3.423 -0.8141  0.6000  0.7710
10348TIP3    H152459   0.371   4.635   3.455 -1.6625  1.0348 -1.5573
10348TIP3    H252460   0.472   4.688   3.356  0.7249 -0.3862 -0.0108
10349TIP3   OH252461   6.126   6.196  12.153 -0.2742  0.1422 -0.1477
10349TIP3    H152462   6.071   6.121  12.131 -0.5601  0.1711  0.4540
10349TIP3    H252463   6.103   6.262  12.088 -0.4640 -0.0821 -0.3119
10350TIP3   OH252464   0.147   5.904  16.736 -0.0932  0.1393 -0.1093
10350TIP3    H152465   0.059   5.942  16.739  1.1125  3.2494  0.4002
10350TIP3    H252466   0.174   5.913  16.644 -0.1403 -0.3122 -0.1646
10351TIP3   OH252467   6.515   4.204   1.327  0.1324  0.1119  0.0741
10351TIP3    H152468   6.552   4.184   1.413  1.5262 -0.7632 -0.6902
10351TIP3    H252469   6.464   4.126   1.304  0.7925 -0.1927 -0.4075
10352TIP3   OH252470   4.839   1.325  12.816  0.0386  0.4103  0.3837
10352TIP3    H152471   4.749   1.356  12.827 -0.2975  0.1234 -1.2651
10352TIP3    H252472   4.880   1.391  12.759  0.1133 -0.6852 -0.8900
10353TIP3   OH252473   2.350   6.703  11.873  0.5096  0.3588 -0.8587
10353TIP3    H152474   2.369   6.788  11.834 -1.6224  1.1581 -0.3168
10353TIP3    H252475   2.397   6.640  11.819 -0.1382  1.6528 -3.0377
10354TIP3   OH252476   2.689   0.523  14.115 -0.6393  0.0089 -0.6410
10354TIP3    H152477   2.722   0.583  14.182 -0.7361 -1.1179  0.4484
10354TIP3    H252478   2.765   0.502  14.061 -0.4879  0.6699 -0.6880
10355TIP3   OH252479   0.231   4.751  14.360  0.1943 -0.0359  0.6619
10355TIP3    H152480   0.305   4.799  14.323  1.2662 -1.5778  0.6890
10355TIP3    H252481   0.270   4.698  14.430 -1.0729 -0.3629  1.1453
10356TIP3   OH252482   6.497   0.423  13.614  0.0881 -0.2245  0.2672
10356TIP3    H152483   6.432   0.491  13.632 -3.2032 -3.0761 -0.0007
10356TIP3    H252484   6.495   0.366  13.691  2.1954 -0.5276  0.1572
10357TIP3   OH252485   4.133   0.558  14.590  0.1191 -0.2902  0.2122
10357TIP3    H152486   4.169   0.479  14.629  1.3871 -0.7282 -1.7469
10357TIP3    H252487   4.120   0.536  14.498 -0.0751  1.5905 -0.2480
10358TIP3   OH252488   0.046   0.871  13.693  0.2938 -0.7904 -0.6155
10358TIP3    H152489   0.125   0.819  13.679  0.1113 -1.1343 -0.3848
10358TIP3    H252490   0.054   0.944  13.631  0.0856 -1.6186 -1.6610
10359TIP3   OH252491   6.368   5.275  15.210 -0.4233  0.3094 -0.3000
10359TIP3    H152492   6.293   5.329  15.234  0.0860  0.1658  1.7439
10359TIP3    H252493   6.382   5.218  15.285  0.6498 -0.9125 -1.3688
10360TIP3   OH252494   0.183   2.031  12.138 -0.7211  0.4922  0.4076
10360TIP3    H152495   0.275   2.029  12.113 -0.2144  2.8046  1.8357
10360TIP3    H252496   0.138   2.061  12.059 -0.1023  0.5251  0.0613
10361TIP3   OH252497   5.719   2.352  16.138 -0.3547  0.7051 -0.4061
10361TIP3    H152498   5.652   2.308  16.085 -1.5552  0.5576  1.1641
10361TIP3    H252499   5.793   2.291  16.138  1.4259  2.3941 -5.2124
10362TIP3   OH252500   5.143   2.226   2.912 -0.5200 -0.3180 -0.0699
10362TIP3    H152501   5.184   2.226   2.999  0.7950 -1.0171 -0.6618
10362TIP3    H252502   5.121   2.317   2.896  1.6607  0.2426 -0.0880
10363TIP3   OH252503   5.485   0.935  12.369 -0.1160 -0.0766  0.3865
10363TIP3    H152504   5.543   0.971  12.301 -0.1930  1.4127  1.0658
10363TIP3    H252505   5.538   0.868  12.412  0.5469  0.1500 -0.0499
10364TIP3   OH252506   4.128   2.881   3.648  0.7171  0.2842  0.4329
10364TIP3    H152507   4.124   2.788   3.671 -0.8484  0.4764  1.0660
10364TIP3    H252508   4.194   2.886   3.579  1.5670 -1.1380  1.1025
10365TIP3   OH252509   2.619   5.418   2.041  0.2012 -0.2987 -0.0179
10365TIP3    H152510   2.678   5.487   2.014 -0.2316 -1.0071 -3.2599
10365TIP3    H252511   2.674   5.355   2.088  1.6319 -0.0014 -1.2280
10366TIP3   OH252512   0.230   5.252  14.818  0.2883 -0.2368 -0.1755
10366TIP3    H152513   0.194   5.164  14.827  1.0654 -0.5377  0.0859
10366TIP3    H252514   0.164   5.300  14.768 -0.0937 -0.9985 -0.4165
10367TIP3   OH252515   2.644   3.406  15.182  0.1410  0.0977 -0.3663
10367TIP3    H152516   2.709   3.352  15.138 -0.0152  1.1285 -1.9339
10367TIP3    H252517   2.560   3.370  15.153  0.0258  0.3219 -0.3124
10368TIP3   OH252518   5.859   0.694  13.727  0.5609 -0.2545  0.1938
10368TIP3    H152519   5.951   0.719  13.725  0.7623 -0.9110  0.8124
10368TIP3    H252520   5.826   0.731  13.809 -0.0163  0.9022 -0.5227
10369TIP3   OH252521   1.583   1.950  13.481 -0.3899 -0.4815  0.8460
10369TIP3    H152522   1.580   2.023  13.420 -1.1184  0.2715  1.7546
10369TIP3    H252523   1.657   1.896  13.451  1.2893  1.5247  1.1677
10370TIP3   OH252524   3.208   1.859   3.680 -0.1927 -0.0926 -0.0835
10370TIP3    H152525   3.186   1.841   3.771  0.2969 -1.1684 -0.1688
10370TIP3    H252526   3.190   1.777   3.634 -2.1259  0.9402 -1.2968
10371TIP3   OH252527   3.392   1.022  12.333 -0.0028  0.1737  0.3269
10371TIP3    H152528   3.364   0.953  12.273 -1.0696  0.6880  0.2171
10371TIP3    H252529   3.452   0.978  12.394 -1.7812 -1.2006  1.1733
10372TIP3   OH252530   5.486   1.974  11.267  0.6598  0.7598  0.2248
10372TIP3    H152531   5.421   2.027  11.221  0.8287  2.4191  1.7607
10372TIP3    H252532   5.435   1.921  11.329  0.6566  1.0656  0.4886
10373TIP3   OH252533   4.583   0.424  16.165 -0.2845  0.4636  0.3440
10373TIP3    H152534   4.518   0.359  16.138 -0.9446  0.9704  0.6992
10373TIP3    H252535   4.659   0.404  16.111 -1.1221  0.5888 -0.9271
10374TIP3   OH252536   6.451   3.786  11.841 -0.5851  0.2752  0.1135
10374TIP3    H152537   6.509   3.862  11.840 -0.6590  0.3360 -1.0060
10374TIP3    H252538   6.394   3.800  11.917  0.4573  0.5185  0.8692
10375TIP3   OH252539   5.486   6.584   2.038  0.5611 -0.0503 -0.0513
10375TIP3    H152540   5.552   6.532   1.992  1.2270  1.2475 -0.5960
10375TIP3    H252541   5.529   6.611   2.119 -0.2146 -1.3412  0.8490
10376TIP3   OH252542   5.940   4.846  12.023 -0.8299  0.1244 -0.4526
10376TIP3    H152543   6.005   4.898  12.071  0.1730  0.9070 -2.5384
10376TIP3    H252544   5.863   4.901  12.018 -0.1192  1.0484 -1.7567
10377TIP3   OH252545   6.247   2.463  14.082  0.1855  0.3361 -0.3156
10377TIP3    H152546   6.293   2.391  14.124 -0.3447  1.1786  1.8270
10377TIP3    H252547   6.206   2.512  14.154  1.0455  3.1638 -1.5939
10378TIP3   OH252548   5.903   5.535  14.043 -0.0179 -0.7686  0.3821
10378TIP3    H152549   5.939   5.621  14.021  0.2561 -1.0752 -0.3786
10378TIP3    H252550   5.855   5.508  13.965 -0.5037 -1.1050  0.7914
10379TIP3   OH252551   2.286   2.416   4.677  0.4744  0.2677 -0.0885
10379TIP3    H152552   2.246   2.351   4.620 -1.2636 -0.0470  1.3726
10379TIP3    H252553   2.371   2.378   4.700  1.0482  0.2302 -2.0754
10380TIP3   OH252554   5.499   3.222   4.156 -0.2206 -0.2097 -0.2916
10380TIP3    H152555   5.551   3.302   4.167  0.0507 -0.3680 -0.4083
10380TIP3    H252556   5.489   3.189   4.245 -1.3129  0.5588 -0.1112
10381TIP3   OH252557   1.839   2.107  14.137 -0.1356  0.0873  0.0902
10381TIP3    H152558   1.831   2.057  14.056  0.4804 -0.8277  0.5769
10381TIP3    H252559   1.776   2.067  14.197  0.4903 -0.2367  0.5431
10382TIP3   OH252560   2.184   5.600  16.370  0.1233 -0.7184 -0.0417
10382TIP3    H152561   2.243   5.531  16.400  0.0829 -1.0404 -0.6818
10382TIP3    H252562   2.208   5.613  16.278  1.3158  1.3264  0.4879
10383TIP3   OH252563   4.403   4.347   5.866  0.2354 -0.0967 -0.4243
10383TIP3    H152564   4.340   4.275   5.860  0.1561 -0.1074  0.4235
10383TIP3    H252565   4.427   4.349   5.959 -0.0861  1.2435 -0.3581
10384TIP3   OH252566   3.792   2.305   6.633  0.2146 -0.1092 -0.8877
10384TIP3    H152567   3.744   2.249   6.695  1.8673 -2.7081 -1.7806
10384TIP3    H252568   3.724   2.343   6.578 -1.2146  1.3243  1.6506
10385TIP3   OH252569   6.436   0.790  15.785  0.3710  0.1988 -0.1982
10385TIP3    H152570   6.404   0.705  15.816  1.5237 -0.4529 -0.7271
10385TIP3    H252571   6.364   0.824  15.731 -0.6576  0.2251  1.1278
10386TIP3   OH252572   3.415   3.914  14.297  0.3395 -0.5470  0.3371
10386TIP3    H152573   3.448   3.825  14.282  1.6847  0.1120 -0.9086
10386TIP3    H252574   3.464   3.945  14.373  1.7414 -0.0306 -0.7304
10387TIP3   OH252575   3.432   0.745  16.083  0.4288  0.6388  0.0969
10387TIP3    H152576   3.359   0.741  16.021  2.2783  0.9287 -2.2450
10387TIP3    H252577   3.449   0.838  16.095  2.1363  0.6109 -1.6428
10388TIP3   OH252578   0.082   4.806  15.943  0.4637 -0.7913  0.7076
10388TIP3    H152579   0.072   4.740  16.012 -0.4535 -0.7659  0.6131
10388TIP3    H252580  -0.006   4.842  15.931  0.8048 -0.0865  0.2206
10389TIP3   OH252581   5.526   1.822   4.268  0.3830 -0.6066  0.6884
10389TIP3    H152582   5.460   1.793   4.332 -1.1367  1.0738 -0.0275
10389TIP3    H252583   5.478   1.826   4.185  1.1146  1.5247  0.3130
10390TIP3   OH252584   3.762   3.804   5.275  0.3330  0.8140 -0.0225
10390TIP3    H152585   3.735   3.855   5.199 -0.4537  0.3528 -0.0621
10390TIP3    H252586   3.763   3.867   5.347  3.8676  1.9455 -0.8776
10391TIP3   OH252587   5.423   2.033   0.199  0.1372  0.1818  0.2810
10391TIP3    H152588   5.485   2.001   0.134 -1.2110 -2.2129  0.0782
10391TIP3    H252589   5.382   2.109   0.157  0.3309 -0.4329 -1.0792
10392TIP3   OH252590   0.134   4.340  16.429  0.4490 -0.0216  0.0947
10392TIP3    H152591   0.143   4.309  16.339 -0.8379  0.3849 -0.1949
10392TIP3    H252592   0.050   4.386  16.431  0.2678 -0.3357  1.5893
10393TIP3   OH252593   6.469   2.446  16.155  0.1018  0.2858  0.6461
10393TIP3    H152594   6.401   2.450  16.088  0.2136 -2.6526  0.2378
10393TIP3    H252595   6.551   2.454  16.107  0.1832  3.1290  1.0676
10394TIP3   OH252596   1.501   2.440  15.908 -0.4384 -0.7111  0.0046
10394TIP3    H152597   1.579   2.385  15.915 -0.0299 -0.2242 -0.6977
10394TIP3    H252598   1.522   2.504  15.841 -1.3456 -0.4036 -0.0005
10395TIP3   OH252599   0.476   2.342  16.193 -0.4016 -0.5665 -0.5286
10395TIP3    H152600   0.487   2.382  16.280  0.1772 -2.9860  0.5861
10395TIP3    H252601   0.382   2.324  16.187 -0.6531  0.7677 -1.0002
10396TIP3   OH252602   3.666   1.869  17.337  0.0573 -0.9190 -0.2820
10396TIP3    H152603   3.606   1.915  17.278  0.9190 -2.9707 -2.9787
10396TIP3    H252604   3.623   1.785  17.354  1.0243 -1.4045 -0.1792
10397TIP3   OH252605   2.721   2.624  12.133 -0.2324 -0.1661  0.3071
10397TIP3    H152606   2.699   2.714  12.110  3.1359  0.4465 -1.1355
10397TIP3    H252607   2.694   2.573  12.057 -1.3444 -0.2784  0.7603
10398TIP3   OH252608   3.755   1.866  12.538 -0.1103  0.2938  0.0721
10398TIP3    H152609   3.700   1.849  12.461  0.9486 -3.2099 -0.0517
10398TIP3    H252610   3.822   1.927  12.506  0.2363 -0.9842 -1.8217
10399TIP3   OH252611   2.341   5.784   2.534 -0.6567 -0.1147 -0.0747
10399TIP3    H152612   2.421   5.802   2.582 -1.1622 -0.5564  0.9593
10399TIP3    H252613   2.280   5.852   2.563 -1.1414 -0.7259  0.3438
10400TIP3   OH252614   4.971   5.387   5.491 -0.0490 -0.5679  0.1664
10400TIP3    H152615   5.000   5.369   5.402 -1.5654 -0.4189 -0.3995
10400TIP3    H252616   5.009   5.317   5.544  1.3205 -0.3443 -0.4893
10401TIP3   OH252617   4.403   6.451   0.655  0.5997  0.2921  0.2683
10401TIP3    H152618   4.432   6.429   0.743 -0.4447 -0.8910  0.3470
10401TIP3    H252619   4.332   6.389   0.637  0.9434  0.3568 -1.4878
10402TIP3   OH252620   3.637   0.239  15.324 -0.5622  0.2316 -1.0040
10402TIP3    H152621   3.710   0.295  15.297  1.0284 -1.4716 -0.4902
10402TIP3    H252622   3.622   0.181  15.249  0.5773 -1.2634 -0.1580
10403TIP3   OH252623   6.720   3.875   3.159 -0.2594 -0.1633  0.2345
10403TIP3    H152624   6.736   3.825   3.239  2.3949 -1.3711 -0.9122
10403TIP3    H252625   6.800   3.927   3.147 -0.6859  0.1597 -1.4841
10404TIP3   OH252626   0.019   1.594  15.404  0.0922  0.1504 -0.0230
10404TIP3    H152627   0.113   1.581  15.405  0.0421 -0.3229 -0.8919
10404TIP3    H252628   0.006   1.676  15.357  0.0789  0.3022  0.2448
10405TIP3   OH252629   6.164   0.751  16.601  0.1959  0.2952 -0.1698
10405TIP3    H152630   6.135   0.776  16.688 -0.5148 -0.1732 -0.2682
10405TIP3    H252631   6.234   0.814  16.580  0.6443  0.1619  0.8856
10406TIP3   OH252632   0.877   6.177   5.584  0.5698 -0.1274 -0.0521
10406TIP3    H152633   0.964   6.216   5.584  2.1454 -3.2706 -0.8199
10406TIP3    H252634   0.841   6.197   5.498  1.2822 -0.2265 -0.3783
10407TIP3   OH252635   1.044   3.591   0.003 -0.9204  0.0029 -0.8686
10407TIP3    H152636   1.026   3.566   0.094 -1.1132  0.8886 -0.6592
10407TIP3    H252637   0.963   3.568  -0.044 -1.4119  0.9774 -0.5233
10408TIP3   OH252638   1.519   0.731  11.844  0.7628 -0.5210  0.3834
10408TIP3    H152639   1.604   0.709  11.882  1.7636  0.2102 -1.3241
10408TIP3    H252640   1.494   0.653  11.794  0.8308 -0.4489  0.2344
10409TIP3   OH252641   2.832   0.246   2.493 -0.4193  0.1362  0.2699
10409TIP3    H152642   2.821   0.341   2.482 -3.0505  0.0646  1.5294
10409TIP3    H252643   2.748   0.216   2.527  0.1991 -2.7576 -0.4959
10410TIP3   OH252644   5.284   5.953   5.362  0.4316  0.1293  0.5581
10410TIP3    H152645   5.232   6.032   5.374  1.6410  1.5238 -2.3555
10410TIP3    H252646   5.229   5.895   5.309  0.9587  0.6601 -0.5909
10411TIP3   OH252647   5.482   1.803  14.307 -0.1542 -0.0467  0.1879
10411TIP3    H152648   5.487   1.838  14.396  1.1813  0.7347 -0.1615
10411TIP3    H252649   5.488   1.708  14.319  0.5278  0.0718  0.9232
10412TIP3   OH252650   1.158   6.253  12.718  0.8710  0.0656  0.9071
10412TIP3    H152651   1.136   6.179  12.775  1.4277 -0.5080  0.4057
10412TIP3    H252652   1.172   6.326  12.777  2.0017 -0.6613  1.5831
10413TIP3   OH252653   0.256   6.617  14.427  0.3114 -0.2969 -0.1945
10413TIP3    H152654   0.212   6.623  14.511 -1.2837 -0.0561 -1.0062
10413TIP3    H252655   0.212   6.544  14.382  0.0015  0.6177 -1.4379
10414TIP3   OH252656   0.511   3.482   0.650  0.4748 -0.5417 -0.1055
10414TIP3    H152657   0.559   3.519   0.576  1.4327  0.1525  0.8311
10414TIP3    H252658   0.521   3.547   0.720 -0.1817 -1.3028  0.7267
10415TIP3   OH252659   2.321   4.998  11.115 -0.6945 -0.2653 -0.5014
10415TIP3    H152660   2.277   4.917  11.138 -1.4378  0.5415  1.0666
10415TIP3    H252661   2.260   5.042  11.055 -0.3353 -0.7907 -1.2731
10416TIP3   OH252662   5.417   2.873   4.997  0.0566  0.2071  0.7860
10416TIP3    H152663   5.389   2.828   4.917  0.1690  1.5821 -0.0635
10416TIP3    H252664   5.420   2.966   4.972  1.2868  0.5340  2.0426
10417TIP3   OH252665   0.964   3.975  16.456 -0.4973 -0.3736  0.1896
10417TIP3    H152666   1.037   3.970  16.518 -0.6782 -0.0920  0.4306
10417TIP3    H252667   0.890   3.940  16.505 -0.4373 -1.0677 -0.1971
10418TIP3   OH252668   1.109   0.778  12.673 -0.3332  0.0692 -0.2485
10418TIP3    H152669   1.067   0.835  12.738 -2.6452  0.8513 -2.2910
10418TIP3    H252670   1.068   0.692  12.687  0.4569 -0.2100  0.4281
10419TIP3   OH252671   3.295   6.734  16.210  0.0165 -0.1092 -0.1955
10419TIP3    H152672   3.385   6.764  16.224 -0.1488 -0.0736  0.9546
10419TIP3    H252673   3.286   6.729  16.115  0.6920  1.5822 -0.4051
10420TIP3   OH252674   2.528   0.665   1.816  0.3233 -0.5198  0.9347
10420TIP3    H152675   2.598   0.610   1.850  0.9440  0.8055  1.8537
10420TIP3    H252676   2.559   0.691   1.729 -0.7550 -2.9674 -0.2859
10421TIP3   OH252677   1.887   3.588  13.715 -0.4226 -0.0602  0.1097
10421TIP3    H152678   1.852   3.571  13.803 -0.1613  0.6827  0.3691
10421TIP3    H252679   1.933   3.508  13.692 -1.1660 -0.5594  0.3158
10422TIP3   OH252680   2.788   2.563   0.030 -0.1488 -0.0060  0.3936
10422TIP3    H152681   2.773   2.468   0.028  1.3487 -0.3010  1.5103
10422TIP3    H252682   2.818   2.580   0.119  0.6033  1.3573 -0.1037
10423TIP3   OH252683   1.205   4.320   3.462  0.2769 -0.0929  0.1982
10423TIP3    H152684   1.137   4.349   3.401  1.0458  0.6658 -0.3278
10423TIP3    H252685   1.259   4.398   3.476  0.4246 -0.3902  1.4574
10424TIP3   OH252686   1.876   1.629  13.566 -0.2056 -0.2444  0.1871
10424TIP3    H152687   1.971   1.620  13.552 -0.0022 -0.0734  1.3239
10424TIP3    H252688   1.844   1.673  13.487  0.5233 -1.0429 -0.5744
10425TIP3   OH252689   5.399   6.109   4.832 -0.2667  0.0408 -0.2702
10425TIP3    H152690   5.418   6.097   4.739  0.8004  0.2619 -0.0968
10425TIP3    H252691   5.324   6.052   4.848 -0.8826  0.4888 -1.4011
10426TIP3   OH252692   3.350   4.201   0.905  0.0586  0.4049 -0.2911
10426TIP3    H152693   3.258   4.178   0.893 -0.3257  0.7776  1.5644
10426TIP3    H252694   3.379   4.144   0.976  0.7061  1.6232  0.4411
10427TIP3   OH252695   2.680   2.553  11.583  0.3168 -0.8310  0.2408
10427TIP3    H152696   2.682   2.467  11.542 -1.4836 -0.3121 -1.0898
10427TIP3    H252697   2.591   2.586  11.565  1.7988  2.5204 -1.9375
10428TIP3   OH252698   4.573   3.426  15.664  0.1194  0.6681 -0.8542
10428TIP3    H152699   4.655   3.411  15.616  0.7947  0.6419  0.2769
10428TIP3    H252700   4.510   3.451  15.596 -0.2259 -3.7545 -2.5009
10429TIP3   OH252701   0.139   1.416   4.916  0.5280 -0.6457 -0.0732
10429TIP3    H152702   0.171   1.428   5.006 -0.7197 -0.6642  0.3968
10429TIP3    H252703   0.135   1.504   4.880 -1.1629 -0.3399  0.7133
10430TIP3   OH252704   3.722   5.213   2.632  0.3306 -0.4738 -0.4255
10430TIP3    H152705   3.636   5.240   2.666  0.8245  1.3561 -0.5260
10430TIP3    H252706   3.709   5.205   2.538 -0.7211 -4.3322 -0.1321
10431TIP3   OH252707   3.375   2.259  14.184  0.3359  0.4381 -0.0067
10431TIP3    H152708   3.293   2.226  14.146  0.1853  1.4313 -0.5795
10431TIP3    H252709   3.438   2.255  14.112  0.2813  1.4877 -0.1250
10432TIP3   OH252710   2.997   1.999  11.245 -0.5492  0.6319  0.6220
10432TIP3    H152711   2.902   2.013  11.246 -0.6532  0.1272 -0.7795
10432TIP3    H252712   3.022   2.013  11.154  0.3269 -1.7501  0.4401
10433TIP3   OH252713   4.821   6.046  12.199  0.5256 -0.1341 -0.2693
10433TIP3    H152714   4.793   6.117  12.142 -0.4481  0.9892  1.5176
10433TIP3    H252715   4.749   5.982  12.194  0.3738  0.0300 -0.1952
10434TIP3   OH252716   4.270   3.782   1.789 -0.2769 -0.5235 -0.1493
10434TIP3    H152717   4.326   3.792   1.712  1.7107  1.4859  1.4179
10434TIP3    H252718   4.331   3.766   1.861 -1.8302  0.3112  1.4273
10435TIP3   OH252719   0.439   1.499  13.552 -0.0463 -0.1610 -0.2321
10435TIP3    H152720   0.448   1.568  13.617 -0.1251  0.2962 -0.7068
10435TIP3    H252721   0.524   1.456  13.550  0.4158  0.7729 -0.8992
10436TIP3   OH252722   4.015   1.224  14.883  0.2525 -0.4000 -0.3160
10436TIP3    H152723   3.988   1.134  14.902  0.3081 -0.4406 -0.4287
10436TIP3    H252724   4.005   1.270  14.967  1.4393 -0.8101  0.0775
10437TIP3   OH252725   5.780   2.666   5.616  0.3064 -0.2741 -0.2912
10437TIP3    H152726   5.813   2.580   5.591  1.2620  0.4885 -1.9001
10437TIP3    H252727   5.859   2.722   5.618 -0.4189  0.7944 -0.4843
10438TIP3   OH252728   0.459   2.919  15.389 -0.4469 -0.2520 -0.0628
10438TIP3    H152729   0.494   2.925  15.300 -0.9561 -1.3359 -0.3581
10438TIP3    H252730   0.441   2.825  15.401 -2.2968  0.1311  0.4372
10439TIP3   OH252731   2.616   0.269   4.597 -0.3684  0.0410  0.1078
10439TIP3    H152732   2.682   0.306   4.539  0.3083 -1.4526 -0.1004
10439TIP3    H252733   2.552   0.340   4.607  0.5666  1.0543 -0.7490
10440TIP3   OH252734   3.890   4.060   3.531 -0.1209  0.2860 -0.6190
10440TIP3    H152735   3.918   4.118   3.602  0.3015 -0.3993 -0.2180
10440TIP3    H252736   3.834   3.995   3.574 -0.2096  0.1175 -0.9885
10441TIP3   OH252737   3.951   0.644  12.368  0.1031  0.1582  0.6211
10441TIP3    H152738   3.883   0.711  12.370 -0.0652  0.1488 -1.8385
10441TIP3    H252739   3.906   0.564  12.342  0.8719 -0.0459 -0.1437
10442TIP3   OH252740   0.473   1.452  14.867  0.4070 -0.3555 -0.0399
10442TIP3    H152741   0.397   1.413  14.824  0.7289 -1.1666  0.0886
10442TIP3    H252742   0.437   1.517  14.927 -0.1183 -0.0810 -0.6443
10443TIP3   OH252743   1.383   6.336   5.114 -0.0351  0.0267 -0.9500
10443TIP3    H152744   1.385   6.250   5.155  0.1688  0.8935  1.0189
10443TIP3    H252745   1.297   6.371   5.135  0.1315  0.5560 -1.1290
10444TIP3   OH252746   4.247   3.644  14.051  0.5715  0.1152 -0.4951
10444TIP3    H152747   4.194   3.637  13.971 -1.1757 -0.6922  0.6737
10444TIP3    H252748   4.183   3.654  14.121  2.0753  0.8167  0.8259
10445TIP3   OH252749   5.814   6.616   4.218  0.1553  0.2543  0.3010
10445TIP3    H152750   5.759   6.685   4.181 -0.1990 -0.1235  0.1059
10445TIP3    H252751   5.866   6.585   4.144  0.0299  0.0472  0.2979
10446TIP3   OH252752   6.517   2.191   2.517 -0.2602 -0.2520 -0.4689
10446TIP3    H152753   6.510   2.253   2.590 -0.8366 -0.4310 -0.3671
10446TIP3    H252754   6.542   2.244   2.442 -1.1573  0.1740 -0.4762
10447TIP3   OH252755   2.734   4.735   1.764  0.1900  0.7492 -0.6396
10447TIP3    H152756   2.779   4.661   1.723  0.2338 -0.0195  0.7320
10447TIP3    H252757   2.644   4.705   1.776  0.2776  0.8007  0.1817
10448TIP3   OH252758   0.346   2.260  12.420 -0.1478 -0.3000  0.3677
10448TIP3    H152759   0.434   2.277  12.454 -0.2487 -1.6540  1.3745
10448TIP3    H252760   0.358   2.257  12.325  0.6504  0.7740  0.4076
10449TIP3   OH252761   0.198   3.042   2.035  0.5003 -0.0023  0.4720
10449TIP3    H152762   0.137   3.043   2.109 -0.4811  0.3944 -0.3189
10449TIP3    H252763   0.152   3.091   1.966  0.1108 -2.8164 -1.3948
10450TIP3   OH252764   2.330   5.364  16.462  0.0155  0.4284  0.3613
10450TIP3    H152765   2.356   5.277  16.431  1.4147  1.3348 -1.2374
10450TIP3    H252766   2.309   5.352  16.554  1.0914 -1.4341  0.4171
10451TIP3   OH252767   5.105   4.444   6.011 -0.1617 -0.1094  0.4338
10451TIP3    H152768   5.072   4.424   5.923  0.8405 -0.6420  0.1710
10451TIP3    H252769   5.177   4.383   6.024  1.2532  1.5666  0.6857
10452TIP3   OH252770   0.174   3.218  15.325  0.1404  0.2223 -0.4116
10452TIP3    H152771   0.113   3.203  15.253  0.8158  1.8846 -1.3675
10452TIP3    H252772   0.209   3.306  15.310  3.7231 -1.0612 -0.6419
10453TIP3   OH252773   2.572   3.828  12.915  0.5301  0.0547 -0.2529
10453TIP3    H152774   2.649   3.883  12.930 -0.1666  0.8472  0.5918
10453TIP3    H252775   2.607   3.740  12.905  1.6710  0.6132 -1.4857
10454TIP3   OH252776   2.230   5.159   0.022 -0.3117  0.0520  0.3477
10454TIP3    H152777   2.194   5.227  -0.035 -0.2213  0.9634  1.3501
10454TIP3    H252778   2.298   5.203   0.072  1.1780 -1.2818 -0.4193
10455TIP3   OH252779   4.365   4.694  11.261  0.5067  0.1168 -0.6177
10455TIP3    H152780   4.276   4.702  11.294  0.5936  2.3718 -0.8049
10455TIP3    H252781   4.365   4.612  11.211 -1.6966  0.4956 -1.3479
10456TIP3   OH252782   2.373   0.769  13.330 -0.0239 -0.1036  0.7696
10456TIP3    H152783   2.417   0.853  13.319 -1.8143  0.7208 -0.5942
10456TIP3    H252784   2.390   0.722  13.248 -1.0203 -0.0741  0.5334
10457TIP3   OH252785   0.743   1.049   5.436  0.0902  0.3577  0.2191
10457TIP3    H152786   0.801   1.091   5.372  0.4491  0.8009  0.8319
10457TIP3    H252787   0.663   1.031   5.386  0.2176  1.0656 -0.2574
10458TIP3   OH252788   3.200   3.109   1.530 -0.1978  0.3530 -0.2312
10458TIP3    H152789   3.293   3.119   1.550 -0.2351 -3.2406  2.6697
10458TIP3    H252790   3.199   3.068   1.443  1.0500 -0.8767  0.2989
10459TIP3   OH252791   0.682   0.704  15.012 -0.0171  0.1903  0.2538
10459TIP3    H152792   0.765   0.734  15.049  1.6448 -2.2578 -1.1331
10459TIP3    H252793   0.696   0.708  14.917 -1.6166  0.0321 -0.0098
10460TIP3   OH252794   2.093   1.254   3.045  0.0653  0.0665 -0.1659
10460TIP3    H152795   2.028   1.203   3.093 -0.9724  1.1393 -0.3986
10460TIP3    H252796   2.072   1.346   3.065  1.1684  0.4537 -0.6795
10461TIP3   OH252797   3.069   6.768   1.086  0.2843 -0.3377  0.2516
10461TIP3    H152798   3.040   6.685   1.046  0.4186 -0.4721  0.4338
10461TIP3    H252799   3.127   6.806   1.021  0.5788 -0.6029  0.3565
10462TIP3   OH252800   3.857   2.764   4.444 -0.2182  0.3259  0.0458
10462TIP3    H152801   3.875   2.850   4.405  2.5187 -0.0633  0.2339
10462TIP3    H252802   3.883   2.701   4.376  0.3780 -0.3338  0.8647
10463TIP3   OH252803   1.588   1.184  13.195 -0.3390  0.2067  0.2965
10463TIP3    H152804   1.522   1.233  13.146 -0.0920  0.3388  0.0926
10463TIP3    H252805   1.565   1.093  13.181  0.3563  0.2073 -0.9622
10464TIP3   OH252806   3.799   0.269  11.286  0.4705  0.5106 -0.5640
10464TIP3    H152807   3.749   0.251  11.367  1.2497 -2.7444 -0.6466
10464TIP3    H252808   3.889   0.246  11.309  0.6175 -0.9961 -2.4264
10465TIP3   OH252809   3.040   5.365   3.133  0.5463  0.4283  0.9006
10465TIP3    H152810   3.029   5.401   3.045 -0.3223 -0.4457  0.6242
10465TIP3    H252811   3.017   5.436   3.192 -0.4997  0.5351  0.3826
10466TIP3   OH252812   4.280   1.018   0.675  0.2816 -0.7461 -0.3334
10466TIP3    H152813   4.219   0.988   0.607  0.1164  0.0291 -0.5374
10466TIP3    H252814   4.278   1.114   0.668  0.4874 -0.6707  0.5720
10467TIP3   OH252815   0.846   1.307   6.087  0.5176  0.1125 -0.6403
10467TIP3    H152816   0.841   1.352   6.002  0.1402 -1.6777 -1.6197
10467TIP3    H252817   0.759   1.318   6.125  0.3276 -0.0399 -1.0212
10468TIP3   OH252818   3.929   0.972   4.063 -0.0024  0.5674  0.1479
10468TIP3    H152819   4.000   0.908   4.066 -0.7390 -0.2443  0.3241
10468TIP3    H252820   3.917   0.990   3.970  0.9141  1.2630  0.1472
10469TIP3   OH252821   0.193   0.227   4.549  0.6507  0.5624  0.7883
10469TIP3    H152822   0.164   0.313   4.518  0.4662 -0.0665 -0.8946
10469TIP3    H252823   0.266   0.246   4.608  0.4923  1.8794  0.5855
10470TIP3   OH252824   4.359   3.883   4.494  0.5899 -0.6622 -0.1105
10470TIP3    H152825   4.266   3.898   4.478  0.5906 -0.6115 -0.0671
10470TIP3    H252826   4.364   3.855   4.585  0.8287  1.4645  0.5864
10471TIP3   OH252827   1.197   4.827  16.507  0.2654 -0.3623  0.2490
10471TIP3    H152828   1.268   4.770  16.538 -0.1117 -0.6161  0.6547
10471TIP3    H252829   1.177   4.883  16.582 -0.8118 -1.1331  0.5588
10472TIP3   OH252830   1.421   4.718   2.606 -0.3251  0.1995  0.1451
10472TIP3    H152831   1.470   4.640   2.582 -2.1537 -0.9684  0.0553
10472TIP3    H252832   1.334   4.705   2.569 -1.2193  1.4621  1.6421
10473TIP3   OH252833   5.322   3.811  11.575 -0.9000 -0.0942  0.1018
10473TIP3    H152834   5.308   3.887  11.518 -0.3949  0.7207  1.0447
10473TIP3    H252835   5.296   3.840  11.662  1.4366 -0.2434  0.9076
10474TIP3   OH252836   1.550   6.392  13.416  0.1162  0.0339 -0.3423
10474TIP3    H152837   1.530   6.474  13.371  0.3104  0.5727  0.5305
10474TIP3    H252838   1.502   6.325  13.367  0.7760  0.5121 -1.6957
10475TIP3   OH252839   0.886   2.178   1.655  0.0676  0.1168 -0.2263
10475TIP3    H152840   0.815   2.213   1.709 -1.8880  1.1743 -3.2087
10475TIP3    H252841   0.879   2.083   1.665 -0.2394  0.2723  1.2867
10476TIP3   OH252842   1.728   2.515   1.465 -0.2883  0.1329  0.0424
10476TIP3    H152843   1.748   2.606   1.440 -0.3692 -0.1782 -1.1981
10476TIP3    H252844   1.812   2.481   1.496 -0.2671  0.6417  0.5683
10477TIP3   OH252845   1.786   4.788  16.971  0.1945  0.3474  0.0735
10477TIP3    H152846   1.703   4.742  16.984 -0.5667  1.1119 -1.7252
10477TIP3    H252847   1.838   4.766  17.049 -1.3102 -0.9389  0.7809
10478TIP3   OH252848   6.615   2.281   2.828 -0.4563 -0.5941  0.1285
10478TIP3    H152849   6.660   2.240   2.902 -1.2293  0.4257  1.1795
10478TIP3    H252850   6.676   2.347   2.796  0.1887 -1.5390 -0.6469
10479TIP3   OH252851   0.224   5.399  15.643 -0.0405  0.2643  0.0686
10479TIP3    H152852   0.238   5.309  15.675  0.8111  0.3587 -0.0180
10479TIP3    H252853   0.200   5.448  15.722  1.3330  0.3422  0.4665
10480TIP3   OH252854   2.773   2.137  14.344 -0.2041 -0.0807  0.0494
10480TIP3    H152855   2.868   2.131  14.332 -0.1087  0.8563  0.3079
10480TIP3    H252856   2.761   2.208  14.406 -1.1458  0.6808 -0.9663
10481TIP3   OH252857   5.072   3.177   0.927 -0.4440 -0.4994 -0.4172
10481TIP3    H152858   5.074   3.273   0.933 -1.4353 -0.4377 -0.8836
10481TIP3    H252859   4.992   3.152   0.973  0.0073 -1.1471  0.0374
10482TIP3   OH252860   3.140   5.772  12.864  0.4129 -0.2582  0.9041
10482TIP3    H152861   3.141   5.700  12.927  2.0397 -1.8623 -0.8122
10482TIP3    H252862   3.198   5.742  12.794  0.8211  2.5891 -0.0768
10483TIP3   OH252863   1.786   1.710  12.048 -0.5649 -0.2736 -0.2046
10483TIP3    H152864   1.767   1.619  12.072 -0.7473 -0.4128 -0.8736
10483TIP3    H252865   1.881   1.717  12.056 -0.6128 -0.3396  0.4776
10484TIP3   OH252866   2.218   1.813   2.022 -0.5876 -0.2184 -0.0142
10484TIP3    H152867   2.193   1.734   2.070  1.5553 -0.5369  0.6712
10484TIP3    H252868   2.199   1.885   2.082 -2.0484 -0.2347 -0.4343
10485TIP3   OH252869   5.003   3.762   6.070  0.2470  0.1337  0.0392
10485TIP3    H152870   4.912   3.741   6.047  0.5923  0.9577 -2.3711
10485TIP3    H252871   4.996   3.846   6.116 -0.1989  0.4470 -0.5735
10486TIP3   OH252872   3.011   1.723   2.027  0.0488 -0.1529 -0.2802
10486TIP3    H152873   3.086   1.668   2.006 -0.5260 -2.3449  2.7177
10486TIP3    H252874   2.944   1.700   1.962  0.4932 -1.6200 -0.2541
10487TIP3   OH252875   4.378   1.209   5.281  0.1133  0.2819  0.3918
10487TIP3    H152876   4.443   1.270   5.315 -0.7619  1.6307 -0.3015
10487TIP3    H252877   4.308   1.209   5.346 -0.4598  1.0172 -0.2017
10488TIP3   OH252878   3.128   4.759  11.169 -0.3096 -0.1558 -0.1043
10488TIP3    H152879   3.172   4.826  11.116  0.1958  0.3929  0.9885
10488TIP3    H252880   3.145   4.677  11.122 -0.1655  0.3527 -0.9716
10489TIP3   OH252881   0.231   5.619  13.721  0.1092 -0.3157  0.4028
10489TIP3    H152882   0.295   5.624  13.792  0.6049 -3.5172  0.2972
10489TIP3    H252883   0.283   5.626  13.641 -0.1701  0.8643  0.3053
10490TIP3   OH252884   3.759   0.942  13.450  0.4812  0.4057  0.5333
10490TIP3    H152885   3.747   0.858  13.406 -1.9150  0.6974  0.5018
10490TIP3    H252886   3.848   0.938  13.484 -0.1419 -3.0284  2.2740
10491TIP3   OH252887   1.640   1.694  17.186 -0.1656  0.5560  0.1340
10491TIP3    H152888   1.620   1.762  17.251  0.1541  0.1850  0.6258
10491TIP3    H252889   1.594   1.616  17.218  1.7447 -0.2424  1.1368
10492TIP3   OH252890   2.344   3.011   1.949  0.3257  0.4902 -0.2879
10492TIP3    H152891   2.287   3.086   1.966 -0.9278 -0.7566  1.3190
10492TIP3    H252892   2.284   2.938   1.932  1.4053 -0.8084  1.1906
10493TIP3   OH252893   6.434   1.312  12.063 -0.2073  0.0572 -0.1275
10493TIP3    H152894   6.437   1.222  12.029  0.1077  0.0775 -0.1538
10493TIP3    H252895   6.507   1.317  12.124 -0.5976  0.1112  0.3443
10494TIP3   OH252896   4.170   4.727   4.112 -0.1434  1.0576 -0.1078
10494TIP3    H152897   4.265   4.732   4.124 -0.1973  0.2473  0.7608
10494TIP3    H252898   4.151   4.792   4.044  1.2894 -0.1363 -1.7348
10495TIP3   OH252899   1.148   0.657  14.074  0.4856  0.0098  0.0364
10495TIP3    H152900   1.087   0.584  14.070  0.4347  0.1089 -1.3133
10495TIP3    H252901   1.185   0.653  14.163 -2.0108  0.4043  1.1870
10496TIP3   OH252902   4.601   2.416  13.470 -0.0743  0.7136  0.0109
10496TIP3    H152903   4.594   2.487  13.406 -0.4899  1.3994  0.7942
10496TIP3    H252904   4.695   2.405  13.482  0.0487 -0.0854 -1.4116
10497TIP3   OH252905   1.887   0.978   1.626 -0.5494  0.3831  0.1058
10497TIP3    H152906   1.899   0.995   1.720 -2.8006 -0.8556  0.6785
10497TIP3    H252907   1.839   0.896   1.622 -0.1292  0.1850 -2.1831
10498TIP3   OH252908   3.723   0.209  14.639  0.2333  0.2887  0.0520
10498TIP3    H152909   3.756   0.295  14.663  2.1700 -0.3501 -0.1641
10498TIP3    H252910   3.684   0.175  14.719  0.7875  0.7742  0.5382
10499TIP3   OH252911   1.496   0.389   1.098 -0.3729 -0.2403 -0.2291
10499TIP3    H152912   1.548   0.343   1.164 -1.0397 -0.1970  0.3404
10499TIP3    H252913   1.405   0.373   1.124 -0.6212  1.3609 -0.0514
10500TIP3   OH252914   4.733   4.679   6.594  0.0869 -0.0128  0.5995
10500TIP3    H152915   4.677   4.667   6.670 -0.1018 -0.6756  0.3644
10500TIP3    H252916   4.746   4.590   6.560  0.7424  0.2030  0.2730
10501TIP3   OH252917   5.630   4.435   3.173 -0.0604 -0.4971  0.3491
10501TIP3    H152918   5.602   4.526   3.164 -0.4229 -0.4042  1.9835
10501TIP3    H252919   5.573   4.387   3.113 -0.8680  0.1937  0.5304
10502TIP3   OH252920   2.448   2.006  13.356  0.0566  0.2698  0.3077
10502TIP3    H152921   2.521   1.961  13.399 -2.3020 -4.7894 -0.2127
10502TIP3    H252922   2.472   2.007  13.263 -0.2508 -0.9448  0.1977
10503TIP3   OH252923   2.840   4.349  15.162 -0.6928 -0.0509 -0.4194
10503TIP3    H152924   2.914   4.359  15.102 -0.5474  0.2990 -0.1880
10503TIP3    H252925   2.764   4.377  15.111 -0.5524  0.3661 -0.4039
10504TIP3   OH252926   3.058   4.701  16.015  0.8910 -0.2845 -0.0648
10504TIP3    H152927   3.021   4.690  16.103 -0.5905  1.0788 -0.4631
10504TIP3    H252928   3.138   4.752  16.029  0.1548  0.7743  0.4401
10505TIP3   OH252929   3.290   2.144  15.908 -0.3072  0.2425 -0.0687
10505TIP3    H152930   3.261   2.079  15.972  0.1836  0.6890  0.6183
10505TIP3    H252931   3.377   2.114  15.880  0.3283  1.0727  0.9437
10506TIP3   OH252932   2.888   5.479   2.388 -0.3936 -0.4692 -0.2955
10506TIP3    H152933   2.939   5.440   2.459 -0.5696 -0.6022 -0.2410
10506TIP3    H252934   2.927   5.444   2.308 -0.1098 -0.2138 -0.2675
10507TIP3   OH252935   1.648   6.268  11.446 -0.2506 -0.5518 -0.0292
10507TIP3    H152936   1.573   6.237  11.496  1.1432  0.0686  2.6810
10507TIP3    H252937   1.660   6.203  11.377 -2.9570 -0.8765 -0.3034
10508TIP3   OH252938   1.048   3.129  17.255  0.1641 -0.5440  0.4195
10508TIP3    H152939   0.970   3.185  17.255  1.0199  0.6980  1.4359
10508TIP3    H252940   1.082   3.136  17.344  0.7655 -2.0600  0.3424
10509TIP3   OH252941   2.571   0.086   4.400  0.5607 -0.7593  0.3194
10509TIP3    H152942   2.614   0.015   4.446  1.5389  0.5871  1.5725
10509TIP3    H252943   2.575   0.160   4.461  0.7663  0.7413 -1.4311
10510TIP3   OH252944   6.479   2.998  15.502 -0.3464 -0.1295 -0.0423
10510TIP3    H152945   6.491   2.903  15.505  0.3159 -0.0246  0.9470
10510TIP3    H252946   6.396   3.014  15.548 -1.3003 -0.3474 -1.6260
10511TIP3   OH252947   6.694   3.170  15.546 -0.5830 -0.5191  0.5900
10511TIP3    H152948   6.621   3.109  15.536 -0.8007 -0.0506 -0.9339
10511TIP3    H252949   6.718   3.193  15.456  1.2857 -0.4766  1.0752
10512TIP3   OH252950   6.308   4.477   4.048 -0.9255  0.4432 -0.4821
10512TIP3    H152951   6.233   4.517   4.003 -1.6946 -0.4946 -0.0533
10512TIP3    H252952   6.269   4.420   4.114  0.0597 -2.5408 -2.2936
10513TIP3   OH252953   1.692   4.972   1.033 -0.3167  0.4397 -0.2284
10513TIP3    H152954   1.699   5.064   1.006 -1.3171  0.3262 -0.8896
10513TIP3    H252955   1.650   4.928   0.960 -0.9758 -0.3186  0.5870
10514TIP3   OH252956   6.398   1.439  15.554  1.1918 -0.0432 -0.4385
10514TIP3    H152957   6.460   1.429  15.482  1.2266  1.7521 -0.6906
10514TIP3    H252958   6.452   1.441  15.633  1.2629 -0.6037 -0.4675
10515TIP3   OH252959   2.938   4.413   0.696 -0.0201  0.0860  1.0647
10515TIP3    H152960   2.865   4.419   0.635  0.4271  0.3898  0.5565
10515TIP3    H252961   2.907   4.460   0.774 -0.8634 -0.9131  1.3715
10516TIP3   OH252962   1.886   0.674   5.986  0.1222 -0.1999 -0.6896
10516TIP3    H152963   1.795   0.662   5.957  0.7329 -2.2512 -1.9629
10516TIP3    H252964   1.895   0.769   5.995 -2.7610  0.0078  1.7096
10517TIP3   OH252965   1.683   5.154   5.668 -0.4040 -0.0592  0.1540
10517TIP3    H152966   1.665   5.243   5.698 -3.1033 -0.3303 -0.3793
10517TIP3    H252967   1.646   5.097   5.736  1.4161 -0.8181  0.5639
10518TIP3   OH252968   6.538   5.817  11.974 -0.4008  0.8345  0.5413
10518TIP3    H152969   6.453   5.860  11.979 -1.0280 -0.4944  1.7914
10518TIP3    H252970   6.571   5.839  11.886 -1.7978  1.7486  0.2203
10519TIP3   OH252971   1.163   3.034   3.524  0.5663  0.2003 -0.5590
10519TIP3    H152972   1.203   2.948   3.539  2.3487  1.3082  1.8521
10519TIP3    H252973   1.077   3.015   3.488  0.1496 -2.7209  1.6012
10520TIP3   OH252974   2.032   5.187   4.134  0.9759 -0.2117 -0.4877
10520TIP3    H152975   1.984   5.131   4.194  1.0277 -1.0483 -1.2021
10520TIP3    H252976   1.983   5.270   4.133  0.2561 -0.6313 -0.2773
10521TIP3   OH252977   3.803   6.101   4.388 -0.3200 -0.4181 -0.5039
10521TIP3    H152978   3.743   6.042   4.433 -0.5811 -0.7635 -1.3089
10521TIP3    H252979   3.755   6.132   4.312  0.5116 -0.6881 -1.1516
10522TIP3   OH252980   0.298   6.243   4.723 -0.1487  0.0811  0.2600
10522TIP3    H152981   0.373   6.276   4.674 -0.7005  2.8899  1.1277
10522TIP3    H252982   0.309   6.148   4.722  1.6151  0.2063 -2.4132
10523TIP3   OH252983   1.321   0.165  16.826  0.1582 -0.1842 -0.6738
10523TIP3    H152984   1.302   0.127  16.912 -2.4349  0.2630 -0.9628
10523TIP3    H252985   1.321   0.259  16.841  1.1282 -0.1346 -0.9339
10524TIP3   OH252986   4.427   5.396   0.122  0.6673 -0.0817  0.3001
10524TIP3    H152987   4.354   5.439   0.168  1.5120  1.0465  0.6421
10524TIP3    H252988   4.416   5.421   0.031  0.3928 -0.2618  0.2826
10525TIP3   OH252989   5.040   5.770  13.156  0.0556  0.5063 -0.0247
10525TIP3    H152990   5.042   5.701  13.089 -0.9400  1.1911 -0.7906
10525TIP3    H252991   5.001   5.728  13.232 -0.7953  0.2883 -0.5682
10526TIP3   OH252992   6.697   6.197   0.305  0.0801 -0.8130 -0.2369
10526TIP3    H152993   6.760   6.187   0.377 -0.1955 -2.3213 -0.1691
10526TIP3    H252994   6.612   6.188   0.347 -0.1496  0.1477 -0.4873
10527TIP3   OH252995   4.331   2.996   2.224  0.3211 -0.3837 -0.0078
10527TIP3    H152996   4.424   3.020   2.222 -0.6024  4.3101  0.8033
10527TIP3    H252997   4.314   2.976   2.316  0.4735 -1.1943 -0.1480
10528TIP3   OH252998   1.263   3.513   2.934  0.1325  0.0534  0.3556
10528TIP3    H152999   1.249   3.484   2.844 -0.4482 -1.5080  0.9148
10528TIP3    H253000   1.304   3.599   2.925  2.3152 -1.0676 -1.4083
10529TIP3   OH253001   0.975   0.791   6.267  0.3991 -0.4106  0.2715
10529TIP3    H153002   1.050   0.766   6.214  0.0982  0.4414 -0.5903
10529TIP3    H253003   1.011   0.848   6.335  0.5797 -0.1816 -0.0093
10530TIP3   OH253004   0.849   2.163   4.779  0.1624  0.5215  0.0940
10530TIP3    H153005   0.800   2.161   4.861  1.8729  0.8584  1.1855
10530TIP3    H253006   0.904   2.085   4.782  0.6794  0.8522 -0.4483
10531TIP3   OH253007   3.945   3.665  13.336 -0.3797  0.1354  0.2854
10531TIP3    H153008   3.865   3.689  13.289 -1.4277  1.8890  2.7366
10531TIP3    H253009   3.915   3.603  13.403  0.6195 -0.4225  0.2331
10532TIP3   OH253010   4.411   3.924   7.009 -0.1797 -0.4032  0.4645
10532TIP3    H153011   4.437   3.850   6.954 -0.7082 -0.8732  0.8410
10532TIP3    H253012   4.459   3.998   6.973  0.3357 -0.9218  0.0647
10533TIP3   OH253013   0.875   2.171  16.638  0.2695 -0.0087  0.2679
10533TIP3    H153014   0.911   2.186  16.550  0.0197 -1.1519 -0.0497
10533TIP3    H253015   0.951   2.178  16.696  0.6640 -0.4597 -0.1802
10534TIP3   OH253016   4.730   3.394  14.217 -0.5561  0.5223 -0.1300
10534TIP3    H153017   4.682   3.425  14.140 -2.9614 -2.6516 -0.1133
10534TIP3    H253018   4.787   3.324  14.184 -0.1717  0.4297  0.6954
10535TIP3   OH253019   2.995   5.543   0.307  0.3019  0.3601  0.3521
10535TIP3    H153020   3.024   5.584   0.388  3.3928 -1.8162  0.5232
10535TIP3    H253021   2.951   5.463   0.334 -0.2975  0.5326 -0.0916
10536TIP3   OH253022   0.471   3.570   1.987 -0.7688 -0.5203  0.9050
10536TIP3    H153023   0.390   3.595   2.031 -0.6609 -0.4058  1.0414
10536TIP3    H253024   0.452   3.580   1.894 -1.1404 -1.1882  0.8982
10537TIP3   OH253025   4.094   3.097   3.828  0.0968 -0.4842 -0.2401
10537TIP3    H153026   4.186   3.116   3.849 -0.3282  1.0768  0.3392
10537TIP3    H253027   4.099   3.031   3.759  1.6520 -0.5951 -0.0701
10538TIP3   OH253028   1.623   1.687  15.429 -0.4010  0.5633  0.3483
10538TIP3    H153029   1.651   1.608  15.382 -1.7989 -2.5579  4.1930
10538TIP3    H253030   1.542   1.712  15.385  0.4034  0.3003 -1.3609
10539TIP3   OH253031   6.488   1.160   1.343  0.4744 -0.0442  0.0579
10539TIP3    H153032   6.430   1.172   1.267 -0.0285  2.6708  0.7800
10539TIP3    H253033   6.565   1.117   1.307  1.2399  3.1478 -2.5744
10540TIP3   OH253034   0.392   2.275  14.025 -0.2775  0.4091 -0.0424
10540TIP3    H153035   0.334   2.205  14.056  0.9005 -0.0905  1.1311
10540TIP3    H253036   0.378   2.276  13.930 -0.1058 -1.6594 -0.1485
10541TIP3   OH253037   0.411   6.015   3.619  0.2880  0.0192 -0.1557
10541TIP3    H153038   0.323   6.055   3.619  0.0073 -0.5925 -0.1706
10541TIP3    H253039   0.428   5.994   3.710  1.1895  1.7670  0.1343
10542TIP3   OH253040   5.946   4.506  12.682 -0.0701 -0.4203  0.5879
10542TIP3    H153041   5.866   4.459  12.657  0.2164 -1.8305  2.1110
10542TIP3    H253042   6.012   4.476  12.620 -0.7908  1.1675 -1.0259
10543TIP3   OH253043   5.310   4.423  11.380  0.7210 -0.5987  0.7400
10543TIP3    H153044   5.373   4.495  11.385 -0.7709  0.7853  0.3615
10543TIP3    H253045   5.304   4.403  11.286  0.4701 -0.6184  0.7603
10544TIP3   OH253046   0.335   5.665   3.058  0.3927  0.3979  0.4766
10544TIP3    H153047   0.277   5.589   3.060 -1.0131  1.4295  2.4884
10544TIP3    H253048   0.395   5.648   2.986 -0.4536 -2.1744  0.3016
10545TIP3   OH253049   2.367   0.197   4.845 -0.4469  0.3706 -0.1577
10545TIP3    H153050   2.288   0.251   4.837 -0.0601  1.0167  0.2963
10545TIP3    H253051   2.334   0.107   4.852 -1.0461  0.2495 -3.1762
10546TIP3   OH253052   6.343   5.936  12.816  0.0675 -0.1276 -0.1684
10546TIP3    H153053   6.395   5.980  12.750 -0.4592  0.2029 -0.3748
10546TIP3    H253054   6.252   5.947  12.786 -0.0594 -1.7173 -0.4399
10547TIP3   OH253055   0.031   3.307  14.561 -0.2812 -0.1287 -0.4291
10547TIP3    H153056  -0.063   3.292  14.550 -0.6127  2.0381 -0.8311
10547TIP3    H253057   0.046   3.397  14.532  1.8643 -0.2709  0.0220
10548TIP3   OH253058   4.509   4.065  13.596 -0.3808 -0.3113  0.2601
10548TIP3    H153059   4.462   4.111  13.665 -1.2598  1.6612 -1.5341
10548TIP3    H253060   4.601   4.082  13.614 -0.4892 -1.0846  1.7187
10549TIP3   OH253061   0.956   5.906  15.813 -0.2708 -0.3658  0.2312
10549TIP3    H153062   0.948   5.816  15.779  0.0630  0.3301 -1.8703
10549TIP3    H253063   1.031   5.942  15.765 -1.8550  1.7644 -0.7751
10550TIP3   OH253064   2.011   4.084  12.488  0.5710 -0.1291  0.2160
10550TIP3    H153065   1.968   4.021  12.546  1.0784  1.3941  2.3613
10550TIP3    H253066   1.960   4.164  12.498  0.7739  0.2400 -1.3757
10551TIP3   OH253067   2.182   6.576   2.034  0.9672 -0.5551 -0.1379
10551TIP3    H153068   2.121   6.614   1.971  0.2321 -0.5041  0.5725
10551TIP3    H253069   2.234   6.649   2.065  0.2315 -0.2785  0.4905
10552TIP3   OH253070   3.466   1.829   3.411 -0.0715 -0.0368  0.9517
10552TIP3    H153071   3.436   1.919   3.419 -0.9169 -0.2600  0.4435
10552TIP3    H253072   3.513   1.812   3.492  1.6464  1.4223  0.3241
10553TIP3   OH253073   5.899   4.636   2.534  0.3327  0.1075 -0.3145
10553TIP3    H153074   5.903   4.684   2.618  0.6823 -0.7207  0.1540
10553TIP3    H253075   5.913   4.545   2.558 -2.9661 -0.6568 -0.8489
10554TIP3   OH253076   4.810   5.475   3.672 -0.1569  0.0825 -0.0295
10554TIP3    H153077   4.752   5.421   3.725 -2.5156  2.6771  0.3233
10554TIP3    H253078   4.754   5.547   3.642  2.4101  1.6172 -1.5378
10555TIP3   OH253079   5.737   3.886  12.156  0.4822 -0.5002  0.3642
10555TIP3    H153080   5.700   3.910  12.241 -0.8739  0.0008 -0.3285
10555TIP3    H253081   5.730   3.966  12.103 -0.5798 -1.3199 -0.8186
10556TIP3   OH253082   6.291   1.215   1.585  0.3136 -0.5455 -0.6590
10556TIP3    H153083   6.342   1.221   1.505  1.5565 -1.3047  0.0354
10556TIP3    H253084   6.334   1.276   1.645  0.1620 -0.8918 -0.1936
10557TIP3   OH253085   1.745   3.336   1.249  0.0916  0.1516  0.2688
10557TIP3    H153086   1.778   3.398   1.183 -0.3549  0.9613  0.7817
10557TIP3    H253087   1.746   3.386   1.331 -1.6087 -0.0473  0.4473
10558TIP3   OH253088   0.655   5.163   4.958  0.2756  0.4836  0.3923
10558TIP3    H153089   0.672   5.243   5.006  0.2894  0.8895 -0.2696
10558TIP3    H253090   0.697   5.177   4.873  1.3484 -0.7170  0.6919
10559TIP3   OH253091   4.722   6.067  12.832  0.3341 -0.0474  0.1265
10559TIP3    H153092   4.813   6.036  12.826  0.0113 -0.8401 -1.0456
10559TIP3    H253093   4.720   6.145  12.777  0.4293  0.3358  0.6496
10560TIP3   OH253094   6.465   2.309  11.701 -0.6826 -0.0071 -0.1710
10560TIP3    H153095   6.413   2.253  11.759  1.0112 -0.9963  0.4489
10560TIP3    H253096   6.528   2.352  11.759  0.2586 -0.1050 -1.0881
10561TIP3   OH253097   0.514   6.573  13.783  0.6183  0.0239 -0.1565
10561TIP3    H153098   0.442   6.626  13.815  0.7612 -0.0227  0.2401
10561TIP3    H253099   0.592   6.613  13.821  0.9044  0.6916 -1.3902
10562TIP3   OH253100   1.863   3.592  15.848  0.2576  0.1376 -0.2487
10562TIP3    H153101   1.943   3.546  15.826 -0.0192  0.0873 -1.1953
10562TIP3    H253102   1.822   3.538  15.916  1.3606  0.5411  0.7536
10563TIP3   OH253103   6.324   4.348  16.920  0.1613  0.2184 -0.1848
10563TIP3    H153104   6.243   4.364  16.969  0.1756  0.4683 -0.2410
10563TIP3    H253105   6.298   4.289  16.849 -0.4079  1.8817 -1.4162
10564TIP3   OH253106   2.009   0.355   2.171 -0.1635 -0.2401 -0.0325
10564TIP3    H153107   2.032   0.262   2.172  0.3250 -0.2293 -2.7638
10564TIP3    H253108   2.093   0.400   2.161 -0.1176  0.7401  3.5991
10565TIP3   OH253109   5.635   2.560   2.629  0.1731  0.3405  0.2546
10565TIP3    H153110   5.650   2.515   2.713  0.3997  1.6468  0.9331
10565TIP3    H253111   5.651   2.492   2.563 -1.9331 -1.3004  1.2733
10566TIP3   OH253112   4.963   0.406   5.669  0.5779  0.6033  0.8135
10566TIP3    H153113   5.051   0.374   5.649  0.8520  1.4625  0.6078
10566TIP3    H253114   4.952   0.390   5.763  0.1028 -1.4976  0.4548
10567TIP3   OH253115   0.625   1.959   6.184 -0.1582  0.1964 -0.8309
10567TIP3    H153116   0.568   1.988   6.113 -2.2146 -2.4267 -0.3856
10567TIP3    H253117   0.631   2.035   6.242 -0.0203  1.7448 -2.7739
10568TIP3   OH253118   3.532   0.983   1.837  0.2751  0.1941 -0.1355
10568TIP3    H153119   3.607   1.028   1.876  0.0840  0.6116 -0.2467
10568TIP3    H253120   3.564   0.953   1.752  0.4916 -0.1439  0.0610
10569TIP3   OH253121   5.053   6.096   4.957  0.2252 -0.6991 -0.8556
10569TIP3    H153122   5.118   6.041   5.002  0.4362 -1.1613 -1.6974
10569TIP3    H253123   5.071   6.185   4.988  1.1387 -0.8503 -0.9243
10570TIP3   OH253124   5.242   5.038  17.127 -0.4090  0.2423 -0.1702
10570TIP3    H153125   5.268   4.964  17.073  2.0736  1.2210 -0.4285
10570TIP3    H253126   5.258   5.009  17.217 -2.2876 -0.5265 -0.0248
10571TIP3   OH253127   3.374   6.737   5.897 -0.4013  0.5901 -0.0967
10571TIP3    H153128   3.448   6.729   5.837 -1.6343  1.4917 -1.8275
10571TIP3    H253129   3.378   6.658   5.950  1.8436  0.6585 -0.0504
10572TIP3   OH253130   6.761   4.304  12.255 -0.2603 -0.0886 -0.3796
10572TIP3    H153131   6.771   4.374  12.319 -2.3048  0.0490 -0.1575
10572TIP3    H253132   6.733   4.228  12.305  1.3394 -0.9378 -0.7065
10573TIP3   OH253133   0.614   1.402  17.063  0.2921  0.0141 -0.0996
10573TIP3    H153134   0.582   1.390  16.973  0.6670  1.1468 -0.4048
10573TIP3    H253135   0.706   1.425  17.053  0.1749  0.8142  0.5179
10574TIP3   OH253136   4.723   5.582   3.248 -0.3833  0.1483  0.4468
10574TIP3    H153137   4.670   5.504   3.264 -0.5000  0.6376  2.6772
10574TIP3    H253138   4.695   5.644   3.314  0.4927  1.7133 -0.6023
10575TIP3   OH253139   6.730   2.391   0.748 -0.3517 -0.1129 -0.1517
10575TIP3    H153140   6.787   2.466   0.735 -1.4239  0.6717 -0.4071
10575TIP3    H253141   6.754   2.331   0.677  0.4583 -0.0029  0.0131
10576TIP3   OH253142   0.500   5.161  11.766  0.2378 -1.0794  0.0485
10576TIP3    H153143   0.592   5.164  11.740  0.0572 -3.5824 -1.1470
10576TIP3    H253144   0.453   5.146  11.685 -1.0722 -1.5824  0.8750
10577TIP3   OH253145   0.662   2.444   0.562  0.1878 -0.6107  0.3098
10577TIP3    H153146   0.689   2.489   0.642 -0.5840  0.1053  0.1759
10577TIP3    H253147   0.732   2.381   0.546  1.6698  1.0103  0.1258
10578TIP3   OH253148   5.602   6.423   2.556  0.3078  0.4648  0.2621
10578TIP3    H153149   5.673   6.420   2.620 -0.7015  1.2883  1.4827
10578TIP3    H253150   5.599   6.515   2.528  1.4934 -0.0820 -1.9330
10579TIP3   OH253151   0.628   0.237  12.248 -0.3957  0.6482 -0.2081
10579TIP3    H153152   0.540   0.211  12.221 -0.9776  0.4115  1.7315
10579TIP3    H253153   0.618   0.329  12.273 -0.5157  0.2047  1.5172
10580TIP3   OH253154   5.607   0.393   0.595  0.6410  0.3417 -0.0649
10580TIP3    H153155   5.619   0.401   0.689  0.0601 -1.5088  0.1944
10580TIP3    H253156   5.559   0.311   0.583  2.3978 -0.4908 -2.0819
10581TIP3   OH253157   2.900   6.032   0.905 -0.0203  0.0924 -0.1180
10581TIP3    H153158   2.943   5.986   0.833 -1.7839 -2.0217  0.0899
10581TIP3    H253159   2.941   5.996   0.984 -2.4226 -2.4837  0.1192
10582TIP3   OH253160   0.672   1.968  15.693  0.0453 -0.4959 -0.1579
10582TIP3    H153161   0.694   1.889  15.742  0.2769  0.0454  0.6208
10582TIP3    H253162   0.706   2.040  15.746 -1.7063  0.2491  0.0270
10583TIP3   OH253163   2.554   1.248  13.685 -0.8317 -0.6194 -0.0547
10583TIP3    H153164   2.478   1.193  13.704  0.1188 -2.6429 -1.6868
10583TIP3    H253165   2.626   1.206  13.732 -0.1899 -0.5267 -0.9182
10584TIP3   OH253166   2.975   3.196   2.740 -0.5934  0.7470  0.5490
10584TIP3    H153167   3.002   3.266   2.799  0.7962  0.8580 -0.1777
10584TIP3    H253168   2.948   3.241   2.660 -2.4245  0.5971  1.0555
10585TIP3   OH253169   6.231   5.477  15.453  0.5737  0.5297 -0.0123
10585TIP3    H153170   6.136   5.491  15.460  0.5724  0.3042  0.4997
10585TIP3    H253171   6.268   5.564  15.443  0.4751  0.8402  1.9404
10586TIP3   OH253172   1.290   2.638  12.728  0.6333  0.7295 -0.2427
10586TIP3    H153173   1.346   2.606  12.657 -1.0334  0.5760 -1.5507
10586TIP3    H253174   1.279   2.731  12.709 -0.2559  0.5759 -0.5030
10587TIP3   OH253175   6.238   6.182  15.899 -0.6656 -0.0055 -0.4161
10587TIP3    H153176   6.316   6.171  15.846 -2.4781 -1.9887 -2.9448
10587TIP3    H253177   6.197   6.262  15.866 -0.4767  0.1877 -0.1807
10588TIP3   OH253178   6.291   6.628   2.572  0.2226  0.2673 -0.1176
10588TIP3    H153179   6.352   6.558   2.597 -0.5857  0.1790  1.7933
10588TIP3    H253180   6.339   6.709   2.587  0.3789  0.1634 -0.0576
10589TIP3   OH253181   4.883   3.968   4.932 -0.0076 -0.1491 -0.1925
10589TIP3    H153182   4.919   3.906   4.868  1.2041 -1.0857  1.3167
10589TIP3    H253183   4.943   4.043   4.930  1.4903 -1.2071  1.4786
10590TIP3   OH253184   5.118   2.228   5.137  0.1248  0.1243 -0.4195
10590TIP3    H153185   5.165   2.271   5.066 -0.0252  1.4523  0.2453
10590TIP3    H253186   5.049   2.289   5.161  0.9268  0.3182  1.6786
10591TIP3   OH253187   5.253   4.577   3.646  0.2529  0.3045 -0.3412
10591TIP3    H153188   5.323   4.598   3.585 -0.3044 -0.1241 -1.1501
10591TIP3    H253189   5.175   4.621   3.611  0.0768  0.6940  0.4879
10592TIP3   OH253190   3.103   0.203   2.551  0.1299  0.4610 -0.5262
10592TIP3    H153191   3.009   0.203   2.531  0.0206 -0.0240 -0.0295
10592TIP3    H253192   3.108   0.169   2.640  0.8557 -0.4912 -0.9226
10593TIP3   OH253193   2.820   0.770   2.464  0.0148 -0.2151 -0.1381
10593TIP3    H153194   2.872   0.690   2.466 -2.1790 -1.7131  1.3907
10593TIP3    H253195   2.864   0.826   2.400  2.3911 -2.0782 -0.2513
10594TIP3   OH253196   1.283   0.694  12.011  0.8797 -0.1556  0.7135
10594TIP3    H153197   1.373   0.701  11.978  1.3164  0.3651  1.9289
10594TIP3    H253198   1.293   0.694  12.106 -0.3474 -1.1783  0.8666
10595TIP3   OH253199   3.237   2.217  14.800 -0.0474  0.5733 -0.6070
10595TIP3    H153200   3.283   2.159  14.861  1.8554  1.3566 -1.2227
10595TIP3    H253201   3.284   2.301  14.807  0.1281  0.7437 -2.9821
10596TIP3   OH253202   0.171   3.917  16.888  0.3495 -0.2910 -0.0928
10596TIP3    H153203   0.112   3.850  16.851  1.4687 -2.1277  1.2504
10596TIP3    H253204   0.188   3.977  16.815  1.1380 -2.7833 -2.1277
10597TIP3   OH253205   3.481   2.870   1.664  0.4868 -0.4584 -0.0672
10597TIP3    H153206   3.550   2.835   1.721  2.2317  0.6005 -1.4134
10597TIP3    H253207   3.456   2.797   1.608 -0.2005 -1.1075  1.0574
10598TIP3   OH253208   0.287   3.718   4.883  0.4301 -0.5077 -0.7376
10598TIP3    H153209   0.240   3.776   4.943 -1.8329 -1.3204 -1.6224
10598TIP3    H253210   0.315   3.775   4.812  3.2122  0.4845  0.9622
10599TIP3   OH253211   6.160   2.314   3.706 -0.3022 -0.1229 -0.2029
10599TIP3    H153212   6.170   2.390   3.648  2.2178 -1.1477 -1.2596
10599TIP3    H253213   6.181   2.348   3.793  0.9715  0.4001 -0.6904
10600TIP3   OH253214   3.157   3.022   6.139 -0.4644 -0.2773 -0.0768
10600TIP3    H153215   3.212   3.095   6.111  1.1980 -1.7103 -0.7505
10600TIP3    H253216   3.092   3.011   6.070  0.6450 -0.7882 -1.0565
10601TIP3   OH253217   4.272   1.084  13.792 -0.2100  0.5152 -0.0503
10601TIP3    H153218   4.249   1.124  13.709 -0.2557 -1.6056 -1.1301
10601TIP3    H253219   4.209   1.119  13.854 -1.6972  0.3749 -1.4284
10602TIP3   OH253220   4.465   0.427   2.306 -0.1598 -0.0191 -0.4788
10602TIP3    H153221   4.410   0.444   2.230 -1.0731  0.4837  0.2769
10602TIP3    H253222   4.537   0.491   2.298 -0.3339  0.1351 -0.8381
10603TIP3   OH253223   5.165   3.457  16.396  0.1563  0.2002  0.0449
10603TIP3    H153224   5.077   3.448  16.360  0.2815  1.2816 -0.5922
10603TIP3    H253225   5.205   3.527  16.344  0.0837  2.4125  2.7233
10604TIP3   OH253226   0.751   3.571  16.867  0.1472  0.1811 -0.3160
10604TIP3    H153227   0.774   3.644  16.810  0.1920  0.1433 -0.3478
10604TIP3    H253228   0.680   3.604  16.922 -0.9522 -0.2557 -1.4282
10605TIP3   OH253229   2.387   3.250  12.735 -0.1040  0.4501 -0.1503
10605TIP3    H153230   2.316   3.314  12.739 -1.0528 -0.4237 -1.7038
10605TIP3    H253231   2.461   3.298  12.697 -0.9119  0.5930 -1.6311
10606TIP3   OH253232   5.557   0.643   5.033 -0.5783 -0.1964 -0.3895
10606TIP3    H153233   5.504   0.590   4.974  0.3597 -1.5044 -0.1051
10606TIP3    H253234   5.622   0.582   5.069  1.2375  1.3494 -0.8661
10607TIP3   OH253235   5.302   4.146  17.312  0.4449  0.4227 -0.3765
10607TIP3    H153236   5.304   4.149  17.408 -1.9461 -0.8932 -0.2162
10607TIP3    H253237   5.294   4.238  17.286 -0.5672  0.7020  0.7911
10608TIP3   OH253238   1.914   2.424  12.607 -0.1639 -0.1158 -0.2871
10608TIP3    H153239   1.969   2.437  12.684  0.3881 -1.6305 -0.3875
10608TIP3    H253240   1.860   2.348  12.630 -1.5059  0.7202 -0.5838
10609TIP3   OH253241   0.934   3.472   0.510  0.2896 -0.2624 -0.4838
10609TIP3    H153242   1.022   3.491   0.479  0.7215 -0.9644  0.2650
10609TIP3    H253243   0.922   3.528   0.586 -1.1694  2.2523 -2.3990
10610TIP3   OH253244   2.023   1.330   2.447 -0.2692 -0.3416 -0.0438
10610TIP3    H153245   2.031   1.412   2.495 -0.5259  0.6090 -1.5537
10610TIP3    H253246   2.113   1.303   2.429 -0.1411  1.2796 -2.1970
10611TIP3   OH253247   4.051   4.432   6.538 -0.2560  0.1074 -0.0201
10611TIP3    H153248   4.103   4.502   6.499 -1.9908  1.0830 -0.6860
10611TIP3    H253249   4.006   4.392   6.464  0.5619 -1.6205  0.3792
10612TIP3   OH253250   2.794   5.644  13.037  0.0033 -0.5224 -0.2714
10612TIP3    H153251   2.716   5.602  13.071 -0.4459  0.5209  0.0479
10612TIP3    H253252   2.779   5.651  12.943 -1.2483  1.4635 -0.0014
10613TIP3   OH253253   5.504   2.780   5.687 -0.8789 -0.3104 -0.2644
10613TIP3    H153254   5.478   2.854   5.632 -0.5962 -1.3435 -1.8413
10613TIP3    H253255   5.580   2.742   5.643 -0.1980 -0.7658  1.2276
10614TIP3   OH253256   3.631   4.127   3.369  1.1291 -0.7180  0.5126
10614TIP3    H153257   3.540   4.119   3.397  1.5958  0.4767  2.5380
10614TIP3    H253258   3.677   4.058   3.417  1.4934 -0.4682  0.5272
10615TIP3   OH253259   6.285   4.919   0.804 -0.1338  0.1137 -0.0645
10615TIP3    H153260   6.243   4.953   0.725  1.5242  2.5093 -0.0480
10615TIP3    H253261   6.355   4.862   0.771 -0.1519  0.2216 -0.2942
10616TIP3   OH253262   0.175   2.134   1.074  0.3502  0.5655 -0.1212
10616TIP3    H153263   0.194   2.227   1.090 -3.1749  1.3473  0.3475
10616TIP3    H253264   0.109   2.112   1.139  0.9883 -2.3157 -0.3046
10617TIP3   OH253265   0.849   0.473  14.238  0.3520  0.1207  0.0910
10617TIP3    H153266   0.869   0.488  14.146  0.3581 -0.1082  0.0553
10617TIP3    H253267   0.880   0.384  14.255 -1.6200 -0.6706 -0.2421
10618TIP3   OH253268   2.054   2.541  13.888 -0.4007  0.1506  0.3249
10618TIP3    H153269   2.001   2.578  13.958 -1.0771 -1.2908  0.6131
10618TIP3    H253270   2.138   2.520  13.930 -0.6075 -0.1919  0.5720
10619TIP3   OH253271   6.105   0.160   0.865 -0.3429 -0.1467 -0.3693
10619TIP3    H153272   6.186   0.170   0.814  0.2842 -1.0256  0.4245
10619TIP3    H253273   6.097   0.242   0.912  0.2919 -0.1853 -0.1782
10620TIP3   OH253274   4.854   0.211   3.800  0.0072  0.3251  0.4812
10620TIP3    H153275   4.772   0.196   3.848 -0.6194 -0.6264 -0.8257
10620TIP3    H253276   4.912   0.141   3.829  0.7912  1.6186  2.2198
10621TIP3   OH253277   6.487   0.751  16.618  0.0133  0.1757 -0.0492
10621TIP3    H153278   6.412   0.808  16.637  0.9700  1.7792 -0.8661
10621TIP3    H253279   6.522   0.784  16.536  0.8888 -1.3498 -0.3242
10622TIP3   OH253280   5.133   1.436   1.196 -0.2797 -0.6586 -0.5775
10622TIP3    H153281   5.049   1.404   1.165 -0.1568 -1.0051 -0.5548
10622TIP3    H253282   5.198   1.378   1.155 -0.0755 -0.6485 -0.2694
10623TIP3   OH253283   0.979   0.060  12.919 -0.4977 -0.3493  0.1589
10623TIP3    H153284   0.976  -0.000  12.845 -1.3391  3.1172 -2.8982
10623TIP3    H253285   0.887   0.076  12.940 -0.4567  2.0316 -1.1538
10624TIP3   OH253286   6.581   1.913   3.325 -0.0926 -0.6789 -0.1202
10624TIP3    H153287   6.564   1.823   3.296 -0.9547 -0.9843  1.2381
10624TIP3    H253288   6.514   1.930   3.391  0.2319  0.8785 -0.1482
10625TIP3   OH253289   3.042   6.682   2.326  0.1317 -1.2532  0.1199
10625TIP3    H153290   2.952   6.651   2.338 -1.6152  3.1409  0.2678
10625TIP3    H253291   3.085   6.666   2.410 -1.5533 -0.5364  1.1521
10626TIP3   OH253292   6.206   4.626   2.363 -0.3118 -1.2935  0.1530
10626TIP3    H153293   6.296   4.596   2.354  0.2810  0.0577  1.2761
10626TIP3    H253294   6.160   4.553   2.404 -0.2289 -2.7420 -2.1452
10627TIP3   OH253295   4.134   6.566  14.690 -0.2116 -0.7802  0.0760
10627TIP3    H153296   4.141   6.574  14.595 -2.0158 -0.4235 -0.0564
10627TIP3    H253297   4.057   6.617  14.713 -0.1870 -1.3994  1.6662
10628TIP3   OH253298   4.540   1.705   6.838 -0.2862  0.2032  0.0308
10628TIP3    H153299   4.564   1.753   6.759 -0.1443 -1.6783 -1.1449
10628TIP3    H253300   4.456   1.742   6.864 -0.0951  1.2001 -0.6917
10629TIP3   OH253301   2.369   5.634  16.818  0.5919 -0.5320  0.1358
10629TIP3    H153302   2.334   5.690  16.749  1.3032  0.3989  0.5092
10629TIP3    H253303   2.311   5.649  16.893  0.6048 -0.5280  0.1447
10630TIP3   OH253304   3.717   6.617  13.694  0.3568  0.4668  0.4232
10630TIP3    H153305   3.781   6.587  13.759  0.3655  0.1831  0.2807
10630TIP3    H253306   3.760   6.603  13.610  1.2763  2.9087  0.4067
10631TIP3   OH253307   2.887   2.013   4.986 -0.0252  0.0614  0.2907
10631TIP3    H153308   2.874   2.107   4.996  0.2332  0.1013  0.2661
10631TIP3    H253309   2.980   2.000   5.004 -0.3031 -0.3592  1.5643
10632TIP3   OH253310   4.978   5.518   1.843  0.6012  0.6843 -0.2903
10632TIP3    H153311   4.893   5.538   1.803  0.0426  0.0065  0.5208
10632TIP3    H253312   5.026   5.600   1.839 -0.2204  1.1732 -0.4483
10633TIP3   OH253313   2.239   6.496  13.157  0.0562 -0.1787  0.3143
10633TIP3    H153314   2.269   6.469  13.071  1.0471  0.3695  0.4705
10633TIP3    H253315   2.239   6.592  13.153  1.2641 -0.1019  1.2712
10634TIP3   OH253316   0.467   1.003   2.660  0.1979 -0.1209 -0.2858
10634TIP3    H153317   0.445   0.976   2.571 -0.5154 -0.6698  0.0424
10634TIP3    H253318   0.394   1.059   2.686 -0.3200 -1.1032  0.4467
10635TIP3   OH253319   5.600   5.607   4.801  0.6910 -0.1664  0.2849
10635TIP3    H153320   5.667   5.543   4.779  2.8864  1.6426  1.2487
10635TIP3    H253321   5.624   5.685   4.751 -0.7136  0.5483  0.6658
10636TIP3   OH253322   6.369   2.783   3.249 -0.5086  0.3814 -0.6078
10636TIP3    H153323   6.459   2.768   3.279 -1.4235  0.2962  2.4663
10636TIP3    H253324   6.374   2.861   3.195  1.2326  1.2354  0.6879
10637TIP3   OH253325   3.170   1.754  12.036  0.3303 -0.4280 -0.1395
10637TIP3    H153326   3.238   1.707  12.084 -1.3426 -2.0792  0.7604
10637TIP3    H253327   3.100   1.689  12.023 -1.2709  1.2878 -0.5919
10638TIP3   OH253328   4.262   3.868  16.251  0.2907  0.0741 -0.8443
10638TIP3    H153329   4.287   3.781  16.283  0.2678  0.6416  0.8164
10638TIP3    H253330   4.212   3.851  16.171  0.7538 -1.4071 -0.8432
10639TIP3   OH253331   3.948   2.822   0.304  0.1935 -0.2232  0.2801
10639TIP3    H153332   3.873   2.858   0.257  0.4215 -2.1505 -1.7372
10639TIP3    H253333   3.954   2.731   0.273  1.4688 -1.0851  2.7734
10640TIP3   OH253334   2.713   4.324  17.004 -0.1230  0.4388  0.1709
10640TIP3    H153335   2.765   4.297  17.080 -1.1099  1.5526  1.2918
10640TIP3    H253336   2.751   4.407  16.978 -0.0381  0.2465 -0.3311
10641TIP3   OH253337   6.156   4.381   2.503 -0.0017  0.2170 -0.0844
10641TIP3    H153338   6.136   4.309   2.443 -1.4219  1.0236 -0.6202
10641TIP3    H253339   6.127   4.349   2.588  1.4729 -0.7005  0.1125
10642TIP3   OH253340   1.117   5.788   6.292  0.6534  0.0898 -0.6591
10642TIP3    H153341   1.032   5.746   6.284  0.5823  0.2774 -0.9190
10642TIP3    H253342   1.159   5.745   6.366  0.8692 -0.9293 -1.3515
10643TIP3   OH253343   0.106   3.999  11.313 -0.1582 -0.8670 -0.4964
10643TIP3    H153344   0.086   3.951  11.233  0.5182  0.2552 -1.3730
10643TIP3    H253345   0.022   4.031  11.345 -0.2188  0.8862 -2.2352
10644TIP3   OH253346   3.196   1.151   6.263 -0.0866 -0.3157 -0.2516
10644TIP3    H153347   3.110   1.114   6.282 -0.6820  1.6056  1.0987
10644TIP3    H253348   3.256   1.103   6.320 -0.6767  0.0317  0.6821
10645TIP3   OH253349   4.355   2.891   3.451  0.4545  0.0021  0.0000
10645TIP3    H153350   4.437   2.879   3.498  0.7176 -0.5436 -0.5782
10645TIP3    H253351   4.339   2.985   3.452  1.7577  0.2568 -0.9823
10646TIP3   OH253352   2.493   4.918  15.392 -0.1772  0.2430 -0.5685
10646TIP3    H153353   2.402   4.947  15.397 -0.3443 -0.2350 -0.7711
10646TIP3    H253354   2.532   4.974  15.325 -0.0997  1.0112  0.1002
10647TIP3   OH253355   6.445   0.601   2.095 -0.1911 -0.5854  0.3606
10647TIP3    H153356   6.406   0.580   2.010 -2.1231  0.6872  0.8882
10647TIP3    H253357   6.518   0.660   2.074 -2.5098  2.2238 -0.3017
10648TIP3   OH253358   0.231   0.646  16.881 -0.4736  0.5711 -0.1155
10648TIP3    H153359   0.166   0.678  16.818  1.9857  0.7700 -2.7781
10648TIP3    H253360   0.258   0.561  16.845 -0.1821 -0.1212  1.6588
10649TIP3   OH253361   0.159   4.893   1.535 -0.0404  0.0586  0.3993
10649TIP3    H153362   0.234   4.834   1.542 -0.3205 -0.6195 -1.5957
10649TIP3    H253363   0.095   4.856   1.596  0.8856  0.1362  1.4706
10650TIP3   OH253364   6.393   6.239  14.353  0.0292  0.2401 -0.4628
10650TIP3    H153365   6.389   6.156  14.306  1.2844 -0.4022  0.4604
10650TIP3    H253366   6.326   6.232  14.421 -1.8831  1.2301 -2.1687
10651TIP3   OH253367   1.189   3.851   2.397 -0.4179  0.0608 -0.0784
10651TIP3    H153368   1.207   3.896   2.315  0.1404  3.8028  1.8894
10651TIP3    H253369   1.244   3.773   2.394  0.1536  0.4760 -2.9055
10652TIP3   OH253370   5.495   1.901  14.545 -0.6463  0.2206 -0.2994
10652TIP3    H153371   5.486   1.816  14.588 -0.7968  0.5084  0.2502
10652TIP3    H253372   5.546   1.954  14.607 -1.1190  0.7318 -0.3399
10653TIP3   OH253373   1.156   1.126  14.106 -0.5003  0.4507  0.4183
10653TIP3    H153374   1.157   1.042  14.061 -1.3744 -0.0030  1.2102
10653TIP3    H253375   1.192   1.108  14.192 -0.2293  1.0000  0.4277
10654TIP3   OH253376   5.414   5.193  12.002  0.2381  0.1686  0.1547
10654TIP3    H153377   5.500   5.232  11.982  0.1868 -0.2861 -1.0754
10654TIP3    H253378   5.361   5.214  11.925 -0.5384 -0.1841  0.5890
10655TIP3   OH253379   0.410   3.825   3.248  0.0679  0.2922  0.4298
10655TIP3    H153380   0.500   3.793   3.244  0.7357  1.6430  2.5222
10655TIP3    H253381   0.418   3.914   3.283 -2.0381  0.7387 -0.0665
10656TIP3   OH253382   1.824   6.030   2.900  0.0702 -0.0424  0.2989
10656TIP3    H153383   1.834   6.103   2.961  2.1087 -0.1919  0.1978
10656TIP3    H253384   1.909   5.986   2.900 -0.8796 -2.0161 -0.1736
10657TIP3   OH253385   1.433   3.581   0.554  0.1531  0.0848  0.0422
10657TIP3    H153386   1.509   3.539   0.593  0.7686  0.0012 -1.1992
10657TIP3    H253387   1.469   3.646   0.495 -0.6819 -0.8331 -1.5456
10658TIP3   OH253388   0.818   5.033  11.363 -0.3576  0.3530 -0.3500
10658TIP3    H153389   0.876   5.050  11.288  0.6814  2.1079  0.7805
10658TIP3    H253390   0.786   5.119  11.388 -2.8006 -0.4830 -0.3583
10659TIP3   OH253391   5.466   1.971  17.298 -0.2203  0.0204 -0.7193
10659TIP3    H153392   5.409   2.025  17.243 -0.0646 -0.7248 -1.6447
10659TIP3    H253393   5.549   2.020  17.302  0.1024 -0.3766 -2.0019
10660TIP3   OH253394   2.582   1.729  13.240  0.6622 -0.5085  0.3770
10660TIP3    H153395   2.657   1.668  13.235  1.5041  0.2347  2.6409
10660TIP3    H253396   2.558   1.729  13.333 -1.0571  0.5859 -0.0373
10661TIP3   OH253397   1.013   4.683  12.881 -0.3524 -0.0374 -0.1030
10661TIP3    H153398   1.057   4.714  12.803  1.0114 -1.2263  0.1551
10661TIP3    H253399   1.081   4.680  12.948 -1.1266 -0.5803  0.6858
10662TIP3   OH253400   6.080   6.502  15.183 -0.5608  0.4393 -0.1349
10662TIP3    H153401   6.160   6.552  15.197 -1.0672  1.3757 -0.4791
10662TIP3    H253402   6.011   6.554  15.225 -1.2389  0.4821 -1.2524
10663TIP3   OH253403   3.988   1.833   4.160  0.4096  0.6984  0.3092
10663TIP3    H153404   4.025   1.844   4.073 -1.4537  0.4461 -0.5454
10663TIP3    H253405   3.927   1.906   4.170 -0.3145  0.0378  0.8857
10664TIP3   OH253406   5.849   6.231  13.694  0.8167 -0.1252  0.4461
10664TIP3    H153407   5.898   6.162  13.648  0.7405 -0.0140  0.1992
10664TIP3    H253408   5.780   6.256  13.634  1.0981  0.4689  0.3592
10665TIP3   OH253409   6.048   3.902  10.899  0.4720 -0.2527 -0.3026
10665TIP3    H153410   5.958   3.925  10.923  0.6948  0.2212  0.0974
10665TIP3    H253411   6.058   3.933  10.809  0.7669  1.2824  0.2188
10666TIP3   OH253412   0.991   4.479   5.953  0.3274  0.3343  0.1425
10666TIP3    H153413   0.941   4.520   5.883  1.4799  1.7547  0.1122
10666TIP3    H253414   0.986   4.385   5.934 -2.9088  0.2860  0.5631
10667TIP3   OH253415   4.014   2.356   4.185 -0.0228 -0.2762 -0.5252
10667TIP3    H153416   4.009   2.267   4.220  1.3570 -0.0797  0.2740
10667TIP3    H253417   4.028   2.344   4.091 -2.7518 -0.8319 -0.9230
10668TIP3   OH253418   3.322   0.247   5.964 -0.2178  0.3961 -0.6986
10668TIP3    H153419   3.320   0.154   5.988  3.2272  0.3170 -0.2044
10668TIP3    H253420   3.237   0.280   5.991 -1.1276 -2.3707  0.2148
10669TIP3   OH253421   6.672   4.869  17.068 -0.3289  0.2160 -0.3142
10669TIP3    H153422   6.579   4.859  17.088 -0.5367  0.8366 -0.9268
10669TIP3    H253423   6.714   4.884  17.153 -0.5332 -1.7303  0.1779
10670TIP3   OH253424   1.759   5.179  12.255 -0.1345 -0.6243  0.1329
10670TIP3    H153425   1.669   5.172  12.224 -0.2968  2.1352 -0.3499
10670TIP3    H253426   1.807   5.216  12.181  1.0085 -0.4141  0.9449
10671TIP3   OH253427   5.560   1.559  17.212 -1.0217  0.0980 -0.2003
10671TIP3    H153428   5.497   1.605  17.267 -0.7227  0.8952 -0.5082
10671TIP3    H253429   5.507   1.511  17.148 -1.3262  2.7525 -2.0725
10672TIP3   OH253430   3.458   6.387  17.067 -0.5553 -0.3447 -0.1026
10672TIP3    H153431   3.483   6.384  16.975  0.3237  0.1236  0.1141
10672TIP3    H253432   3.367   6.355  17.068 -0.4796 -0.6219 -1.0877
10673TIP3   OH253433   1.477   0.932   1.835 -0.1589  0.1479  0.0866
10673TIP3    H153434   1.457   0.861   1.775 -1.8845 -0.0872  0.8809
10673TIP3    H253435   1.401   0.990   1.831  1.8037  2.8696 -1.6898
10674TIP3   OH253436   1.362   1.380   5.178 -0.4087  0.1683 -0.6206
10674TIP3    H153437   1.301   1.406   5.248 -0.5528  0.2258 -0.7686
10674TIP3    H253438   1.374   1.459   5.126 -1.4908 -0.2595 -1.5529
10675TIP3   OH253439   0.497   6.403  17.074 -0.1502 -0.1134  0.7342
10675TIP3    H153440   0.555   6.399  16.998 -0.1495 -0.1836  0.7396
10675TIP3    H253441   0.477   6.312  17.093  1.4370 -0.2275  2.0396
10676TIP3   OH253442   2.728   5.546  15.001 -0.1422  0.7735  0.2006
10676TIP3    H153443   2.819   5.574  14.989  0.1495 -0.3462 -0.3099
10676TIP3    H253444   2.707   5.572  15.090  1.0154  0.1511  0.6798
10677TIP3   OH253445   1.536   5.736   1.663  0.0754 -0.0230 -0.4630
10677TIP3    H153446   1.561   5.712   1.574  0.0852  0.4493 -0.5897
10677TIP3    H253447   1.475   5.668   1.690 -0.4319  0.1833 -1.0726
10678TIP3   OH253448   3.576   6.426   3.004 -0.1482  0.4129 -0.4410
10678TIP3    H153449   3.554   6.355   3.064  0.7544  1.1454  0.8120
10678TIP3    H253450   3.670   6.417   2.989 -0.1790  0.8493 -0.9231
10679TIP3   OH253451   0.732   4.963   4.338  0.0480 -0.1411  0.0383
10679TIP3    H153452   0.686   5.034   4.383  2.6363  1.2379  0.6795
10679TIP3    H253453   0.748   4.997   4.250  0.3771 -0.3528  0.0130
10680TIP3   OH253454   0.470   4.686  16.397 -0.2616 -0.2973 -0.7077
10680TIP3    H153455   0.500   4.759  16.452  0.7120  0.2410 -1.8890
10680TIP3    H253456   0.391   4.655  16.439 -0.2947  0.9784  0.2410
10681TIP3   OH253457   1.582   0.605   0.120  0.0921 -0.3045 -0.1901
10681TIP3    H153458   1.576   0.614   0.215  0.7697  3.0141 -0.3298
10681TIP3    H253459   1.501   0.643   0.087  1.4882  2.2901 -0.9278
10682TIP3   OH253460   4.957   0.327   4.650  0.2586 -0.5410  0.4183
10682TIP3    H153461   5.027   0.311   4.713 -0.3464  1.4706  1.6708
10682TIP3    H253462   5.000   0.367   4.575  0.4142  1.4551  1.5101
10683TIP3   OH253463   2.280   5.653   3.700 -0.4448 -0.2325 -0.5778
10683TIP3    H153464   2.203   5.632   3.753  0.2866  0.0906  0.6646
10683TIP3    H253465   2.303   5.571   3.657 -0.3093 -0.8555  0.6313
10684TIP3   OH253466   1.687   1.127   1.153  0.0777  0.1427 -0.1233
10684TIP3    H153467   1.600   1.123   1.191  0.6170  0.9537  1.2753
10684TIP3    H253468   1.679   1.188   1.079 -0.0158  2.3403  1.6063
10685TIP3   OH253469   0.701   0.014  17.008 -0.2767 -0.2311 -0.3989
10685TIP3    H153470   0.724  -0.058  17.066  1.3386  1.4848  1.2621
10685TIP3    H253471   0.608   0.003  16.992 -0.0896 -2.6363 -0.1900
10686TIP3   OH253472   6.572   6.097   2.685 -0.0039 -0.0401 -0.4897
10686TIP3    H153473   6.498   6.082   2.744 -1.0730  0.0427 -1.7674
10686TIP3    H253474   6.627   6.159   2.732  0.5933 -2.0130  1.5909
10687TIP3   OH253475   1.737   5.412   5.748  0.2986 -0.1794 -0.0085
10687TIP3    H153476   1.786   5.453   5.677  0.8103  1.5048  1.2509
10687TIP3    H253477   1.801   5.356   5.792  0.1261 -0.7814 -0.5041
10688TIP3   OH253478   0.733   5.750  16.645  0.4923  0.3525  0.1426
10688TIP3    H153479   0.706   5.841  16.640 -0.5991  0.1374  1.4868
10688TIP3    H253480   0.654   5.703  16.672  1.4245 -0.7542  1.0432
10689TIP3   OH253481   3.224   6.174   1.827 -0.2822  0.0428  0.1545
10689TIP3    H153482   3.150   6.178   1.766 -0.8823  0.6461  0.9161
10689TIP3    H253483   3.285   6.113   1.785 -0.0483  1.4844 -1.7473
10690TIP3   OH253484   5.085   4.329   2.581 -0.2806  0.1922  0.0993
10690TIP3    H153485   5.056   4.239   2.569 -1.8280  0.0762  3.4401
10690TIP3    H253486   5.004   4.381   2.573  0.1692  0.9875  0.5791
10691TIP3   OH253487   3.509   1.022   6.410  0.2716 -0.0384 -0.2834
10691TIP3    H153488   3.555   1.106   6.412  0.9402 -0.3746 -1.1417
10691TIP3    H253489   3.553   0.970   6.478 -0.0024  0.2188  0.0999
10692TIP3   OH253490   5.211   2.653  16.015  0.3689  0.0069  0.7465
10692TIP3    H153491   5.184   2.670  16.105 -0.9315 -0.9179  0.5490
10692TIP3    H253492   5.281   2.717  15.999  0.6720  0.1336  2.4183
10693TIP3   OH253493   3.992   3.137  16.568 -0.2952  0.1554  0.0168
10693TIP3    H153494   4.062   3.180  16.617  0.6621 -1.0498 -0.2379
10693TIP3    H253495   3.983   3.051  16.609 -1.8475  0.3889  0.2249
10694TIP3   OH253496   4.807   3.451  13.447  0.4116 -0.1664 -0.8168
10694TIP3    H153497   4.760   3.534  13.457 -0.3683 -0.6532 -0.3821
10694TIP3    H253498   4.896   3.470  13.478  0.6336  0.8640 -1.9938
10695TIP3   OH253499   0.045   2.510   2.866  0.1969  0.6499 -0.0360
10695TIP3    H153500   0.139   2.522   2.858  0.4481 -1.2047 -0.2637
10695TIP3    H253501   0.015   2.497   2.776 -0.3986  1.9395 -0.0373
10696TIP3   OH253502   3.843   3.498  13.533 -0.0824  0.2335 -0.5019
10696TIP3    H153503   3.750   3.489  13.553  0.2625 -1.2474  0.5807
10696TIP3    H253504   3.874   3.408  13.525  0.9519  0.7214 -2.4434
10697TIP3   OH253505   2.786   3.455  13.075 -0.2250  0.6708  0.5319
10697TIP3    H153506   2.869   3.502  13.084  0.9159 -1.3081  0.8589
10697TIP3    H253507   2.776   3.443  12.981  0.5972 -0.3010  0.5558
10698TIP3   OH253508   4.580   3.171  12.506 -0.3514  0.5859 -0.0841
10698TIP3    H153509   4.603   3.106  12.439 -0.0198  0.5202  0.0914
10698TIP3    H253510   4.506   3.131  12.553 -0.5835  0.6320 -0.4044
10699TIP3   OH253511   6.224   0.244   0.020  0.5907 -0.0251  0.4775
10699TIP3    H153512   6.154   0.179   0.031  0.0681  0.3712 -0.3460
10699TIP3    H253513   6.301   0.192  -0.004 -0.3850 -0.2510 -2.5837
10700TIP3   OH253514   6.156   1.120  13.558  0.3825 -0.4141 -0.2804
10700TIP3    H153515   6.135   1.095  13.468 -0.9032 -1.2380  0.2187
10700TIP3    H253516   6.075   1.106  13.606  1.0620 -0.0193  1.0266
10701TIP3   OH253517   4.899   3.230   5.159  0.6672  0.2805 -0.7243
10701TIP3    H153518   4.811   3.260   5.137  0.4737  0.5031  0.3066
10701TIP3    H253519   4.955   3.270   5.093  0.1553  1.2619 -0.5807
10702TIP3   OH253520   0.229   4.589  15.520  0.4953  0.3667 -0.2555
10702TIP3    H153521   0.307   4.631  15.484  0.3493  0.2943 -0.6586
10702TIP3    H253522   0.157   4.621  15.466  0.3376 -0.1208 -0.3355
10703TIP3   OH253523   2.075   5.792  12.753  1.0796  0.2256  0.5152
10703TIP3    H153524   2.056   5.750  12.837 -0.3532  0.8437  0.5242
10703TIP3    H253525   2.020   5.746  12.690  0.1457  1.4823  0.3792
10704TIP3   OH253526   0.725   6.136   2.815  0.0166 -0.0594  0.4251
10704TIP3    H153527   0.794   6.199   2.836 -0.3434  0.6535 -0.4276
10704TIP3    H253528   0.650   6.164   2.868 -0.0103 -0.0423  0.3778
10705TIP3   OH253529   1.141   0.404   2.305 -0.3839  0.3066 -0.4576
10705TIP3    H153530   1.089   0.481   2.282  0.4135  0.7462 -0.8402
10705TIP3    H253531   1.161   0.363   2.221  0.3016  0.4256 -0.3569
10706TIP3   OH253532   3.193   0.419   2.431 -0.3186  0.1662 -0.2844
10706TIP3    H153533   3.288   0.412   2.426 -0.0649  0.0729  2.8667
10706TIP3    H253534   3.166   0.342   2.482 -1.6422  1.9694  1.9168
10707TIP3   OH253535   1.466   3.045  16.894  0.0109  0.0132 -0.3763
10707TIP3    H153536   1.503   3.091  16.820 -0.0862 -1.1509 -1.1763
10707TIP3    H253537   1.400   2.987  16.856  0.1219 -0.7713  0.5812
10708TIP3   OH253538   1.876   6.443  12.035  0.1172  0.2558 -0.0673
10708TIP3    H153539   1.958   6.450  11.985  0.8022 -0.1240  0.9619
10708TIP3    H253540   1.883   6.512  12.102 -0.6853  0.6097 -0.3286
10709TIP3   OH253541   2.644   6.644   2.073  0.3668  0.3132  0.5844
10709TIP3    H153542   2.687   6.608   1.995 -1.0740 -0.4954  0.1346
10709TIP3    H253543   2.613   6.730   2.045 -0.9072 -0.3246 -0.0341
10710TIP3   OH253544   5.917   5.473  13.300 -0.0718 -0.1269  0.5978
10710TIP3    H153545   5.844   5.424  13.262  0.9439 -1.3723  0.1616
10710TIP3    H253546   5.923   5.553  13.247 -0.7383 -0.2866  0.2708
10711TIP3   OH253547   4.774   3.091  14.690 -0.1215 -0.2655  0.0028
10711TIP3    H153548   4.721   3.149  14.745  0.0215  0.0977 -0.2349
10711TIP3    H253549   4.852   3.073  14.742  0.1215  0.2655 -0.1676
10712TIP3   OH253550   0.631   3.784   2.971  0.4690 -0.6105  0.2899
10712TIP3    H153551   0.679   3.863   2.997 -0.9437  0.7550 -1.0452
10712TIP3    H253552   0.616   3.737   3.053  0.9574  0.7337  1.1936
10713TIP3   OH253553   5.424   2.716   0.190  0.2822  0.0946 -0.1303
10713TIP3    H153554   5.373   2.639   0.166  0.0406  0.4883 -0.9075
10713TIP3    H253555   5.365   2.790   0.173  0.9015  0.5167 -0.4582
10714TIP3   OH253556   2.430   3.260  15.077  0.2769  0.0776  0.0845
10714TIP3    H153557   2.370   3.213  15.018  0.6003 -0.5771  0.2665
10714TIP3    H253558   2.385   3.258  15.162  1.1009 -1.5534  0.5294
10715TIP3   OH253559   3.060   5.370   4.272 -0.4102 -0.1397 -0.2018
10715TIP3    H153560   3.084   5.282   4.243  1.1071  0.1377  0.1233
10715TIP3    H253561   3.052   5.362   4.367  1.8873  0.4779  0.1143
10716TIP3   OH253562   3.751   3.641   0.994 -0.2147  0.3098 -0.0298
10716TIP3    H153563   3.827   3.688   0.960 -1.5028  1.7166 -1.0862
10716TIP3    H253564   3.740   3.568   0.933  0.3653 -0.0075  0.2301
10717TIP3   OH253565   1.732   4.874  15.568  0.0973  0.3514  0.2932
10717TIP3    H153566   1.804   4.902  15.625 -0.1797 -0.1385  0.8944
10717TIP3    H253567   1.653   4.900  15.615 -0.1441 -0.4086  0.3165
10718TIP3   OH253568   3.230   6.076  17.061 -0.0921  0.3412 -0.2825
10718TIP3    H153569   3.144   6.047  17.032 -0.0435 -0.2656  0.1431
10718TIP3    H253570   3.274   5.995  17.087  0.9458  0.5370 -1.3586
10719TIP3   OH253571   4.235   6.201   4.276  0.4298 -0.5487 -0.6899
10719TIP3    H153572   4.183   6.133   4.233 -0.1838 -0.6712  0.2233
10719TIP3    H253573   4.310   6.156   4.313 -0.1020 -0.7784  0.1253
10720TIP3   OH253574   5.006   2.974  15.507  0.2283  0.0858  0.8013
10720TIP3    H153575   4.996   3.022  15.425  2.4758  1.6852  1.3642
10720TIP3    H253576   4.976   3.035  15.575 -1.7817 -1.2843  1.2325
10721TIP3   OH253577   4.816   3.849   1.414  0.6470 -0.1399  0.2973
10721TIP3    H153578   4.792   3.937   1.383  0.7492 -0.2053  0.0250
10721TIP3    H253579   4.908   3.840   1.390  0.4840 -0.5448 -0.1976
10722TIP3   OH253580   3.489   1.579  11.504 -0.5511  0.4169  0.2678
10722TIP3    H153581   3.448   1.550  11.422  0.1001 -1.0662  0.4407
10722TIP3    H253582   3.462   1.514  11.569  0.8641  0.2180  0.6975
10723TIP3   OH253583   6.223   4.412   6.150 -0.0445  0.3479 -0.5340
10723TIP3    H153584   6.201   4.327   6.186  0.3313  0.1641 -0.7319
10723TIP3    H253585   6.267   4.458   6.222  0.3725  0.1175 -0.6366
10724TIP3   OH253586   0.595   2.370   2.016  0.8149 -0.3965  0.1584
10724TIP3    H153587   0.513   2.396   2.058  1.1229  0.0250  0.5183
10724TIP3    H253588   0.662   2.418   2.065  1.2324 -0.3684 -0.4329
10725TIP3   OH253589   5.403   2.800  10.807 -0.2364  0.0057  0.1061
10725TIP3    H153590   5.385   2.847  10.726  1.9976 -0.0504 -0.4887
10725TIP3    H253591   5.400   2.867  10.875  0.6866  0.6171 -0.4315
10726TIP3   OH253592   3.607   3.762  12.869  0.0204 -0.5762  0.6949
10726TIP3    H153593   3.693   3.772  12.829 -0.2827  0.7659  0.3365
10726TIP3    H253594   3.586   3.849  12.903 -1.2756 -0.8415  0.6199
10727TIP3   OH253595   1.437   4.862  11.711 -0.2575  0.4592 -0.5895
10727TIP3    H153596   1.464   4.835  11.624  0.8813 -1.4398  0.2901
10727TIP3    H253597   1.355   4.814  11.727  0.6861 -0.9657  0.1819
10728TIP3   OH253598   1.662   0.521  13.630 -0.2907  0.1615  0.4806
10728TIP3    H153599   1.694   0.449  13.685 -2.6560  0.5377  2.5655
10728TIP3    H253600   1.712   0.597  13.659  1.4358 -0.3703 -0.9496
10729TIP3   OH253601   4.223   3.894   0.215 -0.4353  0.4156 -0.1537
10729TIP3    H153602   4.284   3.967   0.204 -0.0225 -0.1295 -1.7590
10729TIP3    H253603   4.185   3.907   0.302  2.6722  0.2490  1.3573
10730TIP3   OH253604   6.582   3.684  15.326  0.6472  0.0372  0.2720
10730TIP3    H153605   6.512   3.659  15.267  2.1680 -1.2629 -1.0616
10730TIP3    H253606   6.548   3.665  15.413 -1.0176  0.4338 -0.2553
10731TIP3   OH253607   1.879   4.007   1.389  0.5403  0.1508 -0.0148
10731TIP3    H153608   1.939   4.003   1.315  2.1456  0.7810  1.1948
10731TIP3    H253609   1.862   4.101   1.401  2.2318  0.2857  1.8389
10732TIP3   OH253610   1.908   0.790  11.396  0.4301  0.1754 -0.7124
10732TIP3    H153611   1.911   0.855  11.467  0.1633  0.5885 -1.0719
10732TIP3    H253612   1.870   0.712  11.437 -0.2364  0.5869 -0.5203
10733TIP3   OH253613   6.103   4.874   2.245 -0.4534 -0.6546 -0.1702
10733TIP3    H153614   6.159   4.800   2.270 -0.4035 -0.5275  0.0906
10733TIP3    H253615   6.161   4.949   2.242 -0.7209 -0.3974  0.7337
10734TIP3   OH253616   6.046   1.285   2.278 -0.7182 -0.0881  0.5805
10734TIP3    H153617   6.037   1.191   2.268 -0.0924 -0.2049  1.0095
10734TIP3    H253618   5.993   1.307   2.354 -0.5532 -0.1545  0.7146
10735TIP3   OH253619   4.743   6.142  13.370  0.4738  0.4053 -0.6368
10735TIP3    H153620   4.741   6.046  13.368  0.6944  0.3875 -0.1241
10735TIP3    H253621   4.660   6.167  13.409  1.4466  0.3300  1.5943
10736TIP3   OH253622   3.925   0.340   5.386 -0.0912 -0.0162 -0.0694
10736TIP3    H153623   3.973   0.322   5.306 -0.3593 -1.5625  0.0712
10736TIP3    H253624   3.964   0.281   5.451 -0.8728  0.1082  0.5370
10737TIP3   OH253625   0.911   2.583  15.723  0.1228 -0.2059  0.2212
10737TIP3    H153626   0.908   2.596  15.818  0.6822  1.6634  0.0264
10737TIP3    H253627   1.002   2.558  15.706  0.2703  0.3945  0.0967
10738TIP3   OH253628   0.559   5.512   5.622  0.3002  0.3887 -0.5834
10738TIP3    H153629   0.492   5.579   5.611  0.8253  0.8295 -1.1759
10738TIP3    H253630   0.636   5.560   5.654  0.1669 -0.1975  0.6448
10739TIP3   OH253631   6.694   4.758  13.458  0.1532 -0.4104  0.7936
10739TIP3    H153632   6.756   4.831  13.451  2.0888 -1.8653  1.8556
10739TIP3    H253633   6.622   4.783  13.400  1.5698  1.4957 -0.2913
10740TIP3   OH253634   2.394   0.128  14.165 -0.7949  0.0348  0.2887
10740TIP3    H153635   2.329   0.145  14.233 -0.3504  0.1600  0.6964
10740TIP3    H253636   2.454   0.202  14.171 -1.4647  0.7370 -1.1266
10741TIP3   OH253637   2.301   0.846  16.124 -0.3588  0.2214  0.3970
10741TIP3    H153638   2.293   0.763  16.170 -0.4283  0.0170  0.0270
10741TIP3    H253639   2.294   0.822  16.031 -2.7025  0.8917  0.3410
10742TIP3   OH253640   5.238   1.449  17.062  0.7353 -0.1562 -0.5205
10742TIP3    H153641   5.264   1.371  17.013 -0.2496 -0.4594 -0.5756
10742TIP3    H253642   5.263   1.522  17.006 -0.9278 -0.5064 -1.7860
10743TIP3   OH253643   2.622   1.468   5.636  0.2001  0.0200  0.1318
10743TIP3    H153644   2.677   1.542   5.610  0.6450 -0.4481 -0.2900
10743TIP3    H253645   2.534   1.504   5.642  0.3881  0.5475 -0.2314
10744TIP3   OH253646   4.791   3.679  14.339  1.0808  0.9746 -0.4579
10744TIP3    H153647   4.728   3.609  14.358  2.8054 -0.7203 -0.6729
10744TIP3    H253648   4.788   3.689  14.244  0.2319  1.8142 -0.3533
10745TIP3   OH253649   5.084   2.057  17.207 -0.1952 -0.0293  0.5961
10745TIP3    H153650   5.158   2.037  17.265  1.4967  0.1640 -1.3589
10745TIP3    H253651   5.098   2.148  17.182 -2.2388  0.6332  1.6703
10746TIP3   OH253652   1.897   4.222   5.684 -0.0965  0.5865  0.4730
10746TIP3    H153653   1.963   4.291   5.680  0.2516  0.3002  1.1259
10746TIP3    H253654   1.829   4.251   5.624  0.6272  0.8754 -0.2304
10747TIP3   OH253655   3.975   0.853  14.642  0.4527 -0.1683  0.0908
10747TIP3    H153656   3.979   0.802  14.723 -1.2131 -1.0652 -0.3485
10747TIP3    H253657   4.052   0.825  14.593  0.6972 -0.6979  0.7558
10748TIP3   OH253658   0.563   2.568   5.533  0.2341 -0.1559  0.2107
10748TIP3    H153659   0.628   2.568   5.603  0.2418  0.4078  0.2019
10748TIP3    H253660   0.601   2.512   5.465  1.0436  0.7634 -0.1051
10749TIP3   OH253661   2.957   5.516  11.634  0.2616  0.3292  0.0702
10749TIP3    H153662   3.007   5.441  11.604  0.5863 -0.0002  1.3677
10749TIP3    H253663   2.918   5.553  11.555  0.2721 -1.0748 -0.6099
10750TIP3   OH253664   5.350   3.990  17.087  0.4320  0.1488  0.2823
10750TIP3    H153665   5.363   4.028  17.174 -1.2105  0.1339  0.5711
10750TIP3    H253666   5.299   4.055  17.039 -0.0666 -0.5174 -0.1224
10751TIP3   OH253667   6.243   4.373   1.848  0.0944 -0.3825 -0.6148
10751TIP3    H153668   6.152   4.393   1.827  0.6582  1.5653 -1.4222
10751TIP3    H253669   6.277   4.330   1.770 -0.0538 -0.8839 -0.4074
10752TIP3   OH253670   5.703   4.573  15.997 -0.1634  0.2910  0.1497
10752TIP3    H153671   5.706   4.667  15.979  1.9971  0.4937  1.2889
10752TIP3    H253672   5.688   4.567  16.092  2.7100 -0.3661  0.6551
10753TIP3   OH253673   1.788   5.423  13.554  0.2571 -0.2292 -0.1788
10753TIP3    H153674   1.731   5.464  13.618  2.0443  0.9239  0.7413
10753TIP3    H253675   1.857   5.382  13.606 -0.5370 -3.0623 -1.1559
10754TIP3   OH253676   4.887   5.730   5.660  0.0600 -0.7719 -0.0841
10754TIP3    H153677   4.963   5.744   5.603  0.4324 -2.2543  0.0291
10754TIP3    H253678   4.812   5.729   5.600  0.2322 -0.4013 -0.3147
10755TIP3   OH253679   5.013   0.373  15.505  0.3029 -0.7534 -0.3398
10755TIP3    H153680   4.996   0.452  15.453 -0.5625 -0.0246  0.9907
10755TIP3    H253681   4.941   0.314  15.482  0.3976 -0.7689 -0.5997
10756TIP3   OH253682   0.664   5.633  13.610  0.3324  0.7213  0.1790
10756TIP3    H153683   0.664   5.545  13.648 -0.5759  0.6161 -0.0194
10756TIP3    H253684   0.738   5.633  13.550  0.0543 -0.0930 -0.1933
10757TIP3   OH253685   5.328   3.175  13.345 -0.1624  0.5697 -0.2486
10757TIP3    H153686   5.386   3.206  13.414  0.9304 -0.3399 -0.7356
10757TIP3    H253687   5.289   3.095  13.382  1.6028 -0.8050 -1.2008
10758TIP3   OH253688   5.307   5.592  16.288  0.1487  0.4923  0.3225
10758TIP3    H153689   5.321   5.666  16.348  1.8540  0.7009 -0.2923
10758TIP3    H253690   5.234   5.544  16.327  0.0849  1.5798  1.6276
10759TIP3   OH253691   3.133   5.750  14.475  0.7050  0.2273 -0.0938
10759TIP3    H153692   3.068   5.759  14.544  0.5845  2.3053 -0.4270
10759TIP3    H253693   3.160   5.839  14.455  1.0302 -0.3256 -2.4514
10760TIP3   OH253694   0.494   4.500   5.230  0.6608  0.1313  0.2506
10760TIP3    H153695   0.490   4.563   5.302  0.5413  1.6846 -1.0518
10760TIP3    H253696   0.476   4.416   5.271 -1.6010  1.2124  1.7283
10761TIP3   OH253697   4.739   4.634  13.333 -0.1061  0.2236 -0.8332
10761TIP3    H153698   4.662   4.662  13.283 -0.7633  0.8695  0.4858
10761TIP3    H253699   4.764   4.712  13.383 -0.2820 -0.7684  0.8470
10762TIP3   OH253700   0.741   6.160   3.837 -0.5286 -0.1752  0.1943
10762TIP3    H153701   0.774   6.071   3.826  2.0781  0.6840  0.4213
10762TIP3    H253702   0.767   6.205   3.757  0.6523  1.0395  1.2250
10763TIP3   OH253703   5.964   1.553  10.988 -0.2039 -0.0815 -0.1660
10763TIP3    H153704   5.947   1.636  11.033  0.9243 -0.2421  0.6294
10763TIP3    H253705   5.922   1.487  11.043  0.7035 -0.2233  0.3864
10764TIP3   OH253706   4.487   0.595   0.508 -0.0176  0.2880  0.0561
10764TIP3    H153707   4.403   0.616   0.549  0.0198  1.4244 -0.4193
10764TIP3    H253708   4.535   0.546   0.575 -1.4169 -1.2474  0.0021
10765TIP3   OH253709   4.643   2.069  15.245  0.3383 -0.1098  0.6286
10765TIP3    H153710   4.586   2.003  15.285 -0.2756  0.6241  0.9892
10765TIP3    H253711   4.597   2.152  15.259  2.1598  0.7112  2.2069
10766TIP3   OH253712   1.418   5.027  12.181 -0.2401 -0.2097  0.2365
10766TIP3    H153713   1.432   4.951  12.237  0.6771 -0.1562  0.0973
10766TIP3    H253714   1.399   5.098  12.241  0.1243 -0.2878  0.4468
10767TIP3   OH253715   4.545   1.262   4.215  0.0444 -0.4612  0.2344
10767TIP3    H153716   4.609   1.277   4.146 -0.7632  0.2176 -0.3858
10767TIP3    H253717   4.563   1.331   4.279 -0.2803 -0.0649 -0.1000
10768TIP3   OH253718   3.007   4.254   6.125  0.2311  0.3230  0.0448
10768TIP3    H153719   2.957   4.262   6.044 -0.2984  1.9802  0.4872
10768TIP3    H253720   3.005   4.161   6.146  1.2670 -0.3224 -2.3714
10769TIP3   OH253721   0.754   3.235  15.285  0.1113 -1.2215  0.0884
10769TIP3    H153722   0.812   3.311  15.289 -0.1175 -1.0322 -0.2598
10769TIP3    H253723   0.667   3.270  15.302 -0.0065 -1.3923 -0.1624
10770TIP3   OH253724   3.449   0.369  13.892  0.7191 -0.1706 -0.4116
10770TIP3    H153725   3.476   0.389  13.802  0.6087  0.7661 -0.2409
10770TIP3    H253726   3.402   0.286  13.884  0.3447  0.1122 -1.2859
10771TIP3   OH253727   4.998   3.085   3.967  0.0172  0.1890 -0.2702
10771TIP3    H153728   5.061   3.146   4.004  0.3027 -1.0244  1.3720
10771TIP3    H253729   4.951   3.050   4.044  0.3427 -2.1377 -1.0545
10772TIP3   OH253730   5.000   2.703   0.919  0.0456 -0.4447  0.0822
10772TIP3    H153731   5.018   2.758   0.995  0.5870  0.9111 -0.9759
10772TIP3    H253732   5.056   2.627   0.930  0.7757  0.1622  0.6111
10773TIP3   OH253733   5.098   3.586   5.530  0.2189 -0.4670 -0.7597
10773TIP3    H153734   5.054   3.511   5.490 -0.0019 -0.1118 -1.1981
10773TIP3    H253735   5.040   3.613   5.601  0.5496 -1.0226 -0.2655
10774TIP3   OH253736   3.870   4.257   5.869  0.1052  0.0349  0.3233
10774TIP3    H153737   3.849   4.165   5.885  0.4086  0.0856  1.0643
10774TIP3    H253738   3.807   4.305   5.921  0.4735  0.2293  0.5940
10775TIP3   OH253739   0.211   2.798  11.789  0.3402  0.8215 -0.5486
10775TIP3    H153740   0.212   2.883  11.745 -0.8673  1.5937  0.8232
10775TIP3    H253741   0.299   2.764  11.779  1.0355  2.5416 -0.5680
10776TIP3   OH253742   3.383   2.215  14.573  0.1763  0.0861 -0.4683
10776TIP3    H153743   3.300   2.223  14.620 -0.3035  0.8242 -1.3889
10776TIP3    H253744   3.383   2.289  14.512  0.9543 -0.6082 -1.3463
10777TIP3   OH253745   2.896   5.981   4.707 -0.4378 -0.2393  0.4518
10777TIP3    H153746   2.814   5.999   4.754 -1.4693  0.2192 -1.4300
10777TIP3    H253747   2.884   5.893   4.671  1.0788 -1.3478  2.4105
10778TIP3   OH253748   3.497   4.676  11.119  0.1916  0.3164 -0.1214
10778TIP3    H153749   3.499   4.665  11.024 -0.1678  0.9076 -0.2015
10778TIP3    H253750   3.553   4.605  11.153  1.5360  0.9924 -0.8514
10779TIP3   OH253751   5.527   3.001  12.788 -0.0102  0.0684 -0.4084
10779TIP3    H153752   5.531   2.944  12.711  0.7549  0.4186 -0.6336
10779TIP3    H253753   5.439   3.038  12.786  0.1942  0.5210 -1.4391
10780TIP3   OH253754   5.588   0.885   0.935 -0.4893  0.2489  0.5856
10780TIP3    H153755   5.665   0.830   0.948 -0.6881 -0.7173 -1.8301
10780TIP3    H253756   5.620   0.975   0.945  1.1309 -0.1097 -0.9652
10781TIP3   OH253757   3.790   3.177   4.968  0.4029  0.0261 -0.3538
10781TIP3    H153758   3.825   3.154   5.053  1.8222 -0.6737 -1.0907
10781TIP3    H253759   3.740   3.101   4.940  0.7255 -0.1161 -0.5468
10782TIP3   OH253760   1.730   3.966  13.304  0.3589 -0.0256 -0.0768
10782TIP3    H153761   1.708   4.032  13.238 -1.6706 -1.2309 -0.6692
10782TIP3    H253762   1.801   3.916  13.265 -1.2431 -1.1553 -1.7471
10783TIP3   OH253763   5.527   4.866  17.284 -0.0522 -0.1453 -0.7837
10783TIP3    H153764   5.574   4.873  17.201 -2.4856 -0.6750 -2.2891
10783TIP3    H253765   5.542   4.775  17.312 -1.4981 -0.8435 -2.1440
10784TIP3   OH253766   5.208   2.059  12.439  0.6407 -0.6588  0.0259
10784TIP3    H153767   5.198   2.080  12.532  1.9424  1.2167 -0.2028
10784TIP3    H253768   5.259   1.978  12.438 -0.7358 -1.5719  0.9268
10785TIP3   OH253769   0.012   6.165  17.248 -0.0138  0.4698  0.8124
10785TIP3    H153770   0.013   6.235  17.183  2.4865  0.8305  1.1426
10785TIP3    H253771   0.100   6.165  17.285 -0.7210 -1.1398  2.6975
10786TIP3   OH253772   4.974   5.334  14.886 -0.0667 -0.8172 -0.2489
10786TIP3    H153773   4.961   5.425  14.859 -0.8358 -0.3950  1.4273
10786TIP3    H253774   4.997   5.288  14.805 -1.6434  0.4835 -1.5060
10787TIP3   OH253775   3.718   0.375   3.934  0.0578  0.1358  0.6666
10787TIP3    H153776   3.686   0.465   3.941 -0.5493 -0.0532  0.3947
10787TIP3    H253777   3.759   0.357   4.019 -0.8472  0.2818  1.1476
10788TIP3   OH253778   5.216   1.224   2.997  0.0820 -0.2364  0.0641
10788TIP3    H153779   5.219   1.265   3.084  1.1658 -1.4700  0.6459
10788TIP3    H253780   5.307   1.225   2.967 -0.0406 -1.2141 -0.3689
10789TIP3   OH253781   5.140   1.796   1.109  0.0236 -0.0086 -0.1399
10789TIP3    H153782   5.087   1.870   1.080 -0.2343 -0.2389 -0.2544
10789TIP3    H253783   5.105   1.720   1.063 -1.0254 -0.5483  1.4520
10790TIP3   OH253784   6.317   3.786  14.078 -0.3379  0.3368 -0.2680
10790TIP3    H153785   6.243   3.728  14.063 -0.0680 -0.3258  0.8684
10790TIP3    H253786   6.288   3.844  14.148  0.7347 -0.9682  1.3419
10791TIP3   OH253787   2.788   4.382  14.766  0.5181 -0.5886  0.1374
10791TIP3    H153788   2.856   4.446  14.789  1.7101 -1.3812 -1.0555
10791TIP3    H253789   2.706   4.427  14.787  1.3701  0.6132  1.0933
10792TIP3   OH253790   3.978   3.745   2.524  0.0485 -0.1446 -0.2749
10792TIP3    H153791   4.028   3.672   2.487 -0.5389 -0.2438 -0.8809
10792TIP3    H253792   3.906   3.758   2.463 -0.2207  0.5180  0.1792
10793TIP3   OH253793   6.095   6.150  10.861 -0.0679  0.2784  0.1271
10793TIP3    H153794   6.138   6.147  10.775 -1.3113 -1.0149 -0.4953
10793TIP3    H253795   6.019   6.092  10.851 -1.0210  1.2110  1.6825
10794TIP3   OH253796   4.071   2.570   5.464 -0.6852  0.1987  0.5996
10794TIP3    H153797   4.012   2.505   5.502  1.4462  0.0025  3.9846
10794TIP3    H253798   4.135   2.518   5.415 -0.4621 -0.0273  1.1285
10795TIP3   OH253799   4.319   5.673   1.767 -0.1486  0.1025 -0.1107
10795TIP3    H153800   4.381   5.671   1.694 -1.8667 -0.5446 -1.6210
10795TIP3    H253801   4.259   5.744   1.745  0.8237  1.7061  2.0615
10796TIP3   OH253802   2.688   1.827   3.471 -0.4483 -0.0261 -0.0866
10796TIP3    H153803   2.764   1.874   3.504  0.5761 -1.7779  0.1537
10796TIP3    H253804   2.713   1.797   3.384 -0.7425 -0.8473  0.1004
10797TIP3   OH253805   1.479   4.259  13.076 -0.2606  0.4744 -0.0639
10797TIP3    H153806   1.531   4.339  13.073  0.9814 -0.3320 -1.0403
10797TIP3    H253807   1.503   4.212  12.997 -1.1212 -0.7805  0.3884
10798TIP3   OH253808   1.720   1.712  11.685  0.0251 -0.0349  0.5226
10798TIP3    H153809   1.628   1.718  11.711 -1.0047  4.2400 -2.9111
10798TIP3    H253810   1.717   1.684  11.593  2.1485  0.1385  0.3561
10799TIP3   OH253811   2.428   1.777  12.408 -0.4736  0.0836  0.2770
10799TIP3    H153812   2.476   1.762  12.489  0.0003 -0.7997 -0.1517
10799TIP3    H253813   2.472   1.721  12.344  0.2855  2.0698 -1.0295
10800TIP3   OH253814   6.299   4.275  16.218 -0.2850  0.2557  0.2340
10800TIP3    H153815   6.327   4.184  16.218  1.5024  0.7511 -0.9177
10800TIP3    H253816   6.214   4.275  16.174 -0.0286 -0.7790 -0.2784
10801TIP3   OH253817   3.682   1.655   5.785 -0.5458 -0.2937 -0.4911
10801TIP3    H153818   3.603   1.600   5.782 -0.1355 -0.9784  0.4988
10801TIP3    H253819   3.733   1.619   5.858  0.8448 -0.0787 -1.3313
10802TIP3   OH253820   4.510   3.835  12.395  0.2504  0.5376 -0.1327
10802TIP3    H153821   4.553   3.804  12.475  1.0410  0.8397 -0.4239
10802TIP3    H253822   4.538   3.774  12.327  0.6989  1.0591 -0.4340
10803TIP3   OH253823   2.745   0.054   2.790 -0.2824 -0.0438 -0.1203
10803TIP3    H153824   2.776   0.142   2.814  0.5115 -0.5668  0.8476
10803TIP3    H253825   2.661   0.045   2.835 -0.2880  0.1628 -0.0889
10804TIP3   OH253826   2.001   2.628  15.737  0.0129  0.5573 -0.3711
10804TIP3    H153827   2.012   2.573  15.660  1.6714  1.0586 -0.5262
10804TIP3    H253828   1.923   2.593  15.781  0.1974 -0.9918 -1.2109
10805TIP3   OH253829   1.815   2.350  17.318 -0.6246  0.2969 -0.3206
10805TIP3    H153830   1.775   2.355  17.231 -1.2927  1.3286  0.0237
10805TIP3    H253831   1.755   2.295  17.369 -0.1691 -0.4099 -0.5328
10806TIP3   OH253832   5.576   2.105  14.196 -0.0381  0.0419 -0.3650
10806TIP3    H153833   5.573   2.011  14.213  3.0680 -0.6716 -2.7848
10806TIP3    H253834   5.651   2.137  14.246 -0.0804  0.9003 -0.8224
10807TIP3   OH253835   4.947   3.970   3.906  0.1352 -0.4004  0.4551
10807TIP3    H153836   4.877   3.956   3.970 -1.3027  2.0170 -0.4248
10807TIP3    H253837   4.917   3.924   3.828 -0.4407  0.4840  0.1350
10808TIP3   OH253838   6.631   2.512  14.199  0.4367  0.3609 -0.2548
10808TIP3    H153839   6.648   2.606  14.194 -1.3100  0.7921  0.8637
10808TIP3    H253840   6.664   2.485  14.284 -1.9245  0.6981  0.8454
10809TIP3   OH253841   2.779   0.189   4.034  0.5582  0.0728 -0.4312
10809TIP3    H153842   2.695   0.197   4.079  0.1649 -1.3195 -0.8644
10809TIP3    H253843   2.757   0.190   3.941  1.0301 -0.1915 -0.5506
10810TIP3   OH253844   1.795   5.794  16.157 -0.1377  0.1317  0.4265
10810TIP3    H153845   1.738   5.811  16.232  0.0375 -0.5598  0.7206
10810TIP3    H253846   1.853   5.724  16.186 -0.0400 -0.1151 -0.3431
10811TIP3   OH253847   2.325   5.722  16.019 -0.2882  0.7411 -0.6533
10811TIP3    H153848   2.327   5.626  16.018 -1.4685  0.7104 -0.4906
10811TIP3    H253849   2.359   5.746  16.105  1.8921  0.5507 -1.3926
10812TIP3   OH253850   1.691   5.521   3.243 -0.2552  0.7159  0.1523
10812TIP3    H153851   1.668   5.529   3.336  0.6533  0.9007  0.3732
10812TIP3    H253852   1.692   5.427   3.227  1.9358  0.5201  0.9874
10813TIP3   OH253853   3.114   0.647   3.059 -0.2487 -0.1935  0.2469
10813TIP3    H153854   3.102   0.560   3.098 -1.5281 -0.3102 -0.3476
10813TIP3    H253855   3.209   0.659   3.056 -0.0205 -1.9285 -0.4094
10814TIP3   OH253856   1.151   3.107   2.035  0.2791  0.3789 -0.4179
10814TIP3    H153857   1.098   3.157   2.097  0.2897  1.0170 -0.9112
10814TIP3    H253858   1.166   3.167   1.962  2.6682  0.6304  0.1890
10815TIP3   OH253859   1.770   3.453  15.452 -0.6607  0.3369 -0.6392
10815TIP3    H153860   1.740   3.497  15.532 -1.8638  1.3316 -1.5826
10815TIP3    H253861   1.714   3.489  15.383 -1.3354 -2.2807 -1.5716
10816TIP3   OH253862   6.666   2.721   3.076 -0.4002  0.3134  0.2716
10816TIP3    H153863   6.610   2.691   3.005  0.1642  0.1763 -0.1220
10816TIP3    H253864   6.749   2.743   3.033 -0.2945  0.9238  0.7835
10817TIP3   OH253865   3.461   5.647   3.489  0.5460  0.2206  0.4305
10817TIP3    H153866   3.488   5.557   3.505  2.6561  0.6441 -0.4581
10817TIP3    H253867   3.531   5.684   3.437 -0.4427  2.3067  0.4909
10818TIP3   OH253868   1.715   2.479  16.874 -0.1803 -0.5445 -0.3004
10818TIP3    H153869   1.659   2.411  16.837 -1.1552  0.4451 -0.7070
10818TIP3    H253870   1.699   2.556  16.819  3.4909 -0.8272 -2.0663
10819TIP3   OH253871   4.051   1.327  12.894  0.0127  0.1443  0.0921
10819TIP3    H153872   4.134   1.351  12.852  0.7645 -1.8126  0.3419
10819TIP3    H253873   3.992   1.309  12.821 -0.4378  2.1505 -0.0936
10820TIP3   OH253874   4.346   3.207   2.934 -0.1851  0.4363  0.2319
10820TIP3    H153875   4.311   3.283   2.889 -1.2723  1.9478  3.3418
10820TIP3    H253876   4.428   3.239   2.974 -0.1968 -0.2757  0.8454
10821TIP3   OH253877   3.383   0.090   1.634  1.0216  0.0015 -0.1596
10821TIP3    H153878   3.319   0.076   1.704  0.5707  1.1013 -0.3183
10821TIP3    H253879   3.438   0.012   1.634  0.6248 -0.2894  0.9955
10822TIP3   OH253880   1.894   3.366  17.114 -0.0380  0.7309 -0.1012
10822TIP3    H153881   1.941   3.349  17.032 -0.5021 -0.7157 -0.0990
10822TIP3    H253882   1.899   3.284  17.162 -1.4563  0.9444  0.4672
10823TIP3   OH253883   1.184   2.307  14.549 -0.4678 -0.6610 -0.5523
10823TIP3    H153884   1.112   2.314  14.485  0.5410  0.9976 -1.5940
10823TIP3    H253885   1.230   2.391  14.542  1.0949 -1.3680  0.6736
10824TIP3   OH253886   3.592   2.654  11.330 -0.2688 -0.5058 -0.1432
10824TIP3    H153887   3.602   2.630  11.238  0.8978  0.9705 -0.4441
10824TIP3    H253888   3.672   2.622  11.371 -0.6269 -0.8395  0.3091
10825TIP3   OH253889   0.824   4.280  13.008  0.0804 -0.0684  0.2746
10825TIP3    H153890   0.815   4.223  12.932  0.9640  0.9255 -0.6232
10825TIP3    H253891   0.745   4.334  13.007  0.8419  1.0781 -0.9615
10826TIP3   OH253892   0.013   1.920   6.315 -0.1264 -0.0363  0.0324
10826TIP3    H153893   0.083   1.978   6.346 -0.5087  0.3177  0.2520
10826TIP3    H253894  -0.067   1.958   6.352 -0.8814  1.5878 -2.9371
10827TIP3   OH253895   1.573   3.097   3.289  0.2586  0.6879  0.6112
10827TIP3    H153896   1.664   3.127   3.288  0.1651  0.9740  0.3593
10827TIP3    H253897   1.530   3.151   3.223  0.4753 -1.2645 -1.2473
10828TIP3   OH253898   2.902   0.151   3.119  0.1869 -0.1569  0.3641
10828TIP3    H153899   2.843   0.114   3.184  0.5768 -3.5849 -1.0404
10828TIP3    H253900   2.845   0.176   3.046  0.1591 -0.0575  0.4185
10829TIP3   OH253901   0.457   1.631   6.626 -0.6256 -0.0212 -0.6109
10829TIP3    H153902   0.443   1.723   6.646 -0.3973 -0.5322  2.3400
10829TIP3    H253903   0.540   1.610   6.668 -1.3361 -1.8689 -0.0308
10830TIP3   OH253904   0.185   4.633  14.957 -0.5183 -0.2029 -0.4005
10830TIP3    H153905   0.231   4.549  14.957  0.1427  0.1532 -0.6129
10830TIP3    H253906   0.252   4.697  14.935 -0.9183  0.4432  0.2068
10831TIP3   OH253907   4.618   2.062  11.000 -0.3363  0.5600 -0.6792
10831TIP3    H153908   4.628   2.059  10.905 -0.9431 -3.0051 -0.7563
10831TIP3    H253909   4.658   2.146  11.025 -0.6068  1.8694 -4.0565
10832TIP3   OH253910   0.875   0.350  16.647 -0.1777 -0.0088 -0.2637
10832TIP3    H153911   0.913   0.315  16.566 -0.1458  1.2258 -0.8072
10832TIP3    H253912   0.787   0.377  16.623  0.8110  3.1518 -0.7303
10833TIP3   OH253913   0.512   4.654  16.780 -0.3604 -0.3306 -0.8012
10833TIP3    H153914   0.518   4.747  16.762  2.5073 -0.7576 -2.6756
10833TIP3    H253915   0.567   4.641  16.858 -0.9285 -0.4410 -0.4128
10834TIP3   OH253916   4.814   3.679   4.198  0.2687 -0.3039 -0.1461
10834TIP3    H153917   4.791   3.712   4.284  0.4658  1.2703 -0.6686
10834TIP3    H253918   4.799   3.753   4.139  1.5384 -0.8933 -1.2591
10835TIP3   OH253919   2.910   1.271  17.344  0.6630  0.3490  0.4078
10835TIP3    H153920   2.877   1.346  17.295  0.5454  0.2575  0.3445
10835TIP3    H253921   2.982   1.306  17.396 -0.1588  0.7664  1.2973
10836TIP3   OH253922   4.653   3.961  16.779  0.0076  0.0064 -0.6038
10836TIP3    H153923   4.704   3.908  16.840 -1.1832  0.1980  0.6012
10836TIP3    H253924   4.716   3.987  16.711  0.8386 -2.1422 -0.7432
10837TIP3   OH253925   3.759   3.266   1.033  0.1931 -0.0320 -0.6279
10837TIP3    H153926   3.696   3.315   1.086  0.0826 -0.5935 -0.2346
10837TIP3    H253927   3.708   3.238   0.957  0.2512  0.4427 -0.8439
10838TIP3   OH253928   5.146   3.179  13.162  0.5483 -0.1711 -0.4160
10838TIP3    H153929   5.141   3.263  13.116 -0.3779 -0.5055 -0.9450
10838TIP3    H253930   5.229   3.183  13.210  0.2136  1.3000  0.0801
10839TIP3   OH253931   3.180   0.853  10.591 -0.3177  0.3516  0.2230
10839TIP3    H153932   3.101   0.827  10.544  0.0278 -1.0257  0.3784
10839TIP3    H253933   3.248   0.857  10.524  0.1355 -1.4417  0.5278
10840TIP3   OH253934   3.454   4.754  15.865  0.3535  0.2790 -0.6610
10840TIP3    H153935   3.543   4.729  15.890  0.1783 -0.0098 -0.3223
10840TIP3    H253936   3.430   4.694  15.795  0.2972  0.1337 -0.5171
10841TIP3   OH253937   4.657   2.596   3.576  0.0848  0.0420 -0.7053
10841TIP3    H153938   4.594   2.587   3.647  0.8425  4.7644  0.9063
10841TIP3    H253939   4.740   2.567   3.614 -0.0795 -0.7298 -0.9098
10842TIP3   OH253940   4.208   1.761   3.159  0.3005 -0.3495 -0.5487
10842TIP3    H153941   4.241   1.846   3.128  1.5406 -1.3897 -2.2798
10842TIP3    H253942   4.285   1.717   3.194 -0.3076 -0.8336  0.2066
10843TIP3   OH253943   1.042   4.300   1.723  0.2379 -0.3981 -0.6693
10843TIP3    H153944   1.117   4.325   1.670  0.3307  1.1204  0.1207
10843TIP3    H253945   1.061   4.210   1.751  0.7819 -0.7512 -2.1100
10844TIP3   OH253946   3.348   2.200   4.766 -0.0632  0.1402 -0.1930
10844TIP3    H153947   3.260   2.211   4.728 -0.2739  0.7888  0.4772
10844TIP3    H253948   3.348   2.255   4.844  0.5137 -0.8589  0.5304
10845TIP3   OH253949   4.694   2.976   4.882  0.3736 -0.1374 -0.0887
10845TIP3    H153950   4.616   3.030   4.872  0.3795  0.2235  1.5679
10845TIP3    H253951   4.661   2.887   4.888  0.1930 -0.1062 -0.5522
10846TIP3   OH253952   5.007   4.553  12.208 -0.0909 -0.4080 -0.6704
10846TIP3    H153953   4.987   4.571  12.300 -1.8532  1.2059 -1.3095
10846TIP3    H253954   5.044   4.465  12.208  1.9728  0.3335  1.8247
10847TIP3   OH253955   2.940   2.721  14.933 -0.0841 -0.1374  0.0377
10847TIP3    H153956   3.016   2.771  14.962  0.0093  0.8288 -1.7365
10847TIP3    H253957   2.959   2.698  14.842 -1.4386 -0.8497 -0.0969
10848TIP3   OH253958   1.209   5.802  12.010  0.1417 -0.3509 -0.0701
10848TIP3    H153959   1.204   5.863  12.083  0.0585 -0.0843 -0.2990
10848TIP3    H253960   1.163   5.845  11.938  1.9325  0.2740 -0.9048
10849TIP3   OH253961   3.518   1.472   2.004  0.1459 -0.2411  0.6175
10849TIP3    H153962   3.473   1.427   1.933  1.5263 -0.9473  0.1569
10849TIP3    H253963   3.590   1.413   2.029  1.3844  1.2343  0.6999
10850TIP3   OH253964   6.039   0.169  14.282  0.0753  0.0355  0.0628
10850TIP3    H153965   5.980   0.095  14.264 -1.1341  0.9520  0.0859
10850TIP3    H253966   6.050   0.212  14.198  0.2126  0.2257  0.1769
10851TIP3   OH253967   0.366   3.045   5.767 -0.3937  0.2225  0.5921
10851TIP3    H153968   0.350   2.998   5.848 -0.3525 -2.0886 -0.6407
10851TIP3    H253969   0.282   3.086   5.746 -0.8821 -0.5663  0.9603
10852TIP3   OH253970   1.338   4.052   6.309 -0.4826  0.1535  0.3384
10852TIP3    H153971   1.316   4.007   6.391 -0.8622  0.9117  0.6652
10852TIP3    H253972   1.430   4.030   6.294  0.8022  3.0107  3.0178
10853TIP3   OH253973   5.668   2.942   0.664  0.1386  0.1020  0.1312
10853TIP3    H153974   5.672   2.855   0.625  0.8829 -0.0103  0.4446
10853TIP3    H253975   5.633   2.928   0.752  2.0464 -0.1513  0.8959
10854TIP3   OH253976   2.733   6.113  15.703 -0.4820 -0.0096  0.5473
10854TIP3    H153977   2.751   6.038  15.759  0.3330  1.1573  1.9006
10854TIP3    H253978   2.642   6.102  15.676 -0.2195 -1.7624  0.2313
10855TIP3   OH253979   1.250   5.757   2.196  0.2095  0.3386 -0.0509
10855TIP3    H153980   1.222   5.670   2.168  1.8438 -0.6804  1.2845
10855TIP3    H253981   1.223   5.762   2.288  2.0957  0.3102  0.5347
10856TIP3   OH253982   1.663   3.463   3.435  0.3107 -0.3476 -0.1303
10856TIP3    H153983   1.683   3.556   3.423 -0.3163 -0.1035  0.6478
10856TIP3    H253984   1.747   3.419   3.422  0.5240  0.2718 -0.9672
10857TIP3   OH253985   1.334   0.738  16.468 -0.3452 -0.0770 -0.5184
10857TIP3    H153986   1.304   0.828  16.482  0.3897  0.1116 -0.1221
10857TIP3    H253987   1.253   0.686  16.463 -0.7844  0.6462 -1.0849
10858TIP3   OH253988   4.995   3.449  12.051 -0.0233  0.1948 -0.1277
10858TIP3    H153989   5.024   3.527  12.098 -2.3651  0.4504  1.0586
10858TIP3    H253990   4.903   3.468  12.028  0.0719 -1.2518 -1.9836
10859TIP3   OH253991   4.192   1.971   1.176 -0.3319  0.1472  0.1771
10859TIP3    H153992   4.166   1.989   1.086 -1.9670  0.2583  0.6379
10859TIP3    H253993   4.248   2.045   1.201  0.0924  0.1326 -0.7249
10860TIP3   OH253994   4.172   5.835   5.046  0.6768 -0.4122  0.2563
10860TIP3    H153995   4.148   5.804   5.133  0.8661 -0.5396  0.2666
10860TIP3    H253996   4.128   5.774   4.986 -2.9837  2.1092  0.0811
10861TIP3   OH253997   1.593   4.373  14.052 -0.0769 -0.3153  0.1763
10861TIP3    H153998   1.560   4.405  13.968 -1.2012  1.1737  1.1197
10861TIP3    H253999   1.671   4.322  14.030 -0.3755 -0.0079 -1.7597
10862TIP3   OH254000   4.363   2.251  10.788 -0.0527  0.5090  0.1352
10862TIP3    H154001   4.436   2.312  10.799 -0.2052  0.5597  0.9018
10862TIP3    H254002   4.404   2.167  10.769  0.1947  0.5992  0.2740
10863TIP3   OH254003   0.037   0.960   5.425  0.2450  0.2721  0.6745
10863TIP3    H154004   0.005   0.881   5.381 -0.1363  0.3794  0.7571
10863TIP3    H254005   0.073   0.927   5.508  1.6575 -0.0256 -0.0226
10864TIP3   OH254006   0.946   1.800   1.139  0.6351  0.5656 -0.3418
10864TIP3    H154007   0.866   1.762   1.174  1.6959 -2.2499 -0.6690
10864TIP3    H254008   0.956   1.883   1.186 -1.6645  0.3005  0.7638
10865TIP3   OH254009   2.030   2.260   4.178  0.7699 -0.5328 -0.5341
10865TIP3    H154010   2.110   2.209   4.167  0.9599  0.0440 -2.0746
10865TIP3    H254011   2.051   2.323   4.247  1.8516 -0.0249 -1.3011
10866TIP3   OH254012   0.047   2.945  13.626  0.0305  0.3698  0.2987
10866TIP3    H154013   0.028   2.940  13.532 -0.8941  0.7792  0.4522
10866TIP3    H254014   0.132   2.904  13.635 -0.6038 -1.1936 -0.4914
10867TIP3   OH254015   4.086   3.950   3.099 -0.0455  0.6767  1.0766
10867TIP3    H154016   4.055   3.933   3.188 -0.1543 -0.4606  0.8393
10867TIP3    H254017   4.061   4.041   3.082 -1.4881  0.4133  1.6217
10868TIP3   OH254018   4.224   4.926  14.204 -0.7028  0.0149  0.5772
10868TIP3    H154019   4.311   4.955  14.229 -0.8936  0.7527  0.4187
10868TIP3    H254020   4.167   5.000  14.227 -1.1585 -0.1086 -0.1298
10869TIP3   OH254021   4.206   1.622   5.751 -0.2145  0.0842 -0.3894
10869TIP3    H154022   4.226   1.715   5.762 -0.7573 -0.1114  3.0869
10869TIP3    H254023   4.283   1.576   5.786 -1.8078 -0.6658  2.4013
10870TIP3   OH254024   1.196   3.522   0.432  0.3678 -0.1623 -0.8213
10870TIP3    H154025   1.228   3.449   0.379  1.3997 -0.8694  0.7238
10870TIP3    H254026   1.256   3.528   0.506  0.0243  1.9632 -0.6330
10871TIP3   OH254027   2.245   4.408  11.320 -0.3306  0.5249 -0.5184
10871TIP3    H154028   2.219   4.316  11.332  0.5564  0.3886  0.5848
10871TIP3    H254029   2.171   4.458  11.354  0.4014  0.1582  1.8192
10872TIP3   OH254030   4.090   2.672   1.256  0.9531  0.3208 -0.5646
10872TIP3    H154031   4.006   2.715   1.241  0.4404 -0.3738  0.2134
10872TIP3    H254032   4.127   2.659   1.168 -0.0889 -0.0169 -0.9682
10873TIP3   OH254033   6.562   1.431  15.760 -0.2277  0.9336 -0.7223
10873TIP3    H154034   6.651   1.442  15.726 -0.5984  0.0922 -2.0622
10873TIP3    H254035   6.559   1.484  15.840  1.9418 -0.2517  0.2034
10874TIP3   OH254036   2.973   2.469   0.987 -0.1932 -0.6150 -0.0742
10874TIP3    H154037   3.057   2.435   1.019  0.4362  1.6671  0.9043
10874TIP3    H254038   2.940   2.400   0.929  1.4304 -2.3955  0.9894
10875TIP3   OH254039   2.495   1.694  12.986 -0.6306 -0.5234  0.6922
10875TIP3    H154040   2.527   1.694  13.077  0.6216 -0.2551  0.2672
10875TIP3    H254041   2.561   1.741  12.937 -1.1765 -0.8796 -0.4225
10876TIP3   OH254042   2.689   3.038   1.987 -0.6726  0.6100  0.6025
10876TIP3    H154043   2.626   3.026   1.916 -0.5112  0.2048  0.5252
10876TIP3    H254044   2.739   2.957   1.989 -2.1416 -0.3441  2.6284
10877TIP3   OH254045   1.462   1.645   6.379 -0.3610  0.9869 -0.5054
10877TIP3    H154046   1.558   1.645   6.375 -0.2438 -0.3190  1.1905
10877TIP3    H254047   1.439   1.730   6.416  0.0514  1.6746 -1.7489
10878TIP3   OH254048   2.512   3.689   0.860 -0.0811  0.3451  0.1044
10878TIP3    H154049   2.550   3.753   0.921 -1.4158  0.0450  1.3236
10878TIP3    H254050   2.498   3.611   0.914 -1.1388  0.0142 -0.6262
10879TIP3   OH254051   4.141   3.277  14.853  0.3874  0.3444 -0.7670
10879TIP3    H154052   4.192   3.358  14.852  0.1001  0.5284 -0.7927
10879TIP3    H254053   4.094   3.277  14.769  0.1172  0.3268 -0.6175
10880TIP3   OH254054   6.558   4.890  15.198  0.1204 -0.0740 -0.0530
10880TIP3    H154055   6.502   4.823  15.236  0.5797 -0.6240 -0.3277
10880TIP3    H254056   6.626   4.841  15.151  0.3849  0.5812 -0.3712
10881TIP3   OH254057   0.792   4.100  14.010 -0.1091  0.2313 -0.5190
10881TIP3    H154058   0.829   4.022  13.968 -0.9395 -0.4393 -0.0427
10881TIP3    H254059   0.702   4.105  13.977  0.0804  1.2635 -0.9023
10882TIP3   OH254060   2.392   4.521  15.842 -0.0406 -0.1735 -0.8576
10882TIP3    H154061   2.363   4.568  15.764  3.0383  0.5809 -1.6769
10882TIP3    H254062   2.432   4.441  15.808 -1.5865 -1.4831  0.2569
10883TIP3   OH254063   0.141   1.639   1.216 -0.4618 -0.4190  0.0249
10883TIP3    H154064   0.090   1.719   1.232  1.0733  0.8112 -0.8301
10883TIP3    H254065   0.113   1.578   1.284 -2.4394  0.4667  0.0801
10884TIP3   OH254066   2.822   3.773   4.320 -0.1391  0.1683  0.1029
10884TIP3    H154067   2.872   3.831   4.261 -1.6500  0.4481 -0.9545
10884TIP3    H254068   2.889   3.715   4.357  1.3220  2.0657  0.6278
10885TIP3   OH254069   6.325   4.195   3.645  0.0482 -0.5156  0.5104
10885TIP3    H154070   6.313   4.100   3.650 -0.4838 -0.5187 -0.4288
10885TIP3    H254071   6.355   4.220   3.732  1.9006 -1.7705  0.2988
10886TIP3   OH254072   6.474   2.825  17.187  0.2925 -0.2443 -0.1854
10886TIP3    H154073   6.383   2.815  17.162 -0.2688  0.3389  1.5241
10886TIP3    H254074   6.521   2.759  17.135 -1.0869 -0.5322 -1.0904
10887TIP3   OH254075   2.889   5.990   1.449 -0.3883 -0.1928 -0.7387
10887TIP3    H154076   2.884   6.036   1.365 -2.0276 -0.6829 -0.9438
10887TIP3    H254077   2.798   5.981   1.477  0.1188 -0.0096  1.1260
10888TIP3   OH254078   2.133   3.153   5.396  0.1214 -0.2522  0.0340
10888TIP3    H154079   2.065   3.218   5.379 -0.7814 -1.5682 -1.5837
10888TIP3    H254080   2.201   3.172   5.332  1.5885  1.3496  1.9352
10889TIP3   OH254081   3.871   3.439  14.774 -0.4205 -0.1354  0.4546
10889TIP3    H154082   3.875   3.387  14.855  0.2511 -0.0487  0.4851
10889TIP3    H254083   3.816   3.514  14.796 -0.1836 -0.0742  0.8574
10890TIP3   OH254084   0.867   6.047  16.020 -0.5155  0.3344  0.4308
10890TIP3    H154085   0.954   6.052  16.060 -0.2071  0.8041 -0.2787
10890TIP3    H254086   0.878   5.986  15.947 -0.1943  2.0574 -1.0457
10891TIP3   OH254087   3.574   2.301  15.064  0.1084  0.4208  0.3797
10891TIP3    H154088   3.577   2.207  15.050 -0.0399  0.5926 -0.9682
10891TIP3    H254089   3.589   2.313  15.158  0.8902 -0.8917  0.4306
10892TIP3   OH254090   2.237   2.510   3.475  0.1609 -0.8119  0.5596
10892TIP3    H154091   2.230   2.578   3.542 -1.4479 -0.7737  0.4016
10892TIP3    H254092   2.305   2.452   3.507  1.3293  0.6673  0.8793
10893TIP3   OH254093   2.523   3.005  15.221 -0.2603  0.3739 -0.4980
10893TIP3    H154094   2.593   2.956  15.178 -1.5973 -1.7530 -0.4112
10893TIP3    H254095   2.519   3.088  15.172  1.3443 -0.0272 -1.3980
10894TIP3   OH254096   6.124   0.933   4.390  0.3206  0.2996 -0.1907
10894TIP3    H154097   6.037   0.960   4.359  0.5147  1.0777 -0.0813
10894TIP3    H254098   6.110   0.900   4.478  0.3919  2.2995  0.6300
10895TIP3   OH254099   1.925   5.128   1.825 -0.2484 -0.2673 -0.0085
10895TIP3    H154100   1.939   5.037   1.852 -1.1547 -0.0366  1.3291
10895TIP3    H254101   1.994   5.177   1.868 -0.4651 -0.1712  0.2326
10896TIP3   OH254102   5.299   6.735   3.240  0.2513  0.2862  0.2331
10896TIP3    H154103   5.360   6.789   3.291  0.6016  0.5401 -0.4474
10896TIP3    H254104   5.212   6.769   3.262  0.2897 -0.4360  1.6417
10897TIP3   OH254105   6.584   0.947  13.410 -0.1962  0.4654 -0.0907
10897TIP3    H154106   6.579   0.900  13.328  0.4352  1.7149 -0.8859
10897TIP3    H254107   6.657   1.008  13.398 -1.6733  2.4474  0.4297
10898TIP3   OH254108   1.374   3.191  12.024  0.1794 -0.5954  0.8195
10898TIP3    H154109   1.403   3.281  12.012 -0.7619 -0.4431 -0.6745
10898TIP3    H254110   1.326   3.191  12.106  0.6020  0.1447  1.0708
10899TIP3   OH254111   4.970   0.743   3.693  0.0767  0.0201  0.0063
10899TIP3    H154112   5.000   0.813   3.751  0.5878  1.0423 -1.4287
10899TIP3    H254113   4.990   0.775   3.605 -1.6733 -0.9775 -0.8168
10900TIP3   OH254114   2.623   3.427   1.323  0.2592  0.1828  0.6398
10900TIP3    H154115   2.542   3.383   1.301  0.9820 -0.6369 -0.5117
10900TIP3    H254116   2.678   3.417   1.245  1.3201  1.0540  1.2397
10901TIP3   OH254117   5.507   3.292  12.187 -0.3325 -0.1433 -0.3876
10901TIP3    H154118   5.443   3.241  12.236  0.7607 -1.8868 -0.6848
10901TIP3    H254119   5.506   3.253  12.099  1.0730 -0.1563 -0.4115
10902TIP3   OH254120   1.129   3.835   0.686 -0.4922  0.1152 -0.2536
10902TIP3    H154121   1.154   3.855   0.596  0.2780  2.2406  0.3604
10902TIP3    H254122   1.211   3.807   0.728 -0.7134 -0.2533 -0.0699
10903TIP3   OH254123   4.673   6.676  15.604  0.4337 -0.1962 -0.2092
10903TIP3    H154124   4.598   6.622  15.580  0.4514  0.3675 -1.6224
10903TIP3    H254125   4.749   6.621  15.586  0.4555  0.2743 -1.7382
10904TIP3   OH254126   1.253   3.451   2.304 -0.2742 -0.0502  0.3229
10904TIP3    H154127   1.321   3.400   2.260 -0.8981 -1.4823  0.9566
10904TIP3    H254128   1.293   3.476   2.388 -0.1537  0.0350  0.2398
10905TIP3   OH254129   5.176   6.275   2.861  0.3518 -0.3353  0.2545
10905TIP3    H154130   5.177   6.334   2.785 -1.1330 -1.5822 -0.8018
10905TIP3    H254131   5.170   6.334   2.937  3.3711  1.0219 -0.4095
10906TIP3   OH254132   6.156   0.140   5.657  0.5078 -0.1498  0.2132
10906TIP3    H154133   6.245   0.130   5.623 -0.6786 -0.9500 -2.9702
10906TIP3    H254134   6.141   0.061   5.709  1.0800 -0.8891 -0.7162
10907TIP3   OH254135   1.313   5.306  11.327  0.3423 -0.2274 -0.3610
10907TIP3    H154136   1.314   5.251  11.249  1.7600  0.6967 -1.0471
10907TIP3    H254137   1.393   5.283  11.374  0.2806  0.3055  0.0206
10908TIP3   OH254138   1.068   6.164  13.755  0.1394 -0.4977  0.1486
10908TIP3    H154139   1.007   6.235  13.739  0.2456 -0.1141  1.3160
10908TIP3    H254140   1.107   6.145  13.670 -1.6447 -0.8073 -0.6463
10909TIP3   OH254141   6.484   4.476   1.965  0.5822  0.3602  0.1062
10909TIP3    H154142   6.504   4.458   2.056  3.0719 -1.3902 -0.6768
10909TIP3    H254143   6.413   4.416   1.943  2.7133 -2.3038 -0.0641
10910TIP3   OH254144   0.317   0.383   4.990 -0.0860 -0.0073  0.0850
10910TIP3    H154145   0.411   0.402   4.992  0.4222 -2.2742  0.0422
10910TIP3    H254146   0.298   0.370   4.897 -0.5533  0.8433  0.0530
10911TIP3   OH254147   1.794   2.170   0.736 -0.4551  0.4614  0.2898
10911TIP3    H154148   1.731   2.241   0.717  0.7145  1.0317 -1.7610
10911TIP3    H254149   1.880   2.212   0.730  0.2053 -0.7518  0.9122
10912TIP3   OH254150   4.060   6.411   4.158  0.6345  0.0739  0.4861
10912TIP3    H154151   3.994   6.347   4.133  1.3395 -0.1762 -0.8062
10912TIP3    H254152   4.119   6.363   4.216 -0.0008  0.1529  1.2158
10913TIP3   OH254153   0.908   1.599   3.317  1.0053  0.2060 -0.1561
10913TIP3    H154154   0.888   1.533   3.384  0.2221  1.1535  0.5897
10913TIP3    H254155   0.936   1.549   3.241  0.9131 -0.9558  0.5514
10914TIP3   OH254156   2.845   5.597   3.081 -0.4670 -0.2323  0.7675
10914TIP3    H154157   2.780   5.566   3.018 -0.2211  2.0838 -0.7601
10914TIP3    H254158   2.819   5.559   3.164 -2.4584 -1.1607 -0.2278
10915TIP3   OH254159   3.569   3.304   1.866  0.1215  0.3689  0.1845
10915TIP3    H154160   3.650   3.296   1.816  0.7865  2.0007  0.9134
10915TIP3    H254161   3.504   3.256   1.814  1.3453 -0.1982 -0.8805
10916TIP3   OH254162   2.316   0.691   3.522 -0.5443  0.2762  0.0100
10916TIP3    H154163   2.265   0.618   3.558 -0.3898 -0.0755 -0.4620
10916TIP3    H254164   2.281   0.702   3.433  0.3528 -0.1221 -0.4046
10917TIP3   OH254165   6.343   0.263  13.822 -0.1460  0.4332  0.5994
10917TIP3    H154166   6.329   0.183  13.873  1.9245 -0.3198  0.0746
10917TIP3    H254167   6.275   0.261  13.755 -1.8699  0.5799  2.2625
10918TIP3   OH254168   0.050   2.773   2.520  0.0998 -0.7151 -0.2978
10918TIP3    H154169  -0.022   2.804   2.464  0.4999 -1.2510 -1.1324
10918TIP3    H254170   0.038   2.819   2.602  0.0814  0.8868 -1.1587
10919TIP3   OH254171   5.441   4.502  15.554  0.0598 -0.2485 -0.2607
10919TIP3    H154172   5.455   4.596  15.542  1.6465 -0.3346  0.6156
10919TIP3    H254173   5.507   4.461  15.498 -1.5783 -0.9040 -1.7795
10920TIP3   OH254174   3.770   5.427  10.740 -0.1671 -0.7208  0.6404
10920TIP3    H154175   3.694   5.385  10.778 -1.2631 -0.1367 -0.8167
10920TIP3    H254176   3.822   5.355  10.703 -1.2162 -0.9562 -0.4244
10921TIP3   OH254177   2.773   2.732   2.740  0.6094  0.5952  0.1255
10921TIP3    H154178   2.780   2.817   2.698 -0.8270  1.3066  1.2221
10921TIP3    H254179   2.709   2.684   2.687 -0.4382  1.1274  0.8596
10922TIP3   OH254180   4.766   6.027  16.976  0.2473  0.0314  0.0706
10922TIP3    H154181   4.748   5.958  16.912 -0.5107  1.0063 -0.8016
10922TIP3    H254182   4.749   6.109  16.929 -0.5654  0.7817  1.5768
10923TIP3   OH254183   0.173   1.555  13.514 -0.4926  0.2844 -0.1247
10923TIP3    H154184   0.173   1.648  13.535 -0.9833  0.5243 -1.1391
10923TIP3    H254185   0.257   1.523  13.548 -1.1720  0.6297  2.0783
10924TIP3   OH254186   3.012   3.486   5.488  0.2559  0.5025 -0.2001
10924TIP3    H154187   3.077   3.556   5.482  2.4272 -1.4043 -0.4509
10924TIP3    H254188   3.013   3.460   5.580  1.8496 -1.2236 -0.6446
10925TIP3   OH254189   6.421   4.934   4.920  0.0119 -0.1082 -0.8168
10925TIP3    H154190   6.480   4.944   4.995 -0.9867  1.2361 -0.1845
10925TIP3    H254191   6.348   4.881   4.952 -0.4569  0.5352 -0.8105
10926TIP3   OH254192   4.042   3.624  14.249  0.2396  0.2588  0.5816
10926TIP3    H154193   3.994   3.707  14.245 -0.2160 -0.0522 -2.3784
10926TIP3    H254194   4.096   3.632  14.328 -2.3280  1.8837  2.3570
10927TIP3   OH254195   1.788   4.798   6.204  0.0643 -0.0032 -0.0938
10927TIP3    H154196   1.721   4.730   6.210 -1.1291  1.0957 -0.4179
10927TIP3    H254197   1.784   4.844   6.288 -0.3575  0.7351 -0.5026
10928TIP3   OH254198   0.012   1.830   1.586 -0.1787 -0.4541 -0.5447
10928TIP3    H154199   0.085   1.891   1.574 -0.1679 -0.2580  0.4601
10928TIP3    H254200   0.036   1.777   1.661 -0.7795 -0.8311 -0.6114
10929TIP3   OH254201   0.277   3.238   5.486  0.1114 -0.1542  0.0368
10929TIP3    H154202   0.315   3.175   5.548  1.1264  0.7539  0.3645
10929TIP3    H254203   0.183   3.221   5.490  0.1104  0.0844  2.0706
10930TIP3   OH254204   0.208   5.955   1.707  0.2760  0.1495  0.2610
10930TIP3    H154205   0.293   5.936   1.669 -0.6019  0.4169 -2.0151
10930TIP3    H254206   0.174   6.028   1.655 -1.5598 -0.3083  0.7391
10931TIP3   OH254207   6.143   6.631  13.592 -0.0282  0.3723 -0.0695
10931TIP3    H154208   6.127   6.562  13.656 -1.3212  2.3167  1.8381
10931TIP3    H254209   6.238   6.633  13.581  0.2026 -0.1771  1.6113
10932TIP3   OH254210   6.564   0.784   0.153 -0.0685  0.1513 -0.0675
10932TIP3    H154211   6.496   0.720   0.135  1.6755 -2.2792  1.3594
10932TIP3    H254212   6.527   0.840   0.222 -0.9778 -0.4544 -0.0539
10933TIP3   OH254213   2.624   4.773  13.018 -0.1161  0.5857  0.6559
10933TIP3    H154214   2.690   4.726  13.069 -0.0749  0.6319  0.6459
10933TIP3    H254215   2.638   4.866  13.040  1.0374  0.7700 -0.7462
10934TIP3   OH254216   2.648   1.859   1.172  0.1936  0.1320  0.0931
10934TIP3    H154217   2.553   1.860   1.187  0.4427  0.2147  1.8858
10934TIP3    H254218   2.670   1.949   1.150 -0.2172 -0.0111 -0.9494
10935TIP3   OH254219   1.954   5.459  12.628  0.7358  0.0521  0.3888
10935TIP3    H154220   1.900   5.406  12.569  1.6872 -0.6549  0.1260
10935TIP3    H254221   1.892   5.504  12.684 -0.1271 -0.6114 -0.0176
10936TIP3   OH254222   5.946   3.867  15.681  0.3261  0.2397 -0.1333
10936TIP3    H154223   5.975   3.858  15.771  0.2744  0.1998 -0.1202
10936TIP3    H254224   5.857   3.832  15.681  0.3322  0.2237 -0.2033
10937TIP3   OH254225   1.150   6.201  13.505 -0.0977  0.1270  0.2176
10937TIP3    H154226   1.162   6.295  13.522  1.3575  0.0938 -0.4345
10937TIP3    H254227   1.221   6.179  13.445  0.2886 -1.6427  1.2586
10938TIP3   OH254228   1.932   3.933   4.829 -0.0933 -0.0616 -0.1522
10938TIP3    H154229   1.935   3.839   4.815 -1.3720 -0.2320  0.5776
10938TIP3    H254230   1.943   3.944   4.923  1.6895  0.6391 -0.4134
10939TIP3   OH254231   1.395   1.477   1.877 -0.0722  0.6958  0.2408
10939TIP3    H154232   1.321   1.426   1.911  0.6290  0.1896  1.0483
10939TIP3    H254233   1.375   1.490   1.785 -0.2765 -1.0622  0.0014
10940TIP3   OH254234   3.034   6.322   4.264 -0.3297 -0.7036  0.4123
10940TIP3    H154235   3.037   6.259   4.336  2.3988 -0.0983  0.9449
10940TIP3    H254236   3.038   6.407   4.308 -3.6504 -0.0476 -0.3017
10941TIP3   OH254237   1.289   1.956  12.123 -0.0902 -0.5264 -0.1735
10941TIP3    H154238   1.373   1.911  12.129  0.2453  0.0117 -0.7547
10941TIP3    H254239   1.246   1.937  12.207  0.6636 -0.6904  0.1872
10942TIP3   OH254240   2.555   3.857   5.009 -0.3415 -0.4154 -0.1329
10942TIP3    H154241   2.623   3.925   5.001 -0.4632 -0.2535  0.1947
10942TIP3    H254242   2.590   3.783   4.959 -1.0958  0.5518 -2.2054
10943TIP3   OH254243   0.041   3.841   3.407  0.0918  0.4511 -0.3301
10943TIP3    H154244   0.080   3.923   3.439 -1.3450  1.0396  0.0098
10943TIP3    H254245   0.032   3.787   3.485  0.2808  0.3025 -0.4125
10944TIP3   OH254246   2.834   2.314   5.002  0.1251  0.4483  0.1010
10944TIP3    H154247   2.757   2.362   5.034  0.3245 -0.1608  1.5843
10944TIP3    H254248   2.814   2.294   4.911 -2.1310 -0.9239  0.8128
10945TIP3   OH254249   4.896   1.799  16.060  0.3916 -0.2851  0.0081
10945TIP3    H154250   4.931   1.742  16.128 -1.7267 -3.5886 -1.3807
10945TIP3    H254251   4.801   1.791  16.068  0.0567  0.9643 -1.9349
10946TIP3   OH254252   6.322   0.857  13.382  1.0141  0.4807 -0.6030
10946TIP3    H154253   6.308   0.766  13.409  0.2432 -0.7857 -4.5614
10946TIP3    H254254   6.407   0.880  13.419  0.5558 -1.2524  1.7809
10947TIP3   OH254255   3.738   1.369  14.856  0.0807  0.0866  0.3626
10947TIP3    H154256   3.747   1.464  14.868  0.6914  0.3104 -1.5428
10947TIP3    H254257   3.813   1.333  14.902  1.4552  0.7762 -1.2227
10948TIP3   OH254258   4.477   0.343   5.573  0.1998 -0.0804 -0.0044
10948TIP3    H154259   4.513   0.375   5.656  0.2687  0.1421 -0.1188
10948TIP3    H254260   4.551   0.302   5.529  0.3102  0.3569 -0.2301
10949TIP3   OH254261   5.843   0.874  11.506  0.0155 -0.1227 -0.1368
10949TIP3    H154262   5.759   0.835  11.531 -0.6287  0.9931 -0.5003
10949TIP3    H254263   5.837   0.883  11.411 -0.4554  2.1840  0.0754
10950TIP3   OH254264   2.927   3.567   0.688 -0.2362  0.4329 -0.0500
10950TIP3    H154265   2.945   3.536   0.777 -2.9148 -0.6889  0.1801
10950TIP3    H254266   2.997   3.529   0.635  0.3342 -0.4421  1.2832
10951TIP3   OH254267   1.707   4.726   3.100  0.0188  0.1100 -0.2249
10951TIP3    H154268   1.670   4.723   3.011  1.8587 -0.3434 -1.0109
10951TIP3    H254269   1.797   4.756   3.088  0.1272  0.6473  1.5766
10952TIP3   OH254270   2.717   1.756   3.749 -0.3467 -0.1030  0.6393
10952TIP3    H154271   2.740   1.689   3.685  2.1289  1.8124 -0.6574
10952TIP3    H254272   2.770   1.736   3.826  0.2590  0.2158  0.3155
10953TIP3   OH254273   5.989   4.437   0.984  0.3975 -0.0924 -0.1994
10953TIP3    H154274   5.951   4.488   1.056 -1.1370 -2.7317  0.9842
10953TIP3    H254275   6.063   4.490   0.955  0.6263  1.4776  2.7993
10954TIP3   OH254276   0.349   0.473  14.744  0.1630  0.1629  0.0398
10954TIP3    H154277   0.325   0.441  14.657  0.8706 -0.2652 -0.0030
10954TIP3    H254278   0.269   0.513  14.778 -0.3254 -0.3464 -0.5019
10955TIP3   OH254279   5.566   6.411  13.670 -0.0003 -0.3818 -0.0621
10955TIP3    H154280   5.489   6.462  13.643  0.0617  0.5554  1.4070
10955TIP3    H254281   5.581   6.350  13.598 -3.8167 -2.5733  0.7114
10956TIP3   OH254282   0.634   0.003  16.322  0.2393 -0.4928 -0.2641
10956TIP3    H154283   0.676   0.087  16.303 -0.9816  0.1870 -0.0906
10956TIP3    H254284   0.683  -0.033  16.396  0.4192  0.3458  0.0343
10957TIP3   OH254285   3.247   5.823   5.786  0.1228  0.3323 -0.1759
10957TIP3    H154286   3.234   5.856   5.875  1.1855 -0.5493  0.3426
10957TIP3    H254287   3.332   5.779   5.790 -0.4998 -1.0439 -1.2322
10958TIP3   OH254288   5.048   1.053   0.287  0.2673  0.3283  0.3421
10958TIP3    H154289   5.074   1.081   0.199  0.5670  0.6395  0.5281
10958TIP3    H254290   5.007   0.967   0.274  1.7364 -0.3617  0.0913
10959TIP3   OH254291   4.433   0.649   2.122 -0.9485  0.4799  0.3950
10959TIP3    H154292   4.490   0.696   2.063 -1.2984 -1.1474 -1.3330
10959TIP3    H254293   4.456   0.681   2.209  0.6916  1.7822 -0.4749
10960TIP3   OH254294   2.737   3.767  14.220  0.1801 -0.2508 -0.3445
10960TIP3    H154295   2.694   3.797  14.139 -0.2243  0.4937  0.1370
10960TIP3    H254296   2.749   3.847  14.272  0.8476 -0.6622  0.1402
10961TIP3   OH254297   2.707   6.507  14.121 -0.6236  0.4553 -0.4473
10961TIP3    H154298   2.637   6.534  14.061 -0.9135 -1.8674 -1.2736
10961TIP3    H254299   2.683   6.546  14.205 -2.8632 -0.1557 -0.7382
10962TIP3   OH254300   0.513   0.566  15.765 -0.0358 -0.1837 -0.3906
10962TIP3    H154301   0.561   0.531  15.841  0.1935  1.6829  0.3681
10962TIP3    H254302   0.447   0.499  15.746  0.1637 -0.8829  1.2120
10963TIP3   OH254303   2.390   6.200   0.783 -0.1569 -0.0935  0.0953
10963TIP3    H154304   2.445   6.157   0.718 -0.5159 -0.5132  0.0690
10963TIP3    H254305   2.451   6.251   0.837  0.5572 -2.1900  1.3809
10964TIP3   OH254306   4.834   3.360   2.379  0.2063  0.2192  0.1410
10964TIP3    H154307   4.791   3.433   2.334 -0.8932  0.0073  0.8122
10964TIP3    H254308   4.782   3.283   2.355  1.3037 -0.3561 -0.4898
10965TIP3   OH254309   1.238   4.662  13.755 -0.0097 -0.0851 -0.1098
10965TIP3    H154310   1.175   4.606  13.710  0.1618 -0.1158 -0.3151
10965TIP3    H254311   1.200   4.677  13.841  0.4614 -1.4150  0.3535
10966TIP3   OH254312   1.143   6.014  16.101  0.1152  0.1011  0.1901
10966TIP3    H154313   1.193   5.947  16.055  0.1968  0.2490  0.0597
10966TIP3    H254314   1.118   5.974  16.184  2.4041  0.8135  1.2750
10967TIP3   OH254315   2.549   4.490   5.854  0.2123 -0.2792 -0.1439
10967TIP3    H154316   2.570   4.410   5.903  0.6324 -1.0668 -1.5444
10967TIP3    H254317   2.463   4.473   5.817  0.7046 -0.4924 -1.2233
10968TIP3   OH254318   0.268   3.113   0.275  0.6667 -0.1541 -0.5364
10968TIP3    H154319   0.246   3.168   0.199 -0.5687  2.2639  1.4084
10968TIP3    H254320   0.275   3.175   0.348 -5.0124 -2.5931  2.7968
10969TIP3   OH254321   0.353   5.920  15.794  0.0319 -0.0266 -0.5588
10969TIP3    H154322   0.323   5.923  15.703 -0.1552  0.4079 -0.4835
10969TIP3    H254323   0.283   5.876  15.841  1.1346 -2.4283 -1.0128
10970TIP3   OH254324   2.997   6.689  15.764 -0.1497 -0.1036  0.9756
10970TIP3    H154325   2.924   6.696  15.702 -1.5214 -1.6506  2.3002
10970TIP3    H254326   3.007   6.777  15.799 -0.6186  0.3783 -0.0576
10971TIP3   OH254327   1.138   2.249   1.675 -0.1931  0.5028 -0.0527
10971TIP3    H154328   1.044   2.246   1.658 -0.1826  1.8329 -0.4792
10971TIP3    H254329   1.149   2.201   1.757 -1.2845  0.5874  0.1635
10972TIP3   OH254330   1.049   6.467   5.030  0.2752 -0.3855  0.0613
10972TIP3    H154331   0.979   6.429   4.977  2.2001 -0.8209 -2.3394
10972TIP3    H254332   1.111   6.503   4.966  1.8752  0.7017  2.1005
10973TIP3   OH254333   6.259   0.991   2.109  0.3593 -0.5085 -0.0246
10973TIP3    H154334   6.310   0.980   2.029  2.1187  0.8998  0.8406
10973TIP3    H254335   6.294   1.070   2.150 -0.5430 -1.1299  2.1048
10974TIP3   OH254336   5.310   4.836   3.873 -0.1174 -0.0515  0.1040
10974TIP3    H154337   5.214   4.843   3.868 -0.0812 -0.2371 -1.4599
10974TIP3    H254338   5.337   4.914   3.921 -0.9702  0.7812 -0.7068
10975TIP3   OH254339   5.180   1.664  15.886  0.1420 -0.4613 -0.3475
10975TIP3    H154340   5.241   1.706  15.945  0.7610  0.4044 -1.5543
10975TIP3    H254341   5.223   1.582  15.862  0.3374 -0.3550 -0.3613
10976TIP3   OH254342   3.590   4.206  14.266  0.3557  0.0011 -0.0093
10976TIP3    H154343   3.552   4.147  14.330 -0.2307 -0.4450 -0.7441
10976TIP3    H254344   3.638   4.149  14.206 -0.1091  0.2788 -0.6547
10977TIP3   OH254345   1.072   0.312  13.477 -0.4061 -0.2645 -0.0912
10977TIP3    H154346   1.015   0.355  13.541  0.2581 -0.6337  0.7696
10977TIP3    H254347   1.036   0.337  13.392 -0.0149  2.0155  0.3560
10978TIP3   OH254348   5.968   4.670   0.756  0.0273  0.2560 -0.6641
10978TIP3    H154349   6.061   4.652   0.742 -0.4537 -1.8873 -1.3533
10978TIP3    H254350   5.933   4.589   0.792 -1.3383  1.4851  0.9428
10979TIP3   OH254351   2.500   0.334   5.043  0.0345  0.1720 -0.2524
10979TIP3    H154352   2.461   0.262   4.992 -2.7614  1.0017  0.5385
10979TIP3    H254353   2.592   0.333   5.019  0.4570 -4.4473  0.5935
10980TIP3   OH254354   5.451   0.093   3.434 -0.3003 -0.2844 -0.4309
10980TIP3    H154355   5.484   0.168   3.484  0.4515 -0.2570 -0.9504
10980TIP3    H254356   5.513   0.023   3.452  0.5679  0.0111 -2.0875
10981TIP3   OH254357   2.566   1.149  12.805 -0.1649 -0.5940  0.2404
10981TIP3    H154358   2.554   1.234  12.849  0.5828 -0.4829  0.2537
10981TIP3    H254359   2.653   1.120  12.834  0.0827 -0.8062 -0.6932
10982TIP3   OH254360   6.533   2.106   0.579 -0.1969  0.0992 -0.1441
10982TIP3    H154361   6.456   2.068   0.621 -1.1416  1.9337 -0.1076
10982TIP3    H254362   6.606   2.053   0.611 -1.4269 -1.7790 -0.2847
10983TIP3   OH254363   3.888   3.469  11.114 -0.4564  0.3502 -0.1538
10983TIP3    H154364   3.825   3.497  11.181 -0.2438 -1.1278  0.7155
10983TIP3    H254365   3.838   3.468  11.033 -1.6931 -1.1025  0.5713
10984TIP3   OH254366   5.964   6.371   4.729  0.4495 -0.1227  0.2593
10984TIP3    H154367   6.027   6.411   4.670  0.2965  2.6023  1.7927
10984TIP3    H254368   6.015   6.308   4.780  1.0603 -0.7868 -1.1455
10985TIP3   OH254369   5.069   3.613   4.088 -0.6282 -0.6074  0.1515
10985TIP3    H154370   5.125   3.690   4.087 -1.2091 -0.1843 -0.0832
10985TIP3    H254371   4.990   3.641   4.134 -0.9923 -0.9574 -0.2525
10986TIP3   OH254372   2.231   5.790   1.179 -0.1367  0.2556  0.0051
10986TIP3    H154373   2.281   5.827   1.107  1.5143  2.3874  2.0962
10986TIP3    H254374   2.275   5.708   1.200  0.4133  0.4544 -0.3636
10987TIP3   OH254375   2.028   2.000  10.985  0.6074 -0.4635  0.1479
10987TIP3    H154376   2.051   1.983  10.893 -0.0238  0.5281 -0.2066
10987TIP3    H254377   1.932   2.000  10.986  0.4087  3.8437 -0.1323
10988TIP3   OH254378   0.460   6.416  16.465 -0.2572 -0.0921  0.2293
10988TIP3    H154379   0.368   6.402  16.444 -0.2979  1.6232 -0.9031
10988TIP3    H254380   0.489   6.484  16.404  2.0314 -1.2800 -0.1159
10989TIP3   OH254381   4.572   1.005  14.932 -0.0676 -0.3542 -0.1890
10989TIP3    H154382   4.497   1.057  14.958 -0.9710 -1.5310 -0.3673
10989TIP3    H254383   4.630   1.006  15.008 -0.5068  0.1302  0.1395
10990TIP3   OH254384   2.449   2.741  15.076 -0.0520  0.0318 -0.5487
10990TIP3    H154385   2.510   2.749  15.149 -1.5897  2.9996  0.5658
10990TIP3    H254386   2.505   2.728  14.999  2.0820  2.8441  0.3749
10991TIP3   OH254387   5.061   4.369   3.309 -0.0759  0.6380  0.4063
10991TIP3    H154388   5.091   4.278   3.296  0.4033  0.8170  0.2268
10991TIP3    H254389   5.067   4.408   3.222 -1.6743  0.4435  0.1831
10992TIP3   OH254390   5.180   2.609  12.672  0.1030 -0.1497 -0.6455
10992TIP3    H154391   5.099   2.659  12.681  0.2211 -0.0447 -0.1014
10992TIP3    H254392   5.151   2.520  12.649 -0.1745 -0.1459 -0.3178
10993TIP3   OH254393   5.505   0.691   4.630  0.4220 -0.0767 -0.3858
10993TIP3    H154394   5.494   0.596   4.625 -0.1921 -0.0085 -0.3929
10993TIP3    H254395   5.579   0.704   4.689  0.5310 -0.5620 -0.4168
10994TIP3   OH254396   4.084   4.422   4.179 -0.8384 -0.2553 -0.0904
10994TIP3    H154397   4.067   4.508   4.140 -0.9802  0.0746  0.6852
10994TIP3    H254398   4.078   4.361   4.105  1.2024  0.5823 -1.0272
10995TIP3   OH254399   4.584   4.904   1.441  0.2054  0.2744 -0.1330
10995TIP3    H154400   4.550   4.918   1.352  0.8094  2.1498 -0.1274
10995TIP3    H254401   4.532   4.962   1.496 -1.2292 -2.0244  1.0670
10996TIP3   OH254402   0.909   5.987  16.789 -0.7186  0.0608  0.7508
10996TIP3    H154403   0.822   5.992  16.750 -0.9453  1.2335  1.3416
10996TIP3    H254404   0.892   5.980  16.883 -0.1963  1.1949  0.9496
10997TIP3   OH254405   5.326   4.569  12.329 -0.0748  0.2224 -0.2783
10997TIP3    H154406   5.302   4.643  12.384 -0.2182 -0.5427  0.7230
10997TIP3    H254407   5.407   4.596  12.286  0.8297  0.3428  1.3956
10998TIP3   OH254408   3.423   1.852  11.476 -0.4173  0.4515 -0.1691
10998TIP3    H154409   3.333   1.862  11.443 -0.3604 -1.5331 -1.0465
10998TIP3    H254410   3.427   1.762  11.508  0.8692  0.9652  1.2282
10999TIP3   OH254411   1.311   1.883  13.184 -0.1980  0.0751  0.4305
10999TIP3    H154412   1.320   1.946  13.256 -0.0572  0.0336  0.4484
10999TIP3    H254413   1.399   1.873  13.150 -0.3380  0.4730 -0.0692
11000TIP3   OH254414   3.387   5.786   1.062 -0.6288 -0.0582 -0.5183
11000TIP3    H154415   3.340   5.869   1.074 -0.5810  0.1962 -1.9075
11000TIP3    H254416   3.478   5.811   1.046 -0.4259 -0.4382  0.0089
11001TIP3   OH254417   1.234   0.631  14.357 -0.2202  0.2030  0.2148
11001TIP3    H154418   1.180   0.607  14.432 -1.6141 -2.0674 -1.3720
11001TIP3    H254419   1.313   0.579  14.367 -0.6859 -0.6046 -0.1740
11002TIP3   OH254420   6.009   5.533  12.071  0.0412 -0.6156  0.2093
11002TIP3    H154421   6.072   5.577  12.128  0.7379 -2.2867  0.7684
11002TIP3    H254422   5.925   5.575  12.091  0.9220  1.7650 -0.6779
11003TIP3   OH254423   5.167   3.478  13.251 -0.3467 -0.3534  0.6211
11003TIP3    H154424   5.147   3.457  13.342 -1.0551 -0.5888  0.4184
11003TIP3    H254425   5.097   3.538  13.224  1.1677  1.6857  0.9337
11004TIP3   OH254426   4.778   2.387   4.600 -0.3165  0.1042 -0.0963
11004TIP3    H154427   4.702   2.436   4.568  0.1826  0.9979  0.0436
11004TIP3    H254428   4.850   2.451   4.597  0.2715 -0.5246  0.4381
11005TIP3   OH254429   3.654   6.639   2.351  0.0694 -0.2625 -0.2295
11005TIP3    H154430   3.584   6.645   2.286 -0.9374 -0.6683  0.7931
11005TIP3    H254431   3.701   6.722   2.342 -0.8346  0.2226 -0.6080
11006TIP3   OH254432   1.522   2.805  11.303 -0.2373  0.5523 -0.2493
11006TIP3    H154433   1.610   2.813  11.340 -0.3845  0.9927  0.0179
11006TIP3    H254434   1.482   2.732  11.350  0.0464  0.2296 -0.5023
11007TIP3   OH254435   4.488   4.534   2.026 -0.0254  0.5770  0.2254
11007TIP3    H154436   4.473   4.570   2.113  2.6204 -1.4556  1.6926
11007TIP3    H254437   4.561   4.585   1.991  0.6779 -0.3294  0.3531
11008TIP3   OH254438   5.270   0.488   4.537  0.4322 -0.1588  0.2121
11008TIP3    H154439   5.239   0.460   4.624  1.3772  1.7595  1.2272
11008TIP3    H254440   5.190   0.519   4.493 -0.1998 -1.9513  0.0201
11009TIP3   OH254441   6.356   3.770   5.941 -0.8077  0.4923  0.0195
11009TIP3    H154442   6.343   3.762   6.036 -2.0260 -1.4043 -0.2629
11009TIP3    H254443   6.438   3.820   5.933 -0.5668  0.5292  2.0621
11010TIP3   OH254444   5.299   2.332   4.935 -0.1641 -0.2027  0.4822
11010TIP3    H154445   5.313   2.280   4.856  0.2682 -0.6075  0.8165
11010TIP3    H254446   5.307   2.423   4.906  3.5785 -0.3240  0.6261
11011TIP3   OH254447   3.273   0.381  11.336 -0.0973  0.1477 -0.1838
11011TIP3    H154448   3.270   0.371  11.241  0.5168  0.1426 -0.2054
11011TIP3    H254449   3.263   0.293  11.370 -1.1234  0.2368 -0.2152
11012TIP3   OH254450   6.731   1.004   0.919 -0.0062 -0.7308  0.2505
11012TIP3    H154451   6.732   0.972   0.829  1.6417 -0.1572  0.0192
11012TIP3    H254452   6.818   1.043   0.931 -1.3322  2.2735  0.9813
11013TIP3   OH254453   6.624   3.748  14.051  0.5829  0.2619  0.2112
11013TIP3    H154454   6.667   3.698  14.120  0.6805  0.4268  0.2717
11013TIP3    H254455   6.531   3.737  14.067  0.5631  2.3263  1.8914
11014TIP3   OH254456   0.442   0.502  11.994 -0.2451 -0.1013  0.5192
11014TIP3    H154457   0.476   0.419  11.960 -2.2898 -0.8331  0.1158
11014TIP3    H254458   0.517   0.543  12.036  1.3838 -1.0740 -1.2770
11015TIP3   OH254459   1.265   5.071   0.730 -0.1218 -0.3147  0.0741
11015TIP3    H154460   1.313   5.040   0.807 -1.6755 -1.2053  0.7461
11015TIP3    H254461   1.277   5.003   0.665  0.6985  0.1562 -0.2838
11016TIP3   OH254462   2.157   2.193  15.976 -0.3161  0.4115  1.0954
11016TIP3    H154463   2.161   2.101  15.949  1.7970  0.7006  0.2703
11016TIP3    H254464   2.064   2.216  15.968 -1.3243 -2.2125  3.4046
11017TIP3   OH254465   0.808   1.923   4.600 -0.8166  0.7774 -0.0276
11017TIP3    H154466   0.851   1.996   4.645 -0.4913  0.4898  0.1354
11017TIP3    H254467   0.879   1.862   4.580 -0.9885  0.8074 -0.7598
11018TIP3   OH254468   3.710   0.450  16.305 -0.6975  0.0299 -0.3332
11018TIP3    H154469   3.649   0.442  16.380 -0.8653  0.7249 -0.3894
11018TIP3    H254470   3.793   0.417  16.339 -1.0762 -0.8365 -0.2213
11019TIP3   OH254471   5.141   1.923   0.057  0.4521 -0.2788 -0.3171
11019TIP3    H154472   5.194   1.856   0.099  0.7325  0.4747  0.5650
11019TIP3    H254473   5.059   1.923   0.107 -1.4275 -3.0308 -3.0580
11020TIP3   OH254474   0.334   2.554  15.201 -0.1187 -0.0697  0.0999
11020TIP3    H154475   0.325   2.572  15.295 -0.7042  1.0050 -0.1475
11020TIP3    H254476   0.414   2.502  15.195 -1.1708 -1.9576  1.4063
11021TIP3   OH254477   2.519   6.098   2.491 -0.7339 -0.0707 -0.3640
11021TIP3    H154478   2.576   6.022   2.499 -0.5716  0.2029  1.5714
11021TIP3    H254479   2.494   6.100   2.399  0.7403 -1.3805 -0.8324
11022TIP3   OH254480   0.153   5.535  17.215 -0.0604 -0.6059 -0.0027
11022TIP3    H154481   0.133   5.593  17.288  1.2908 -1.2048  0.8754
11022TIP3    H254482   0.069   5.524  17.169 -0.1669  2.9370 -0.9407
11023TIP3   OH254483   1.508   1.565  12.946  0.2116 -0.3326  0.0083
11023TIP3    H154484   1.518   1.641  13.003  0.7242 -0.5929  0.2730
11023TIP3    H254485   1.428   1.582  12.897  1.4696  1.4102 -1.5516
11024TIP3   OH254486   0.829   0.860   2.469  0.3150  0.0635 -0.0805
11024TIP3    H154487   0.918   0.892   2.482  0.1935  0.0948  0.7281
11024TIP3    H254488   0.806   0.820   2.552 -0.7408  0.8126 -0.0010
11025TIP3   OH254489   1.982   3.082  16.780  0.1012  0.9712 -0.3842
11025TIP3    H154490   1.899   3.116  16.812 -1.4982 -3.0158  0.3734
11025TIP3    H254491   1.969   3.073  16.685 -1.2577 -1.3661 -0.0758
11026TIP3   OH254492   1.084   4.112   1.117  0.3017 -0.3595 -0.1391
11026TIP3    H154493   1.056   4.050   1.050  0.7368  0.7280 -1.3632
11026TIP3    H254494   1.071   4.198   1.077 -0.8566  0.3881  1.7346
11027TIP3   OH254495   3.461   3.765   2.680  0.1390 -1.0152  0.1356
11027TIP3    H154496   3.454   3.859   2.696  1.0303 -0.9367  0.0989
11027TIP3    H254497   3.371   3.737   2.662 -0.3265 -0.4057  1.4067
11028TIP3   OH254498   6.036   2.472   2.308 -0.2808 -0.9615  0.1484
11028TIP3    H154499   5.949   2.432   2.300 -0.2020 -1.4736  1.5404
11028TIP3    H254500   6.024   2.540   2.375 -0.0082  0.1996 -0.9479
11029TIP3   OH254501   2.702   1.982   1.941 -0.3197 -0.1776  0.6850
11029TIP3    H154502   2.658   1.900   1.966  0.6007 -0.7439  0.4944
11029TIP3    H254503   2.635   2.031   1.893 -1.2062 -0.3486  1.6861
11030TIP3   OH254504   5.098   5.849   4.571 -0.1730  0.1633 -0.2944
11030TIP3    H154505   5.085   5.935   4.612  1.6605 -0.9890  3.1666
11030TIP3    H254506   5.124   5.793   4.644 -0.8605 -3.2676 -2.4987
11031TIP3   OH254507   2.981   5.117   1.236 -0.3355  0.1357 -0.3882
11031TIP3    H154508   3.019   5.029   1.240 -1.9009 -0.5270  0.6868
11031TIP3    H254509   2.936   5.119   1.151  1.2039  0.5907 -1.2379
11032TIP3   OH254510   6.013   1.310   3.247 -0.0513 -0.0362 -0.6118
11032TIP3    H154511   6.074   1.241   3.221 -0.8998 -0.5276 -1.3621
11032TIP3    H254512   6.047   1.342   3.331  1.1685 -0.3570 -0.9679
11033TIP3   OH254513   4.882   0.145   1.023 -0.0585  0.2796 -0.1128
11033TIP3    H154514   4.972   0.145   0.990 -0.6102  0.2318 -1.6552
11033TIP3    H254515   4.845   0.061   0.996 -0.6394  0.3681  0.3649
11034TIP3   OH254516   5.257   5.901  15.523  0.3233 -0.0673 -1.0881
11034TIP3    H154517   5.255   5.805  15.515 -1.2994 -0.1408 -0.3075
11034TIP3    H254518   5.332   5.919  15.579 -0.9685 -1.1336  1.0895
11035TIP3   OH254519   6.497   4.041   4.527 -0.2146  0.3170  0.4186
11035TIP3    H154520   6.576   4.059   4.475  0.6992 -0.4911  1.4733
11035TIP3    H254521   6.477   4.124   4.569 -1.4568  1.2182 -1.7964
11036TIP3   OH254522   1.958   1.875  11.235 -0.4751 -0.0775  0.0645
11036TIP3    H154523   1.951   1.955  11.184  2.2820  0.7266  0.7436
11036TIP3    H254524   1.910   1.893  11.316 -2.2494 -0.2123 -0.9219
11037TIP3   OH254525   6.303   0.740   3.451  0.0619  0.5596  0.4816
11037TIP3    H154526   6.217   0.775   3.424  0.0325  0.6633  0.7092
11037TIP3    H254527   6.312   0.659   3.401 -1.4988 -1.0505  2.6611
11038TIP3   OH254528   5.430   1.488  14.314 -0.0354  0.1363  0.2801
11038TIP3    H154529   5.443   1.401  14.278  1.8328  0.1012  0.9538
11038TIP3    H254530   5.341   1.511  14.288  0.1881 -1.0625 -1.8049
11039TIP3   OH254531   0.600   6.071   0.317 -0.0652  0.1511  0.3346
11039TIP3    H154532   0.629   6.151   0.360  2.6156 -1.5655  2.0127
11039TIP3    H254533   0.676   6.041   0.266 -1.3469 -0.7913 -1.1188
11040TIP3   OH254534   3.974   2.144   6.456  0.6339 -0.3431 -0.6254
11040TIP3    H154535   3.902   2.160   6.395  1.4111 -0.2414 -1.5398
11040TIP3    H254536   3.953   2.197   6.533 -0.3506 -0.4577 -0.7990
11041TIP3   OH254537   4.565   3.804  14.764  0.0675  0.2550  0.2415
11041TIP3    H154538   4.528   3.813  14.852  0.5067  0.1590  0.4398
11041TIP3    H254539   4.622   3.879  14.754 -0.1936  0.4117 -0.0705
11042TIP3   OH254540   0.389   1.831   0.810  0.1285  0.0204  0.2967
11042TIP3    H154541   0.475   1.873   0.797 -0.1321  0.0882 -1.4716
11042TIP3    H254542   0.406   1.738   0.795 -0.5016  0.2802 -2.7514
11043TIP3   OH254543   4.904   0.222  13.066 -0.1354 -0.0972 -0.0030
11043TIP3    H154544   4.906   0.202  13.159 -0.2756 -0.0469  0.0110
11043TIP3    H254545   4.849   0.153  13.028 -0.7673  0.3621  0.0678
11044TIP3   OH254546   2.882   6.297   2.252 -0.0726  0.0812  0.1939
11044TIP3    H154547   2.960   6.336   2.291  0.4903  0.4181 -1.2381
11044TIP3    H254548   2.816   6.304   2.321  1.5153 -1.6162  2.0260
11045TIP3   OH254549   6.583   4.152   0.273 -0.1064 -0.4009 -0.5121
11045TIP3    H154550   6.548   4.074   0.314  0.5625 -1.7947 -2.4270
11045TIP3    H254551   6.650   4.183   0.333 -0.6708 -1.0364  0.4731
11046TIP3   OH254552   1.420   4.007  12.594  0.1701  0.0911 -0.2982
11046TIP3    H154553   1.366   3.956  12.655 -0.3601 -2.0180 -2.4096
11046TIP3    H254554   1.358   4.063  12.548  0.4865  1.1539  0.4957
11047TIP3   OH254555   6.705   6.071  12.959  0.3276 -0.1209  0.0008
11047TIP3    H154556   6.635   6.072  12.894 -0.3649  1.1345  0.7344
11047TIP3    H254557   6.786   6.067  12.907 -0.1925  1.2651 -0.9543
11048TIP3   OH254558   1.586   5.208   0.814  0.1765 -0.2750 -0.3228
11048TIP3    H154559   1.674   5.241   0.792  0.1174 -0.6850 -1.2061
11048TIP3    H254560   1.552   5.272   0.876  0.9919  0.0418 -0.1787
11049TIP3   OH254561   5.301   4.380  14.219 -0.0744  0.2643  0.3763
11049TIP3    H154562   5.306   4.332  14.136 -0.3107  1.2956 -0.2595
11049TIP3    H254563   5.227   4.340  14.265 -0.7260  0.4708 -0.4558
11050TIP3   OH254564   2.778   6.092  15.182  0.1805 -0.5061 -0.0371
11050TIP3    H154565   2.723   6.017  15.159 -0.1947 -0.7138  1.4600
11050TIP3    H254566   2.814   6.070  15.268  0.3869  0.8590  0.2460
11051TIP3   OH254567   1.746   2.172  13.858 -0.4406 -0.4795 -0.1115
11051TIP3    H154568   1.738   2.103  13.792 -0.6309  0.5448 -1.1990
11051TIP3    H254569   1.689   2.242  13.825  0.1831  0.4125  0.6754
11052TIP3   OH254570   2.352   1.510   5.694  0.6560 -0.1597 -0.2185
11052TIP3    H154571   2.360   1.416   5.679  0.1008  0.0821 -2.3003
11052TIP3    H254572   2.341   1.518   5.788  2.5119 -2.0377  0.2430
11053TIP3   OH254573   1.345   6.191   6.098 -0.1497  0.0962 -0.5167
11053TIP3    H154574   1.267   6.243   6.116 -0.2616  0.2135 -1.3330
11053TIP3    H254575   1.322   6.103   6.127 -0.4467  0.2036 -0.4195
11054TIP3   OH254576   4.714   2.103  16.720  0.8336  0.1717 -0.2535
11054TIP3    H154577   4.692   2.196  16.719  1.1171  0.3040 -2.8630
11054TIP3    H254578   4.790   2.096  16.663  1.9570 -1.4620  1.3637
11055TIP3   OH254579   2.660   5.663   1.254  0.2544  0.0508  0.0617
11055TIP3    H154580   2.619   5.748   1.239  0.1672 -0.1388 -0.8537
11055TIP3    H254581   2.597   5.600   1.217 -0.3983 -0.5517  2.0418
11056TIP3   OH254582   6.094   0.120   5.387  0.7449  0.3558  0.0777
11056TIP3    H154583   6.100   0.091   5.478  0.3616  1.5537  0.5037
11056TIP3    H254584   6.184   0.127   5.357  0.9096  0.8106  0.6613
11057TIP3   OH254585   4.404   6.378  15.993  0.0613 -0.4283 -0.1548
11057TIP3    H154586   4.486   6.425  16.011 -0.6046  0.1493  1.5336
11057TIP3    H254587   4.344   6.445  15.962 -0.5533 -0.3534  1.1643
11058TIP3   OH254588   0.350   0.479  11.374  0.0309 -0.6246 -0.0701
11058TIP3    H154589   0.360   0.453  11.466  2.5640 -2.4188 -0.7036
11058TIP3    H254590   0.394   0.409  11.326  0.9137  1.4571 -2.4970
11059TIP3   OH254591   1.724   3.137  16.908 -0.5376  0.2802 -0.9063
11059TIP3    H154592   1.687   3.226  16.910 -1.1014  0.0433 -0.0317
11059TIP3    H254593   1.653   3.081  16.940  1.0257 -0.0022  2.5190
11060TIP3   OH254594   2.916   1.132   0.467  0.2756  0.3839 -0.0892
11060TIP3    H154595   2.972   1.207   0.446 -1.1679  0.9753 -2.1643
11060TIP3    H254596   2.827   1.167   0.467 -0.3727 -1.1602 -0.2798
11061TIP3   OH254597   3.171   1.823   4.186 -0.0870 -0.1507 -0.2567
11061TIP3    H154598   3.257   1.783   4.175  0.7841  1.3483  0.8605
11061TIP3    H254599   3.149   1.809   4.278 -1.5198 -1.3741 -0.7402
11062TIP3   OH254600   2.041   6.600   2.353  0.0728  0.0194 -0.2327
11062TIP3    H154601   2.006   6.545   2.283 -0.0826  1.8738 -1.7075
11062TIP3    H254602   2.001   6.566   2.432 -1.7966 -0.5790 -1.3615
11063TIP3   OH254603   4.939   2.790  16.826  0.5059 -0.5546  0.2111
11063TIP3    H154604   4.866   2.851  16.822  1.7265  0.8910 -1.9301
11063TIP3    H254605   4.984   2.812  16.908  1.1083  1.7728 -0.6468
11064TIP3   OH254606   2.838   6.598   1.867  0.1259  0.2760 -0.2895
11064TIP3    H154607   2.769   6.626   1.807  1.4515 -0.3155 -2.1814
11064TIP3    H254608   2.904   6.557   1.810  1.9365  0.6212  1.4425
11065TIP3   OH254609   2.174   2.717  12.474  0.4856 -0.1251  0.1942
11065TIP3    H154610   2.190   2.686  12.385  0.6359  0.8126 -0.1208
11065TIP3    H254611   2.219   2.655  12.530 -0.6455 -1.4454 -0.2974
11066TIP3   OH254612   2.685   1.993   6.093 -0.4005  0.2264 -0.4510
11066TIP3    H154613   2.618   1.944   6.045 -0.3813  0.4909 -0.7461
11066TIP3    H254614   2.707   1.936   6.168 -0.3033 -0.2668 -0.8459
11067TIP3   OH254615   5.096   3.874  17.025 -0.5233  0.0760  0.3461
11067TIP3    H154616   5.131   3.931  17.095 -1.4639  0.8961  0.1769
11067TIP3    H254617   5.170   3.860  16.966  0.3297 -0.7441  1.5626
11068TIP3   OH254618   3.325   2.792   5.835  0.3891 -0.5401  0.0829
11068TIP3    H154619   3.289   2.834   5.757  1.2426 -0.5897 -0.3475
11068TIP3    H254620   3.251   2.746   5.874 -0.3274  0.5135 -0.0002
11069TIP3   OH254621   6.422   4.555  16.647  0.4799 -0.3019  0.0855
11069TIP3    H154622   6.418   4.621  16.578  0.0288 -1.0279 -0.6104
11069TIP3    H254623   6.391   4.475  16.604  0.9018 -0.9332  0.9386
11070TIP3   OH254624   4.817   2.197   6.328 -0.3987  0.0999  0.3286
11070TIP3    H154625   4.784   2.116   6.366  1.0782 -2.2176 -2.8123
11070TIP3    H254626   4.829   2.257   6.402 -2.5944 -2.1310  2.6464
11071TIP3   OH254627   6.445   6.612  13.879  0.0066 -0.1417  0.2104
11071TIP3    H154628   6.514   6.665  13.838 -0.9557  0.4184 -0.7260
11071TIP3    H254629   6.493   6.551  13.935  1.2632  0.2940 -0.3380
11072TIP3   OH254630   3.047   2.518   2.987  0.1613 -0.4368 -0.4591
11072TIP3    H154631   3.050   2.605   3.027 -0.6366  0.0051 -1.3175
11072TIP3    H254632   3.047   2.536   2.893 -1.7229 -1.2801 -0.6506
11073TIP3   OH254633   2.033   2.088  16.203  0.1787 -0.4460  0.3066
11073TIP3    H154634   2.090   2.151  16.160 -1.2677  0.9168  0.3063
11073TIP3    H254635   2.092   2.037  16.259  1.3453  1.1701  0.6347
11074TIP3   OH254636   0.759   5.289  15.895 -0.9255  0.0021 -0.3787
11074TIP3    H154637   0.847   5.264  15.867  0.1307  2.9055  0.0204
11074TIP3    H254638   0.760   5.280  15.990 -0.6370  1.1395 -0.2613
11075TIP3   OH254639   3.574   4.009  12.999 -0.4973  0.8760 -0.2412
11075TIP3    H154640   3.516   4.083  12.978  0.4727  0.8004 -3.8846
11075TIP3    H254641   3.656   4.051  13.026 -0.8076  1.0461  0.4675
11076TIP3   OH254642   3.840   5.972  16.192  0.1130  0.5592 -0.1479
11076TIP3    H154643   3.777   5.906  16.163 -0.3201 -0.0341  1.9389
11076TIP3    H254644   3.918   5.921  16.216 -0.0255  0.8424  0.9484
11077TIP3   OH254645   0.830   1.165   2.058 -0.0085 -0.1854 -0.3737
11077TIP3    H154646   0.870   1.094   2.008  1.2742 -0.2183  0.6179
11077TIP3    H254647   0.858   1.149   2.148  0.2674  1.5314 -0.1114
11078TIP3   OH254648   5.364   3.328   1.597  0.1534  0.0378  0.1366
11078TIP3    H154649   5.375   3.363   1.685 -2.5187 -0.2183  0.6709
11078TIP3    H254650   5.352   3.234   1.610  1.5779 -0.2794 -0.7107
11079TIP3   OH254651   3.670   5.101   3.688  0.0638  0.1461  0.4198
11079TIP3    H154652   3.674   5.120   3.782 -1.6845 -0.2644  0.6145
11079TIP3    H254653   3.612   5.026   3.681  3.3164 -2.5227 -0.7103
11080TIP3   OH254654   0.120   5.934   0.377  0.1467 -0.0323 -0.0560
11080TIP3    H154655   0.115   5.972   0.289 -2.6412 -0.7910 -0.3040
11080TIP3    H254656   0.159   5.848   0.364 -1.4797 -0.6925 -0.8080
11081TIP3   OH254657   1.773   4.617  11.702  0.2269 -0.1274 -0.7772
11081TIP3    H154658   1.706   4.575  11.756  1.6702  0.0768  1.2837
11081TIP3    H254659   1.838   4.549  11.688 -0.4143 -0.3778 -2.9303
11082TIP3   OH254660   4.676   4.310   5.802  0.3544 -0.2983 -0.5841
11082TIP3    H154661   4.580   4.316   5.808  0.3821 -0.0394 -0.3665
11082TIP3    H254662   4.692   4.235   5.746  0.0149  0.3250 -1.5314
11083TIP3   OH254663   0.810   6.694  10.754  0.6479 -0.2439 -0.4703
11083TIP3    H154664   0.902   6.684  10.727  0.4522  0.1089 -1.2845
11083TIP3    H254665   0.782   6.777  10.715  0.5851  0.7168  1.5022
11084TIP3   OH254666   2.179   6.121   4.778 -0.1362 -0.9391  0.5991
11084TIP3    H154667   2.155   6.208   4.745 -1.5588 -0.8851  1.6764
11084TIP3    H254668   2.230   6.082   4.707 -1.7960 -0.2561 -1.0743
11085TIP3   OH254669   1.521   4.139  16.602 -0.0585  0.5147  0.2452
11085TIP3    H154670   1.574   4.076  16.555  0.4493  0.2526  1.1372
11085TIP3    H254671   1.465   4.086  16.659  0.1264  0.8452  0.7466
11086TIP3   OH254672   6.351   5.933   5.220 -0.1276  0.2675 -0.3554
11086TIP3    H154673   6.356   6.016   5.267 -0.2153  0.4050 -0.5874
11086TIP3    H254674   6.262   5.931   5.184 -0.1039  0.1037 -0.4058
11087TIP3   OH254675   6.589   2.206  13.917 -0.5041 -0.4499  0.1731
11087TIP3    H154676   6.542   2.206  13.834 -0.1821  2.6766 -0.1128
11087TIP3    H254677   6.668   2.257  13.900 -1.0449  1.4282  2.6352
11088TIP3   OH254678   6.430   5.188  14.663 -0.1328 -0.2166 -0.1036
11088TIP3    H154679   6.478   5.207  14.583 -0.5738 -0.0539 -0.3312
11088TIP3    H254680   6.375   5.113  14.642  0.6750 -0.9950  0.4267
11089TIP3   OH254681   3.206   1.220  11.700  0.1003  0.4779  0.3826
11089TIP3    H154682   3.281   1.161  11.694 -0.9681 -0.8904 -0.2102
11089TIP3    H254683   3.154   1.200  11.622 -2.1634 -0.4974  2.0368
11090TIP3   OH254684   6.273   4.933  13.331 -0.0948  0.0375  0.2883
11090TIP3    H154685   6.219   4.917  13.408  0.2648 -0.7281  0.3817
11090TIP3    H254686   6.259   4.856  13.275 -1.9418  1.4394 -1.3657
11091TIP3   OH254687   4.531   1.429   1.510  0.4878  0.2830  0.1032
11091TIP3    H154688   4.586   1.473   1.446  0.2249  1.1023  0.4262
11091TIP3    H254689   4.446   1.420   1.466  0.1787  1.2404  0.4731
11092TIP3   OH254690   6.097   0.581  15.414 -0.2479  0.5182 -0.3370
11092TIP3    H154691   6.050   0.631  15.481 -0.0879 -0.0755  0.2299
11092TIP3    H254692   6.098   0.492  15.447  0.4200  0.3377 -0.8188
11093TIP3   OH254693   4.456   0.852  12.832  0.1916  0.1341 -0.4077
11093TIP3    H154694   4.476   0.775  12.885  1.2654  0.9869  0.4805
11093TIP3    H254695   4.434   0.816  12.746  0.4470 -1.1724  0.0420
11094TIP3   OH254696   6.230   1.580   2.168  0.7571  0.0364  0.3873
11094TIP3    H154697   6.160   1.624   2.217 -0.7080  0.0973 -1.6271
11094TIP3    H254698   6.305   1.639   2.176 -0.1730  1.2396  0.5404
11095TIP3   OH254699   2.427   4.736  12.267 -0.0175 -0.5345  0.0138
11095TIP3    H154700   2.424   4.818  12.315  0.8404 -0.8118  0.5579
11095TIP3    H254701   2.336   4.718  12.244 -0.6803 -1.0765  2.7265
11096TIP3   OH254702   0.637   3.864  17.290  0.1465  0.3733  0.3742
11096TIP3    H154703   0.631   3.810  17.211 -0.5339  0.3738  0.4202
11096TIP3    H254704   0.561   3.838  17.343 -1.0710  2.4064 -0.2656
11097TIP3   OH254705   0.050   3.233  12.761 -0.9908 -0.1323 -0.0031
11097TIP3    H154706   0.055   3.261  12.852 -0.5204  1.0034 -0.3485
11097TIP3    H254707   0.140   3.241  12.729 -0.7869 -2.3184 -0.0869
11098TIP3   OH254708   1.797   6.481  13.799 -0.3656 -0.1669 -0.1740
11098TIP3    H154709   1.776   6.504  13.709 -1.0889 -2.2532 -0.6008
11098TIP3    H254710   1.715   6.491  13.847 -0.1701  0.1920  0.0895
11099TIP3   OH254711   3.566   5.041   3.946 -0.4345  0.0563 -0.2116
11099TIP3    H154712   3.503   4.973   3.969 -1.7735  1.6176  0.9774
11099TIP3    H254713   3.637   5.031   4.009  0.0567 -1.0417 -0.8960
11100TIP3   OH254714   4.120   3.061   0.687 -0.1468  0.4716  0.6212
11100TIP3    H154715   4.106   3.044   0.593  0.0530  1.5672  0.3734
11100TIP3    H254716   4.032   3.078   0.721 -0.1258  0.9974  0.4262
11101TIP3   OH254717   1.887   2.794  14.556 -0.1795  0.0743 -0.1988
11101TIP3    H154718   1.930   2.717  14.519  0.9617  1.4947 -2.0588
11101TIP3    H254719   1.849   2.764  14.638  1.8967 -1.9971  0.1101
11102TIP3   OH254720   5.720   4.928  14.829 -0.5229 -0.0178 -0.4900
11102TIP3    H154721   5.655   4.881  14.882  0.0999  0.1398  0.4364
11102TIP3    H254722   5.699   4.904  14.739 -0.7650 -1.3721 -0.0952
11103TIP3   OH254723   3.134   2.263   4.613 -0.4064 -0.2631 -0.2437
11103TIP3    H154724   3.114   2.246   4.521 -0.4048 -0.7461 -0.1575
11103TIP3    H254725   3.076   2.204   4.662  0.5556 -1.0268  0.0307
11104TIP3   OH254726   3.954   5.970   5.768 -0.4557 -0.2850  0.2527
11104TIP3    H154727   3.902   5.939   5.842 -3.0823  1.0220 -0.8968
11104TIP3    H254728   3.947   5.900   5.703  0.0249 -0.5020  0.4308
11105TIP3   OH254729   0.137   2.138   2.173 -0.0264  0.1135  0.3153
11105TIP3    H154730   0.080   2.152   2.249 -0.1175  3.0481 -0.1732
11105TIP3    H254731   0.226   2.144   2.208  0.0839 -2.5572  0.7498
11106TIP3   OH254732   1.106   0.446  15.624 -0.0468 -0.0086 -0.1218
11106TIP3    H154733   1.186   0.410  15.661 -0.1304  1.4713  1.6186
11106TIP3    H254734   1.060   0.486  15.698 -0.9870  1.6982 -1.5310
11107TIP3   OH254735   5.903   2.688   6.127  0.1458  0.2397  0.1577
11107TIP3    H154736   5.917   2.731   6.212  1.7561  0.2666 -0.0924
11107TIP3    H254737   5.961   2.735   6.067  2.4812 -2.5866 -0.0121
11108TIP3   OH254738   1.079   4.266  13.927  0.2859  0.5494  0.3766
11108TIP3    H154739   1.164   4.266  13.883  0.9036  0.1073  1.5380
11108TIP3    H254740   1.070   4.178  13.963 -0.0367  0.9839  1.4182
11109TIP3   OH254741   4.622   2.183   4.922 -0.0815  0.1571 -0.5573
11109TIP3    H154742   4.652   2.096   4.948  0.5073  0.2190 -1.0079
11109TIP3    H254743   4.700   2.238   4.927 -0.8651  1.2195  1.9764
11110TIP3   OH254744   6.465   4.680   1.798 -0.0219  0.2205  0.6370
11110TIP3    H154745   6.392   4.734   1.826  0.3635  1.0019  0.1723
11110TIP3    H254746   6.459   4.601   1.852 -1.7866 -0.1772 -0.0960
11111TIP3   OH254747   1.931   4.882  14.737  0.9248  0.1728  0.2916
11111TIP3    H154748   1.892   4.797  14.716 -0.6116  0.9237 -0.0174
11111TIP3    H254749   2.006   4.889  14.679  0.5304 -0.5959 -0.3296
11112TIP3   OH254750   6.762   6.606  16.204  0.2994  0.0213 -0.0859
11112TIP3    H154751   6.786   6.536  16.264 -0.4632  1.4313  2.0022
11112TIP3    H254752   6.669   6.592  16.186 -0.0308  0.8407  0.8947
11113TIP3   OH254753   0.792   2.035   2.050  0.1646 -0.3054 -0.0997
11113TIP3    H154754   0.787   2.071   1.962 -0.1916 -0.5930 -0.1987
11113TIP3    H254755   0.834   2.103   2.102 -0.5608  0.2868 -0.2699
11114TIP3   OH254756   6.216   1.852   5.778  0.1386 -0.0379  0.0882
11114TIP3    H154757   6.253   1.925   5.728 -0.7990  1.3876  1.3917
11114TIP3    H254758   6.199   1.888   5.865 -0.5735 -1.7499  0.7063
11115TIP3   OH254759   0.174   1.724  11.033 -0.0063 -0.5864 -0.1134
11115TIP3    H154760   0.226   1.692  10.959 -0.2794 -0.7475 -0.2409
11115TIP3    H254761   0.093   1.673  11.028 -0.6768  0.4909 -0.6331
11116TIP3   OH254762   1.598   6.673  11.188 -0.5039  0.4824  0.2246
11116TIP3    H154763   1.535   6.601  11.194  0.7465 -0.9113 -1.9102
11116TIP3    H254764   1.683   6.629  11.185  0.7401  2.3146  3.6146
11117TIP3   OH254765   4.222   2.368  12.510 -0.3458  0.1161  0.1585
11117TIP3    H154766   4.206   2.421  12.588 -1.3901  0.8515 -0.5407
11117TIP3    H254767   4.151   2.390  12.450  0.9424  0.2480 -1.3803
11118TIP3   OH254768   3.634   2.543  14.717  0.3928 -0.4057 -0.8198
11118TIP3    H154769   3.677   2.560  14.633  1.3766 -2.2044 -0.7196
11118TIP3    H254770   3.681   2.468  14.753 -2.3837 -2.0694 -0.3713
11119TIP3   OH254771   0.286   5.603   3.749 -0.1111  0.1879 -0.2551
11119TIP3    H154772   0.376   5.634   3.760 -0.5375  1.8296 -0.9346
11119TIP3    H254773   0.232   5.669   3.793 -0.9389 -1.7191  1.7556
11120TIP3   OH254774   3.007   5.346  16.865  0.0029  0.0694 -0.3285
11120TIP3    H154775   2.930   5.293  16.847 -0.0937  0.7664 -2.1679
11120TIP3    H254776   3.031   5.324  16.955 -0.9827 -1.8413 -0.4886
11121TIP3   OH254777   2.344   4.943  13.601  0.4964 -0.3578  0.7871
11121TIP3    H154778   2.439   4.944  13.589  0.3797  1.2230 -0.2166
11121TIP3    H254779   2.311   4.891  13.528  0.6544 -2.4417  2.1145
11122TIP3   OH254780   1.202   1.553  14.352  0.1015 -0.0724  0.5729
11122TIP3    H154781   1.277   1.613  14.361 -0.2676  0.2810  1.3181
11122TIP3    H254782   1.132   1.595  14.401 -0.3786 -0.7649  0.4825
11123TIP3   OH254783   4.594   0.136   3.543  0.6407  0.3689 -0.4212
11123TIP3    H154784   4.622   0.084   3.618 -1.1910 -1.1217 -0.7005
11123TIP3    H254785   4.564   0.219   3.581 -0.4776 -0.4531  0.5703
11124TIP3   OH254786   6.402   0.903  11.613 -0.1914 -0.3058 -0.1797
11124TIP3    H154787   6.461   0.934  11.545  1.7310 -1.0236  1.0853
11124TIP3    H254788   6.433   0.815  11.634 -0.3633  0.0820  1.9579
11125TIP3   OH254789   5.511   5.073  10.992 -0.3639 -0.0580  0.0417
11125TIP3    H154790   5.425   5.115  11.002  0.3092  0.9280  2.3366
11125TIP3    H254791   5.490   4.981  10.973 -1.9550  0.0349  1.1139
11126TIP3   OH254792   5.966   5.886  11.437 -1.4282  0.0368  0.4371
11126TIP3    H154793   5.947   5.980  11.436  0.0724  0.3592 -0.0163
11126TIP3    H254794   6.052   5.879  11.396 -1.3688 -1.5086  0.7950
11127TIP3   OH254795   3.765   1.441   1.464 -0.0246  0.2681  0.1270
11127TIP3    H154796   3.831   1.509   1.482  0.7290 -0.3768 -0.1371
11127TIP3    H254797   3.773   1.425   1.370 -1.7671  1.3940 -0.2526
11128TIP3   OH254798   6.657   6.641  12.246  0.4730 -0.2964 -0.2347
11128TIP3    H154799   6.637   6.561  12.198  0.3503 -0.2846 -0.2019
11128TIP3    H254800   6.742   6.624  12.287 -0.8752 -1.5604  2.2682
11129TIP3   OH254801   2.957   4.244   2.079  0.2975 -0.4855 -0.2026
11129TIP3    H154802   2.990   4.304   2.012  0.0873  0.5482  0.5931
11129TIP3    H254803   3.035   4.197   2.108  1.1472  1.7281  1.4514
11130TIP3   OH254804   6.536   3.697  14.422 -0.4944 -0.2080 -0.0916
11130TIP3    H154805   6.577   3.774  14.462  1.1105 -1.0659  0.0187
11130TIP3    H254806   6.579   3.689  14.337 -0.7901 -0.8585 -0.1836
11131TIP3   OH254807   3.629   2.503  16.826 -0.1558  0.0694 -0.0813
11131TIP3    H154808   3.699   2.503  16.891  0.0972 -0.9694 -0.3455
11131TIP3    H254809   3.612   2.411  16.807 -1.7689  0.2761  0.1490
11132TIP3   OH254810   6.471   0.243   1.824 -0.0584 -0.2400  0.2301
11132TIP3    H154811   6.451   0.262   1.732  0.6795  0.0773  0.1337
11132TIP3    H254812   6.561   0.212   1.824  0.9348  2.4280  1.1669
11133TIP3   OH254813   4.265   2.256  12.046  0.0605 -0.2484 -0.4368
11133TIP3    H154814   4.235   2.339  12.083 -2.6938 -0.0987 -2.7256
11133TIP3    H254815   4.350   2.277  12.006 -0.0107  1.1396  0.0862
11134TIP3   OH254816   1.788   2.294  17.041 -0.1780 -0.2010  0.2230
11134TIP3    H154817   1.752   2.361  16.982  1.8584  0.6424 -0.1575
11134TIP3    H254818   1.790   2.214  16.989 -1.1477 -0.1841  0.1471
11135TIP3   OH254819   2.636   3.984  15.141 -0.6398  0.3429 -0.1509
11135TIP3    H154820   2.570   4.012  15.078 -0.0667  1.2538 -0.3799
11135TIP3    H254821   2.605   3.900  15.174 -0.0265 -1.1576 -3.0788
11136TIP3   OH254822   3.711   5.645  12.671  0.3574 -0.0251 -0.4086
11136TIP3    H154823   3.735   5.730  12.706  0.1050  0.0538 -0.4243
11136TIP3    H254824   3.688   5.593  12.748  0.1992  0.0214 -0.4236
11137TIP3   OH254825   6.405   2.926  12.662  0.4484  0.5347  0.2320
11137TIP3    H154826   6.363   3.008  12.638  1.5806  0.7926 -0.9826
11137TIP3    H254827   6.488   2.952  12.703  1.5716  0.0466 -1.5932
11138TIP3   OH254828   5.515   5.871   4.668  0.0205 -0.0756  0.1286
11138TIP3    H154829   5.437   5.825   4.699 -0.4553 -0.6209 -1.7944
11138TIP3    H254830   5.481   5.940   4.611  0.8837  0.8891  0.7315
11139TIP3   OH254831   2.858   4.802  14.425 -0.2098 -0.1740  0.2095
11139TIP3    H154832   2.925   4.868  14.405  0.1511 -0.2945  1.0015
11139TIP3    H254833   2.837   4.815  14.517 -1.3797 -0.0594 -0.0484
11140TIP3   OH254834   2.410   0.412  15.809  0.2978 -0.0376  0.1146
11140TIP3    H154835   2.478   0.466  15.851  0.6083 -1.0592  0.9856
11140TIP3    H254836   2.354   0.383  15.881 -1.0870  0.7891 -0.6007
11141TIP3   OH254837   6.549   2.636  12.588  0.1230 -0.0926 -0.2721
11141TIP3    H154838   6.517   2.726  12.591 -4.5062 -1.4411  2.5861
11141TIP3    H254839   6.596   2.625  12.671  0.9425 -0.2755 -0.7517
11142TIP3   OH254840   6.339   3.772  17.380  0.0936 -0.5837 -0.1082
11142TIP3    H154841   6.390   3.851  17.360 -1.0748  0.0586 -0.6620
11142TIP3    H254842   6.386   3.731  17.453  2.3056 -0.8989 -1.6219
11143TIP3   OH254843   0.023   2.022   6.664 -0.1735  0.3312 -0.2429
11143TIP3    H154844  -0.020   1.954   6.715  0.0798  0.3599  0.0110
11143TIP3    H254845  -0.049   2.071   6.623 -0.3338 -0.6712 -1.2022
11144TIP3   OH254846   2.451   5.033  11.354  0.0407  0.0416  0.4040
11144TIP3    H154847   2.414   5.041  11.266  4.0050  0.2992 -1.4567
11144TIP3    H254848   2.507   5.110  11.364 -0.8178  0.4197  3.5404
11145TIP3   OH254849   6.194   6.079   4.354  0.2604 -0.7713 -0.5262
11145TIP3    H154850   6.262   6.147   4.361 -1.4203  1.1887 -2.0232
11145TIP3    H254851   6.166   6.065   4.444  1.0944  0.0616 -0.1128
11146TIP3   OH254852   6.340   3.199   3.953 -0.4919 -0.3720  0.3295
11146TIP3    H154853   6.380   3.272   3.906  1.3828 -0.2833  1.9450
11146TIP3    H254854   6.248   3.200   3.925  0.1287  0.7300 -1.9261
11147TIP3   OH254855   0.540   0.776   6.336 -0.3407 -0.2347 -0.1240
11147TIP3    H154856   0.621   0.775   6.285 -0.2297  0.7350 -0.0015
11147TIP3    H254857   0.486   0.841   6.293 -0.3477  0.4114  0.8216
11148TIP3   OH254858   0.730   2.975   6.188 -0.0639  0.0392  0.3992
11148TIP3    H154859   0.726   3.069   6.170 -1.2270 -0.1029 -0.1184
11148TIP3    H254860   0.798   2.967   6.255  1.7147  0.9895 -1.1948
11149TIP3   OH254861   1.586   2.680  13.677  0.5731 -0.1918 -0.2112
11149TIP3    H154862   1.568   2.682  13.583 -0.9098  0.0430  0.0465
11149TIP3    H254863   1.514   2.730  13.716  1.5401  0.3018  1.0014
11150TIP3   OH254864   2.241   0.004  15.456  0.4218  0.0460  0.0072
11150TIP3    H154865   2.229  -0.089  15.476  1.3842 -0.1301 -0.1697
11150TIP3    H254866   2.202   0.015  15.369 -0.3173 -0.0344  0.3269
11151TIP3   OH254867   2.775   5.304  17.155  0.3470 -0.6482 -0.0560
11151TIP3    H154868   2.682   5.325  17.145  0.6185  0.0378 -1.4458
11151TIP3    H254869   2.783   5.213  17.127  0.0613 -0.7897  0.3145
11152TIP3   OH254870   4.337   3.222   5.158  0.2536 -0.4813 -0.5626
11152TIP3    H154871   4.296   3.307   5.174  0.0472 -0.7716  0.5081
11152TIP3    H254872   4.265   3.165   5.130  0.0052 -0.8291  0.7208
11153TIP3   OH254873   6.596   2.710   1.706 -0.2554 -0.0454  0.1568
11153TIP3    H154874   6.576   2.730   1.615  0.3985  0.7072  0.1660
11153TIP3    H254875   6.576   2.791   1.753  2.1148  0.5574  0.2585
11154TIP3   OH254876   0.483   3.127  11.142 -0.0503 -0.1104  0.0661
11154TIP3    H154877   0.401   3.108  11.188  0.1886 -1.0236  0.1280
11154TIP3    H254878   0.472   3.217  11.110 -1.6445 -0.6894 -1.1303
11155TIP3   OH254879   3.192   6.751  16.707  0.5854 -0.1594 -0.1534
11155TIP3    H154880   3.225   6.765  16.618 -0.2507  0.1143 -0.4312
11155TIP3    H254881   3.254   6.690  16.746  1.9172  1.0154 -0.3452
11156TIP3   OH254882   3.472   0.930   6.139  0.1215  0.8331 -0.6206
11156TIP3    H154883   3.379   0.909   6.139  0.7293 -2.4366 -2.6629
11156TIP3    H254884   3.488   0.965   6.227 -2.5148 -1.1463  0.7941
11157TIP3   OH254885   3.204   1.258   1.037  0.0882 -0.7580 -0.8575
11157TIP3    H154886   3.121   1.304   1.027  0.8480  0.8794  0.0125
11157TIP3    H254887   3.232   1.277   1.127  0.4405 -2.9755 -0.4388
11158TIP3   OH254888   1.089   5.359   2.360 -0.4549  0.0274  0.0908
11158TIP3    H154889   1.022   5.319   2.415  0.1761 -0.4684  0.5092
11158TIP3    H254890   1.158   5.293   2.354 -0.7263 -0.1552 -1.7308
11159TIP3   OH254891   3.973   6.667   4.123 -0.1978  0.0589  1.0078
11159TIP3    H154892   3.904   6.650   4.059  1.4212 -0.9769 -0.5682
11159TIP3    H254893   4.014   6.581   4.137  0.0602  0.4392  2.7731
11160TIP3   OH254894   3.920   5.664  15.634 -0.3025  0.3502  0.2970
11160TIP3    H154895   3.901   5.755  15.611 -0.7515  0.0070 -0.8227
11160TIP3    H254896   4.005   5.667  15.677  0.2299  1.1764 -0.7510
11161TIP3   OH254897   2.754   4.689   5.123  0.2970  0.8914 -0.0243
11161TIP3    H154898   2.849   4.688   5.131  0.2561  1.3587  0.6509
11161TIP3    H254899   2.737   4.688   5.029  0.9366 -0.3555 -0.1353
11162TIP3   OH254900   4.037   5.550   4.132 -0.3130 -0.3608 -0.3668
11162TIP3    H154901   3.950   5.579   4.104 -1.7833 -2.2222  1.9236
11162TIP3    H254902   4.084   5.631   4.152 -0.6357  0.8271 -3.7199
11163TIP3   OH254903   6.455   1.999   0.137 -0.3398 -0.1999 -0.3870
11163TIP3    H154904   6.539   1.957   0.156 -0.6671 -0.5277  0.3923
11163TIP3    H254905   6.474   2.060   0.066  0.8125  0.5545  0.5404
11164TIP3   OH254906   4.326   6.721  14.244 -0.0054 -0.1066  0.0065
11164TIP3    H154907   4.275   6.748  14.168  2.0844  0.6393 -1.2356
11164TIP3    H254908   4.298   6.779  14.315  0.9557  2.1198 -1.3423
11165TIP3   OH254909   6.578   3.365   2.816 -0.3323 -0.2321  0.0630
11165TIP3    H154910   6.492   3.381   2.778  0.3108 -0.3748 -1.5162
11165TIP3    H254911   6.565   3.290   2.874 -1.2081 -0.4095 -0.3422
11166TIP3   OH254912   2.416   2.904  14.463  0.6737  0.1940 -0.3544
11166TIP3    H154913   2.449   2.875  14.377 -1.3980 -1.8216 -0.5609
11166TIP3    H254914   2.377   2.825  14.501 -0.5627  1.6019  1.4372
11167TIP3   OH254915   6.191   1.876   3.877  0.1391  0.6770 -0.1106
11167TIP3    H154916   6.182   1.898   3.970  1.5013  1.4043 -0.1252
11167TIP3    H254917   6.172   1.958   3.831  0.5483  0.6019 -0.4165
11168TIP3   OH254918   4.170   2.762   0.748 -0.4544  0.4146 -0.9700
11168TIP3    H154919   4.159   2.851   0.714  1.0190  1.4727  1.0902
11168TIP3    H254920   4.259   2.738   0.723 -0.3861  0.0424 -0.3815
11169TIP3   OH254921   1.011   3.804   2.001  0.2687 -0.4053 -0.7553
11169TIP3    H154922   0.986   3.715   1.978  0.2021 -0.5160 -0.2816
11169TIP3    H254923   0.970   3.859   1.934 -0.4036 -0.6683 -0.5733
11170TIP3   OH254924   3.913   2.111   2.278 -0.0685  1.0633 -0.2384
11170TIP3    H154925   3.956   2.089   2.361  0.4108  3.5534  0.2679
11170TIP3    H254926   3.985   2.121   2.216 -0.2812  0.9690 -0.5020
11171TIP3   OH254927   4.250   1.787  15.268 -0.8159 -0.2455  0.2279
11171TIP3    H154928   4.200   1.706  15.286 -0.3519 -0.5906 -0.0339
11171TIP3    H254929   4.243   1.837  15.350  0.8957 -1.6114  1.2911
11172TIP3   OH254930   3.416   1.172  16.900 -0.0032 -0.3860  0.2476
11172TIP3    H154931   3.492   1.166  16.958 -1.1303 -1.9324  1.6531
11172TIP3    H254932   3.446   1.225  16.826  3.0056 -2.3656 -0.1165
11173TIP3   OH254933   1.283   5.503   0.359 -0.0313 -0.6544  0.0956
11173TIP3    H154934   1.299   5.425   0.411  1.3302 -0.2203  0.3588
11173TIP3    H254935   1.366   5.520   0.314 -0.2476  0.7408  0.1823
11174TIP3   OH254936   5.584   4.332   1.182 -0.1037 -0.5170  0.1551
11174TIP3    H154937   5.676   4.330   1.155 -0.2546  1.3354 -0.7286
11174TIP3    H254938   5.578   4.410   1.238 -0.7142 -1.8746  2.0453
11175TIP3   OH254939   3.292   4.045   5.942  0.2657  0.7488 -0.2361
11175TIP3    H154940   3.260   4.025   6.030  1.8604  1.5255  0.5610
11175TIP3    H254941   3.214   4.072   5.894 -0.7334 -0.2443  0.7545
11176TIP3   OH254942   0.083   1.360   3.051 -0.1011 -0.0796 -0.2662
11176TIP3    H154943   0.124   1.410   2.980  2.2353 -0.4017  0.7640
11176TIP3    H254944   0.061   1.426   3.117  3.5004 -0.2289  1.3431
11177TIP3   OH254945   2.362   0.657  13.589  0.0529 -0.2939  0.2142
11177TIP3    H154946   2.384   0.674  13.497 -0.2124 -2.0790 -0.2001
11177TIP3    H254947   2.429   0.704  13.638 -0.2013  1.2677 -0.8468
11178TIP3   OH254948   5.119   0.975  14.474  0.6107 -0.1418 -0.0224
11178TIP3    H154949   5.044   0.986  14.416 -0.1275  0.2930  0.9808
11178TIP3    H254950   5.181   1.043  14.447 -0.8485  1.8713  1.3886
11179TIP3   OH254951   6.156   1.965   2.765  0.0030  0.1804  0.3623
11179TIP3    H154952   6.200   1.913   2.832  0.2729 -0.3170 -0.1899
11179TIP3    H254953   6.080   2.002   2.809  0.5792  0.4542  1.1323
11180TIP3   OH254954   2.174   1.713  17.286  0.4509  0.4551 -0.4960
11180TIP3    H154955   2.082   1.690  17.293 -0.4381  3.3980 -1.2596
11180TIP3    H254956   2.217   1.632  17.260 -1.7749 -1.1697  0.5843
11181TIP3   OH254957   0.116   3.541   4.065 -0.3787  0.3233 -1.0725
11181TIP3    H154958   0.065   3.482   4.120 -2.4454  1.7323 -1.3513
11181TIP3    H254959   0.197   3.555   4.112 -0.8885 -0.7779  0.1817
11182TIP3   OH254960   0.951   6.388   0.730  0.3414  0.1124  0.6120
11182TIP3    H154961   1.031   6.335   0.737  0.0597 -0.3525  0.3584
11182TIP3    H254962   0.892   6.335   0.675  1.1299  1.9192 -2.2071
11183TIP3   OH254963   0.587   2.102   3.706  0.2035  0.3616 -0.1068
11183TIP3    H154964   0.675   2.107   3.669  0.7840  0.8400  1.2840
11183TIP3    H254965   0.588   2.164   3.779 -0.7128 -1.0019  1.1029
11184TIP3   OH254966   4.392   6.040  11.609  0.0343 -0.6013  0.0904
11184TIP3    H154967   4.413   5.966  11.667 -2.1380 -0.6616  0.8937
11184TIP3    H254968   4.352   5.999  11.532 -0.8707 -0.3092  0.3933
11185TIP3   OH254969   1.925   4.660  13.098  0.0712  0.5418 -0.3509
11185TIP3    H154970   1.979   4.594  13.141  0.7761  0.1717 -1.7320
11185TIP3    H254971   1.839   4.619  13.091  0.1262  0.3435  0.0918
11186TIP3   OH254972   1.279   5.911  13.569  0.5650  0.0518  0.5231
11186TIP3    H154973   1.290   5.818  13.587 -0.8173 -0.3586 -0.6559
11186TIP3    H254974   1.260   5.916  13.476  0.4482  1.5155  0.5984
11187TIP3   OH254975   1.611   6.164  15.901  0.4611  0.2304 -0.0847
11187TIP3    H154976   1.607   6.069  15.897  0.6933  0.1841  0.6786
11187TIP3    H254977   1.703   6.185  15.881  0.7384  0.2028  1.0565
11188TIP3   OH254978   4.264   5.934  12.588 -0.5839  0.2510 -0.0023
11188TIP3    H154979   4.179   5.890  12.601 -0.1139 -0.8304 -0.4519
11188TIP3    H254980   4.264   6.005  12.651 -1.2549 -0.6061  1.0019
11189TIP3   OH254981   0.893   6.339  16.019 -0.0196  0.1845  0.0325
11189TIP3    H154982   0.883   6.244  16.012 -2.6766  0.3964 -0.0815
11189TIP3    H254983   0.839   6.362  16.095 -1.5047  1.8159 -1.4373
11190TIP3   OH254984   5.763   5.854   5.382  0.4535 -0.3774 -0.1475
11190TIP3    H154985   5.811   5.851   5.299  1.7255  0.8954  0.4896
11190TIP3    H254986   5.784   5.940   5.418 -2.5647  0.3756  0.0766
11191TIP3   OH254987   4.242   4.545   0.279 -0.3230 -0.2162  0.5837
11191TIP3    H154988   4.187   4.620   0.256 -1.5170 -1.4282 -0.7048
11191TIP3    H254989   4.187   4.469   0.262  1.5491 -1.4747 -0.1671
11192TIP3   OH254990   2.150   3.853  12.075  0.3665  0.1141  0.0933
11192TIP3    H154991   2.181   3.842  11.985 -0.3708 -0.0561 -0.1487
11192TIP3    H254992   2.061   3.886  12.065 -0.4228 -1.6771  0.7207
11193TIP3   OH254993   3.044   0.750  16.905  0.0041  0.0057 -0.2493
11193TIP3    H154994   3.113   0.816  16.906 -0.3194  0.3748  1.4386
11193TIP3    H254995   3.091   0.667  16.915  0.2840  0.1406 -0.4308
11194TIP3   OH254996   4.470   1.112  15.557 -0.0039 -0.5604 -0.2783
11194TIP3    H154997   4.511   1.194  15.530  0.9295 -0.1743  2.0477
11194TIP3    H254998   4.541   1.048  15.555  0.5098 -0.2073  2.3601
11195TIP3   OH254999   3.954   4.328  10.410 -0.0165  0.6485  0.3940
11195TIP3    H155000   3.966   4.416  10.445  1.6728 -0.8524  4.1002
11195TIP3    H255001   3.873   4.296  10.450  0.9557 -0.4519  1.5915
11196TIP3   OH255002   0.573   1.670  14.658  0.2459 -0.3266 -0.6690
11196TIP3    H155003   0.567   1.599  14.594  1.5811  0.0884 -1.2963
11196TIP3    H255004   0.568   1.627  14.743 -1.2719 -0.9162 -1.0226
11197TIP3   OH255005   0.160   2.736   5.368 -0.2305  0.4950  0.2506
11197TIP3    H155006   0.134   2.766   5.455 -0.8550  1.3123 -0.2065
11197TIP3    H255007   0.139   2.642   5.368 -0.6352  0.5786  0.8216
11198TIP3   OH255008   6.534   6.154   0.687  0.1133 -0.1130  0.3233
11198TIP3    H155009   6.611   6.169   0.742  1.2933  1.0328 -1.5099
11198TIP3    H255010   6.461   6.149   0.748  1.3963  0.6844  2.0071
11199TIP3   OH255011   2.533   2.114  15.529  0.5655 -0.0866  0.2148
11199TIP3    H155012   2.565   2.082  15.613 -0.2049  1.6683  1.2261
11199TIP3    H255013   2.449   2.070  15.517 -0.0260  0.7535  1.1180
11200TIP3   OH255014   1.074   2.021  14.242  0.2196  0.4817  0.1530
11200TIP3    H155015   1.130   2.079  14.190  1.3814  0.0022  0.8075
11200TIP3    H255016   1.096   1.933  14.211  0.1320  0.2598  0.6969
11201TIP3   OH255017   2.941   1.379  16.010  0.0506  0.2583 -0.3337
11201TIP3    H155018   3.030   1.357  15.983 -0.2895  0.7549 -1.9422
11201TIP3    H255019   2.928   1.469  15.982 -0.3134  0.8882  1.6673
11202TIP3   OH255020   0.388   3.405  12.737  0.0303  0.5031  0.0826
11202TIP3    H155021   0.364   3.403  12.829 -0.6771 -0.2531 -0.1106
11202TIP3    H255022   0.415   3.496  12.721  0.4557  0.5699  1.0956
11203TIP3   OH255023   0.430   4.626   0.938  0.0552 -0.0054  0.0248
11203TIP3    H155024   0.335   4.637   0.952  0.5368  3.1534  1.7747
11203TIP3    H255025   0.468   4.630   1.026  1.8666 -1.5796 -0.6095
11204TIP3   OH255026   3.832   4.169  12.986 -0.0420  0.7702 -0.0430
11204TIP3    H155027   3.841   4.255  13.028 -0.7770 -0.0813  1.9782
11204TIP3    H255028   3.873   4.181  12.900  0.2075  3.0308  0.3056
11205TIP3   OH255029   4.709   4.049  14.505 -0.2214  0.7488  0.2950
11205TIP3    H155030   4.625   4.012  14.477  0.1950 -1.3099  1.5295
11205TIP3    H255031   4.775   3.999  14.456  0.3478  0.1345  1.6222
11206TIP3   OH255032   1.700   3.990  14.000  0.1603 -0.2898  0.0264
11206TIP3    H155033   1.665   3.985  14.089 -0.2960  0.6336 -0.0923
11206TIP3    H255034   1.655   3.919  13.953  0.7965 -1.1278  0.6426
11207TIP3   OH255035   2.761   0.772  17.020  0.0401 -0.2296  0.1442
11207TIP3    H155036   2.820   0.842  17.049 -1.8986  1.5032  0.1246
11207TIP3    H255037   2.778   0.700  17.080  0.8603  0.8963  1.3137
11208TIP3   OH255038   4.416   6.309  16.556  0.2144 -0.1925  0.1950
11208TIP3    H155039   4.340   6.365  16.539  0.0855  0.0784  1.5548
11208TIP3    H255040   4.455   6.295  16.470 -2.2497 -1.6272 -0.8180
11209TIP3   OH255041   3.368   1.362   6.216 -0.1173  0.0351  0.2809
11209TIP3    H155042   3.305   1.305   6.260  0.8142 -1.6994 -0.5327
11209TIP3    H255043   3.380   1.436   6.276 -2.4509  0.1380  0.7166
11210TIP3   OH255044   5.745   3.412  14.856 -0.9868  0.7053  0.2594
11210TIP3    H155045   5.747   3.498  14.815 -0.1528 -0.1130 -1.4927
11210TIP3    H255046   5.737   3.431  14.950  0.2791  2.7135  0.0245
11211TIP3   OH255047   4.985   1.159  13.043  0.2505  0.0854 -0.0207
11211TIP3    H155048   4.957   1.233  12.989 -1.3413  1.7227  2.8160
11211TIP3    H255049   4.909   1.101  13.044  0.7911 -0.6549 -0.6405
11212TIP3   OH255050   3.921   4.765  16.165  0.1193  0.1817 -0.4476
11212TIP3    H155051   3.896   4.746  16.256  1.0718  0.3323 -0.1514
11212TIP3    H255052   3.896   4.856  16.152  1.0658  0.5275  0.0542
11213TIP3   OH255053   5.448   6.296   3.620  0.2921  0.2928  0.3619
11213TIP3    H155054   5.392   6.329   3.690 -1.1657 -0.0848 -0.5641
11213TIP3    H255055   5.472   6.373   3.569 -0.4645  0.3087  0.0244
11214TIP3   OH255056   3.287   5.020   1.306 -0.2907 -0.6173 -0.2252
11214TIP3    H155057   3.381   5.038   1.319 -0.3810  1.0844 -1.5314
11214TIP3    H255058   3.244   5.061   1.381 -0.1195  0.4170 -0.6800
11215TIP3   OH255059   4.960   1.871  13.057  0.0805 -0.2004  0.4211
11215TIP3    H155060   4.932   1.958  13.086 -0.5271 -0.5622  0.9569
11215TIP3    H255061   5.008   1.835  13.132 -0.3319 -0.6215  0.4865
11216TIP3   OH255062   5.301   2.549  13.103 -0.1727 -0.9008 -0.1287
11216TIP3    H155063   5.345   2.583  13.025  0.5640 -1.5399  0.0004
11216TIP3    H255064   5.351   2.585  13.176 -0.8378 -0.3387  0.0613
11217TIP3   OH255065   2.635   4.385   3.751 -0.4749 -0.4428  0.2601
11217TIP3    H155066   2.565   4.337   3.795 -1.4767  0.2096 -0.5736
11217TIP3    H255067   2.603   4.474   3.745  0.1457 -0.2688 -0.7270
11218TIP3   OH255068   3.638   1.383  13.502  0.1713 -0.2276 -0.3063
11218TIP3    H155069   3.655   1.308  13.445 -1.9494 -1.1305  0.1524
11218TIP3    H255070   3.657   1.459  13.448 -0.6490 -1.0757 -1.8569
11219TIP3   OH255071   1.524   6.312   0.785 -0.1554 -0.1261  1.1776
11219TIP3    H155072   1.444   6.275   0.823 -1.0900 -1.9524 -2.2013
11219TIP3    H255073   1.497   6.399   0.754 -0.9051 -0.7331  0.0536
11220TIP3   OH255074   1.551   5.947   3.667 -0.5404  0.2058  0.2610
11220TIP3    H155075   1.470   5.940   3.717  0.1378 -2.2404  1.1466
11220TIP3    H255076   1.616   5.974   3.732 -0.0534 -0.9838  0.2928
11221TIP3   OH255077   6.764   2.614   1.080  0.4202  0.0051  0.1486
11221TIP3    H155078   6.755   2.524   1.050 -0.0220  0.2302 -0.4069
11221TIP3    H255079   6.802   2.660   1.005  0.9465  0.2158  0.5419
11222TIP3   OH255080   1.268   1.510  17.314 -0.2143  0.1577 -0.4488
11222TIP3    H155081   1.234   1.543  17.397 -1.1054 -0.2734 -0.6334
11222TIP3    H255082   1.363   1.512  17.325 -0.1445  3.2162 -0.6158
11223TIP3   OH255083   4.613   2.841  15.555  0.2502  0.5854  0.3379
11223TIP3    H155084   4.591   2.887  15.474  0.0471  0.8886  0.5642
11223TIP3    H255085   4.556   2.764  15.555  1.9966 -0.8081 -1.0524
11224TIP3   OH255086   6.615   6.327   3.032  0.4915  0.3911  0.5311
11224TIP3    H155087   6.673   6.272   2.979 -0.6495 -0.7738  0.4151
11224TIP3    H255088   6.528   6.311   2.996 -0.5067 -1.2848  3.3364
11225TIP3   OH255089   5.923   2.894  13.411 -0.7425 -0.4813 -0.0942
11225TIP3    H155090   5.913   2.935  13.497  1.6759 -1.0367  0.5116
11225TIP3    H255091   5.977   2.817  13.426  2.6095  1.1495 -2.4839
11226TIP3   OH255092   0.584   4.572  11.594 -0.3755 -0.3002 -0.0681
11226TIP3    H155093   0.582   4.517  11.672 -1.5037  1.2222  1.0194
11226TIP3    H255094   0.531   4.648  11.616  0.1505  0.6807 -1.9542
11227TIP3   OH255095   6.754   4.710   0.742  0.2942  0.2200  0.4472
11227TIP3    H155096   6.818   4.771   0.777  3.2939 -2.3742 -0.1301
11227TIP3    H255097   6.756   4.724   0.647  0.9444 -0.6505  0.3168
11228TIP3   OH255098   5.904   5.194   5.461  0.2636  0.1624 -0.4713
11228TIP3    H155099   5.840   5.258   5.493  1.9038  1.3347  0.6546
11228TIP3    H255100   5.890   5.117   5.515  0.7544  0.9403  0.8058
11229TIP3   OH255101   5.844   4.460   5.952  0.0762  0.5061  0.0260
11229TIP3    H155102   5.929   4.497   5.977 -0.6481  2.5814 -0.4123
11229TIP3    H255103   5.781   4.503   6.010 -0.6934 -1.2133  0.5341
11230TIP3   OH255104   0.680   2.590  15.598 -0.3134  0.2428  0.4361
11230TIP3    H155105   0.752   2.591  15.661 -1.4335  2.9923  1.8544
11230TIP3    H255106   0.718   2.627  15.518  0.2840 -0.0241  0.5904
11231TIP3   OH255107   6.503   1.878   3.834 -0.2397 -0.1781 -0.0916
11231TIP3    H155108   6.460   1.793   3.824  0.1762 -0.4979  0.7274
11231TIP3    H255109   6.431   1.941   3.841 -0.5576 -0.3160 -1.6599
11232TIP3   OH255110   0.636   6.585   0.057  0.0683 -0.2024 -0.6998
11232TIP3    H155111   0.544   6.589   0.081 -0.0511  0.5925 -1.2570
11232TIP3    H255112   0.681   6.636   0.125 -0.1113  0.8528 -1.3413
11233TIP3   OH255113   4.386   0.791  16.093 -0.0540 -0.1260  0.0186
11233TIP3    H155114   4.462   0.734  16.080  0.4628  0.5062  0.2335
11233TIP3    H255115   4.312   0.730  16.099  0.5264 -0.8002  0.5836
11234TIP3   OH255116   0.474   1.621  13.814  0.0982  0.0117 -0.1115
11234TIP3    H155117   0.498   1.713  13.814  2.1241 -0.4623 -0.3157
11234TIP3    H255118   0.407   1.613  13.881  1.1098  1.3435  1.1143
11235TIP3   OH255119   1.381   6.060  15.436 -0.0134 -0.0809  0.1758
11235TIP3    H155120   1.395   6.125  15.505  0.6612 -0.9129  0.8393
11235TIP3    H255121   1.286   6.051  15.431 -0.1861  1.7805 -0.7271
11236TIP3   OH255122   2.357   4.151   5.085  0.4992  0.2592  0.3021
11236TIP3    H155123   2.408   4.094   5.143  0.1496 -0.6460 -0.2645
11236TIP3    H255124   2.273   4.106   5.076 -0.3670  1.6394  1.0856
11237TIP3   OH255125   5.510   3.524   2.645 -0.1671  0.2189 -0.2420
11237TIP3    H155126   5.513   3.581   2.722 -0.3897  0.4968 -0.4376
11237TIP3    H255127   5.432   3.551   2.597 -0.9564 -1.0523  0.2725
11238TIP3   OH255128   5.307   1.001   6.416 -0.1016 -0.0177  0.1554
11238TIP3    H155129   5.371   0.970   6.480 -0.5930 -0.7518  0.2947
11238TIP3    H255130   5.272   1.081   6.455  2.1628  1.5465 -0.8279
11239TIP3   OH255131   2.878   3.489  13.744  0.0380  0.0041  0.4540
11239TIP3    H155132   2.875   3.546  13.821 -0.9232  0.8454 -0.1706
11239TIP3    H255133   2.844   3.405  13.774 -0.9891  0.5279  0.8105
11240TIP3   OH255134   3.924   4.496   4.416 -0.1582  0.7040  0.0973
11240TIP3    H155135   3.935   4.590   4.423  1.9306  0.3855  2.3808
11240TIP3    H255136   3.988   4.469   4.350 -0.5825  0.8413 -0.3753
11241TIP3   OH255137   1.430   2.481  13.017  0.3440  0.2254  0.1729
11241TIP3    H155138   1.428   2.448  12.927 -1.3810  0.2988  0.1480
11241TIP3    H255139   1.523   2.487  13.039  0.7581 -1.5570 -0.9519
11242TIP3   OH255140   3.467   2.271  12.080 -0.2564 -0.2277  0.2056
11242TIP3    H155141   3.462   2.192  12.026 -0.2483 -0.9705  1.2580
11242TIP3    H255142   3.376   2.292  12.100 -0.4648  1.4735 -2.0164
11243TIP3   OH255143   6.760   3.329   4.601  0.2600 -0.5597  0.0578
11243TIP3    H155144   6.688   3.360   4.547 -0.3622  1.2634  1.8457
11243TIP3    H255145   6.768   3.393   4.672  2.9301 -1.2803  0.5410
11244TIP3   OH255146   3.098   3.019   4.812  0.4103 -0.1263 -0.1907
11244TIP3    H155147   3.106   3.053   4.723 -0.1349  2.3167  0.6107
11244TIP3    H255148   3.060   3.091   4.862  1.1073 -1.2680  2.1409
11245TIP3   OH255149   2.734   2.934   0.508  0.1276  0.6843  0.6160
11245TIP3    H155150   2.808   2.939   0.568  0.5810 -0.4972  0.1938
11245TIP3    H255151   2.697   2.846   0.523 -0.2501  0.6847 -0.2435
11246TIP3   OH255152   5.217   3.208   4.111 -0.0050  0.0219 -0.0115
11246TIP3    H155153   5.312   3.198   4.119  0.0792 -0.0934 -0.9749
11246TIP3    H255154   5.182   3.175   4.193  0.7936  0.1378  0.3880
11247TIP3   OH255155   1.779   5.905  16.899 -0.2857 -0.3220 -0.9006
11247TIP3    H155156   1.694   5.942  16.875 -0.0569 -0.0311 -1.2850
11247TIP3    H255157   1.758   5.823  16.944 -0.7837  0.0427 -0.4650
11248TIP3   OH255158   0.099   5.199  15.415  0.3780  0.3569 -0.0097
11248TIP3    H155159   0.161   5.150  15.469 -0.6531  0.7937  1.6349
11248TIP3    H255160   0.035   5.233  15.477 -0.9000  0.8374 -1.5332
11249TIP3   OH255161   4.969   1.764   3.837 -0.2823  0.0794  0.2497
11249TIP3    H155162   4.959   1.752   3.743  0.2183  1.7883 -0.0688
11249TIP3    H255163   5.014   1.849   3.846 -2.2975  1.0750  2.0641
11250TIP3   OH255164   1.194   0.999  13.667 -0.3436 -0.2684 -0.5423
11250TIP3    H155165   1.164   0.937  13.734  0.5544 -0.5615 -0.4061
11250TIP3    H255166   1.160   1.084  13.697 -1.4004 -0.6457 -0.6216
11251TIP3   OH255167   4.117   0.684  14.856 -0.5863 -0.2905  0.1926
11251TIP3    H155168   4.136   0.643  14.772  1.7999 -0.8938  0.9449
11251TIP3    H255169   4.117   0.612  14.919  0.1670  0.4244  1.0429
11252TIP3   OH255170   0.857   2.620  11.457 -0.0663  0.4634  0.1844
11252TIP3    H155171   0.792   2.597  11.523 -0.6937 -0.5379 -0.7552
11252TIP3    H255172   0.926   2.665  11.506 -1.6679  2.0042  1.1355
11253TIP3   OH255173   3.488   3.596   5.631 -0.2026 -0.1663 -0.3951
11253TIP3    H155174   3.502   3.631   5.543 -0.3450  1.7902  0.2953
11253TIP3    H255175   3.572   3.611   5.675  0.0663 -1.6914 -0.3427
11254TIP3   OH255176   0.098   3.513  11.192  0.2622  0.0699 -0.3262
11254TIP3    H155177   0.033   3.498  11.261  0.1410 -2.2031 -0.8718
11254TIP3    H255178   0.111   3.428  11.152  1.7821  0.9630 -1.8673
11255TIP3   OH255179   5.784   3.177  13.394  0.0578 -0.2859 -0.3095
11255TIP3    H155180   5.718   3.117  13.359  0.3414 -0.9578  0.2632
11255TIP3    H255181   5.859   3.120  13.413  0.0223  0.0906  1.0740
11256TIP3   OH255182   4.897   3.635   5.713  0.4512 -0.0304  0.1601
11256TIP3    H155183   4.883   3.717   5.761  0.5708 -0.3183  0.6903
11256TIP3    H255184   4.810   3.596   5.707 -0.2206  1.6118 -2.8583
11257TIP3   OH255185   6.688   6.341   1.928 -0.3858  0.1466 -0.9251
11257TIP3    H155186   6.773   6.384   1.918 -0.2088  0.1700  0.4696
11257TIP3    H255187   6.628   6.411   1.955 -0.4351 -0.1719 -0.1620
11258TIP3   OH255188   2.992   2.345  11.587  0.4980 -0.3557 -0.3723
11258TIP3    H155189   3.066   2.315  11.640  1.1574 -0.2387 -1.2092
11258TIP3    H255190   2.954   2.265  11.550  0.1081 -0.4277  0.1673
11259TIP3   OH255191   1.266   4.281  15.804 -0.5471  0.5373  0.0118
11259TIP3    H155192   1.359   4.264  15.789 -1.0590 -0.3814 -2.4471
11259TIP3    H255193   1.257   4.375  15.794  0.3960  0.9698  2.3925
11260TIP3   OH255194   1.066   6.347   5.524  0.0057  0.0236  0.1505
11260TIP3    H155195   1.019   6.429   5.536 -1.9432 -0.9462 -0.3505
11260TIP3    H255196   1.097   6.350   5.434 -0.2202  0.1473  0.0748
11261TIP3   OH255197   4.842   3.762   2.081  0.0875 -0.0453 -0.0679
11261TIP3    H155198   4.780   3.693   2.057 -0.0467  0.4322 -1.2026
11261TIP3    H255199   4.917   3.748   2.022  0.3201  0.4124  0.1127
11262TIP3   OH255200   5.021   6.055  14.042 -0.2953 -0.3310 -0.3400
11262TIP3    H155201   5.064   5.976  14.075  0.2596 -0.2456 -0.8532
11262TIP3    H255202   5.088   6.101  13.992 -1.4148 -1.1385 -2.7762
11263TIP3   OH255203   1.913   0.503   2.372 -1.1804 -0.2712  0.3998
11263TIP3    H155204   1.847   0.557   2.328  0.3396  0.1641 -1.4861
11263TIP3    H255205   1.939   0.439   2.307  0.5689 -0.1402  0.9176
11264TIP3   OH255206   4.999   5.256  16.005 -0.3726 -0.5648  0.0683
11264TIP3    H155207   4.943   5.321  16.048  1.6390 -0.0162  2.0435
11264TIP3    H255208   5.079   5.304  15.985 -0.4558 -1.3713 -2.5518
11265TIP3   OH255209   6.195   3.876   3.882 -0.0479 -0.3274 -0.4214
11265TIP3    H155210   6.108   3.840   3.865 -0.6450  0.1916  1.3097
11265TIP3    H255211   6.178   3.964   3.915  1.2380  0.3560 -1.4633
11266TIP3   OH255212   3.864   2.880  11.037 -0.1322 -0.4382  0.9945
11266TIP3    H155213   3.951   2.920  11.032  0.8397 -2.4920  0.1428
11266TIP3    H255214   3.809   2.934  10.980  1.2509 -0.5674 -0.5410
11267TIP3   OH255215   1.336   5.902   4.464  0.0732 -0.2140 -0.4305
11267TIP3    H155216   1.319   5.827   4.408  0.3606  0.8070 -1.9654
11267TIP3    H255217   1.431   5.910   4.466  0.0306  1.1731 -1.8427
11268TIP3   OH255218   2.288   4.043   2.099  0.4301 -0.7904  0.4629
11268TIP3    H155219   2.217   4.088   2.053  0.8353 -0.9001 -0.2866
11268TIP3    H255220   2.320   4.107   2.162  1.5450  0.3347 -1.1431
11269TIP3   OH255221   0.200   1.831  13.557  0.0678  0.0157 -0.2225
11269TIP3    H155222   0.166   1.846  13.645  0.3977  1.3842 -0.3052
11269TIP3    H255223   0.188   1.915  13.512 -0.2756 -0.7049 -1.5503
11270TIP3   OH255224   2.670   5.020  13.115 -0.1540  0.1707 -0.4990
11270TIP3    H155225   2.674   5.116  13.117 -1.0851  0.2263  1.4301
11270TIP3    H255226   2.624   4.997  13.196  0.9527 -1.9693 -0.4209
11271TIP3   OH255227   3.024   1.945   1.229  0.2588  0.2765  0.2103
11271TIP3    H155228   3.085   1.877   1.257 -0.4562  0.1764  1.6011
11271TIP3    H255229   2.985   1.978   1.310 -0.4392  1.3734 -0.5368
11272TIP3   OH255230   1.652   1.003  12.434 -0.1152  0.4664  0.5251
11272TIP3    H155231   1.711   1.018  12.508 -0.4000  1.6857  0.5380
11272TIP3    H255232   1.584   1.071  12.444  0.2322  1.1259 -1.2247
11273TIP3   OH255233   1.173   3.887   2.671  0.1626 -0.5296  0.2064
11273TIP3    H155234   1.172   3.910   2.578 -0.7707  0.1680  0.3743
11273TIP3    H255235   1.092   3.926   2.706  0.6145 -0.5882  1.3500
11274TIP3   OH255236   4.897   4.516   0.542 -0.1069 -0.2916  0.2962
11274TIP3    H155237   4.952   4.493   0.468 -0.6630 -1.0506  0.0995
11274TIP3    H255238   4.939   4.591   0.582 -1.2208  1.9150 -2.3627
11275TIP3   OH255239   0.321   3.047  13.939  0.1947  0.0028 -0.4504
11275TIP3    H155240   0.367   3.020  14.019  1.3851 -0.2569 -1.1971
11275TIP3    H255241   0.326   2.970  13.882  0.5071  0.6205 -1.2706
11276TIP3   OH255242   2.981   4.359  13.607 -0.1293  0.7417  0.2793
11276TIP3    H155243   3.048   4.417  13.645 -0.7939  0.8417  1.3428
11276TIP3    H255244   2.982   4.380  13.514 -0.1253  2.2598  0.5807
11277TIP3   OH255245   2.357   1.978  14.410  0.4596 -0.2885  0.1733
11277TIP3    H155246   2.411   2.001  14.485  0.9037 -0.0160 -0.2293
11277TIP3    H255247   2.270   2.013  14.432  1.2354  2.4493 -0.6934
11278TIP3   OH255248   4.910   4.464  14.084  0.0716  1.3797  0.4562
11278TIP3    H155249   4.975   4.404  14.121 -1.8737 -0.5259  0.9980
11278TIP3    H255250   4.949   4.492  14.001  1.6644  0.4651  0.8356
11279TIP3   OH255251   4.289   2.431   1.513 -0.4758  0.2927  0.3384
11279TIP3    H155252   4.298   2.342   1.548 -0.0050  0.9164  1.8847
11279TIP3    H255253   4.368   2.445   1.461  0.4425  0.5004  1.7490
11280TIP3   OH255254   6.021   5.182   1.390  0.1307  0.2213 -0.2558
11280TIP3    H155255   6.088   5.114   1.401 -0.5819 -0.7050 -1.4692
11280TIP3    H255256   6.006   5.215   1.479  0.3434 -1.3486  0.3961
11281TIP3   OH255257   5.095   1.594  13.886  0.1281  0.1963 -0.2738
11281TIP3    H155258   5.144   1.602  13.804  1.9365 -1.7091  0.5088
11281TIP3    H255259   5.150   1.537  13.940 -1.8501 -0.0271  1.6117
11282TIP3   OH255260   3.037   2.443  11.346 -0.6836 -0.2687 -0.3654
11282TIP3    H155261   2.993   2.437  11.431  0.1427 -0.5277  0.0527
11282TIP3    H255262   3.129   2.453  11.368 -0.7766  3.8436 -1.1315
11283TIP3   OH255263   1.091   5.175  13.308 -0.0400 -0.3431  0.1120
11283TIP3    H155264   1.015   5.162  13.253 -0.4100  1.1343  0.2394
11283TIP3    H255265   1.142   5.244  13.264 -0.4578  1.0319  1.6708
11284TIP3   OH255266   2.606   0.699  13.768 -0.1097  0.0440 -0.0877
11284TIP3    H155267   2.691   0.724  13.732  0.7705 -0.4538  1.5140
11284TIP3    H255268   2.602   0.604  13.756 -0.5577  0.1001 -0.3857
11285TIP3   OH255269   2.723   5.715   4.035 -0.2485 -0.5576  0.6486
11285TIP3    H155270   2.775   5.676   4.105 -0.2436  1.8177  2.0903
11285TIP3    H255271   2.780   5.782   3.997 -1.6657  1.0394  1.2229
11286TIP3   OH255272   3.484   6.155  11.911  0.1586  0.4106 -0.0692
11286TIP3    H155273   3.552   6.101  11.871  0.0895 -0.2200  0.6448
11286TIP3    H255274   3.406   6.101  11.910 -0.0729  0.7387  0.0699
11287TIP3   OH255275   5.761   0.993   0.521  0.4500  0.2627 -0.3879
11287TIP3    H155276   5.705   0.916   0.507 -0.5471  1.0307 -0.7991
11287TIP3    H255277   5.802   1.008   0.436  1.4467 -0.4096 -0.0373
11288TIP3   OH255278   2.009   6.399  14.679  0.5015  0.0616 -0.0954
11288TIP3    H155279   1.980   6.309  14.691  0.6029  0.2050  1.4330
11288TIP3    H255280   2.073   6.395  14.608 -0.2429 -0.8959 -0.7283
11289TIP3   OH255281   1.744   4.264   1.790  0.1953  0.3423 -0.4333
11289TIP3    H155282   1.678   4.267   1.860 -0.1168 -1.2692 -0.6288
11289TIP3    H255283   1.751   4.355   1.761  2.1764  1.6254  3.3099
11290TIP3   OH255284   6.008   5.354   3.461  0.6161  0.0155  0.0157
11290TIP3    H155285   6.014   5.445   3.491 -1.2938 -0.7121  3.0682
11290TIP3    H255286   5.982   5.361   3.369  1.6022  2.5248 -0.1484
11291TIP3   OH255287   3.188   1.400  15.858  0.1750 -0.3586  0.5494
11291TIP3    H155288   3.144   1.454  15.793  0.3265 -1.6546 -0.6600
11291TIP3    H255289   3.276   1.387  15.822  0.5021 -0.4933  1.3756
11292TIP3   OH255290   2.366   4.801  13.104 -0.3217 -0.1488 -0.1948
11292TIP3    H155291   2.361   4.713  13.143  1.0026 -1.1746 -2.1362
11292TIP3    H255292   2.453   4.803  13.063 -0.3859  2.0425 -0.3216
11293TIP3   OH255293   0.293   5.154   2.721 -0.2199  0.1808 -0.0679
11293TIP3    H155294   0.309   5.131   2.629 -0.2800 -1.3736  0.2781
11293TIP3    H255295   0.374   5.196   2.750 -0.7424  2.0822 -1.2186
11294TIP3   OH255296   1.964   0.455   5.078  0.6841 -0.5924 -0.2546
11294TIP3    H155297   1.880   0.463   5.122  1.5245 -0.2557  1.3735
11294TIP3    H255298   1.942   0.437   4.986 -1.1708  1.3280 -0.2674
11295TIP3   OH255299   1.034   5.762  12.397 -1.1545 -0.1758  0.5249
11295TIP3    H155300   0.998   5.691  12.450 -3.5671 -0.7344 -1.6918
11295TIP3    H255301   1.026   5.731  12.307  1.1490  1.4627 -0.3348
11296TIP3   OH255302   4.207   0.260  16.354  0.1235  0.1101 -0.2610
11296TIP3    H155303   4.175   0.327  16.294  0.9681  0.0226 -0.8236
11296TIP3    H255304   4.202   0.301  16.440 -3.2585 -0.5308 -0.0101
11297TIP3   OH255305   3.732   0.353   4.891 -0.0100  0.2983  0.1472
11297TIP3    H155306   3.715   0.419   4.823 -0.1080  0.6218  0.4792
11297TIP3    H255307   3.775   0.281   4.845 -0.0792  0.5128 -0.2573
11298TIP3   OH255308   5.464   2.877  16.977  0.0893  0.2989 -0.0495
11298TIP3    H155309   5.483   2.783  16.973 -0.2406  0.2578 -1.0898
11298TIP3    H255310   5.410   2.893  16.899 -0.3311  1.2465  0.4282
11299TIP3   OH255311   6.053   3.687   1.988  0.3412 -0.5800 -0.1733
11299TIP3    H155312   6.008   3.749   2.046  1.8963 -0.3850  0.8610
11299TIP3    H255313   6.023   3.712   1.900 -0.9265  0.0591  0.4013
11300TIP3   OH255314   2.566   2.484   1.791 -0.2560  0.2542 -0.4522
11300TIP3    H155315   2.609   2.531   1.863  0.9659  0.0601 -1.0284
11300TIP3    H255316   2.635   2.429   1.755 -0.9348  0.1391 -1.6006
11301TIP3   OH255317   0.437   1.436  13.025 -0.7605 -0.0200 -0.0548
11301TIP3    H155318   0.350   1.445  12.988 -0.4593 -3.1518 -1.9428
11301TIP3    H255319   0.425   1.376  13.099 -0.2804 -0.0627 -0.0087
11302TIP3   OH255320   3.327   0.282  14.318 -0.5869  0.4413 -0.1813
11302TIP3    H155321   3.360   0.222  14.251  2.8287  1.4445  0.4463
11302TIP3    H255322   3.273   0.344  14.269  3.0682  2.1342 -2.5200
11303TIP3   OH255323   4.819   1.277  14.010  0.4597  0.2739  0.4824
11303TIP3    H155324   4.753   1.327  13.961  1.2577  0.3905 -0.5170
11303TIP3    H255325   4.768   1.225  14.072 -0.5907  0.2239 -0.3858
11304TIP3   OH255326   4.488   2.278   3.353  0.2813  0.2010  0.3613
11304TIP3    H155327   4.495   2.230   3.270  0.1186  0.3532  0.2590
11304TIP3    H255328   4.573   2.264   3.395  0.5290  0.4851 -0.0300
11305TIP3   OH255329   2.376   5.853   1.751  0.0157  0.4818  0.3996
11305TIP3    H155330   2.387   5.940   1.712  1.1166  0.2538  0.1567
11305TIP3    H255331   2.417   5.793   1.688 -1.5304 -0.3326  0.1278
11306TIP3   OH255332   1.011   4.100   2.096  0.0794  0.1484 -0.6067
11306TIP3    H155333   0.994   4.008   2.077 -0.0331  0.0610 -0.1059
11306TIP3    H255334   1.070   4.098   2.172 -3.4328  0.4930  2.3849
11307TIP3   OH255335   1.310   4.158   0.120 -0.5907 -0.1424  0.0999
11307TIP3    H155336   1.278   4.090   0.179  1.6501 -1.7364 -0.3767
11307TIP3    H255337   1.257   4.147   0.041 -0.8275 -0.7898  0.3369
11308TIP3   OH255338   5.256   2.017   4.468 -0.0334 -0.5913 -0.5623
11308TIP3    H155339   5.161   2.008   4.480 -0.2079  1.0494 -0.5016
11308TIP3    H255340   5.269   2.003   4.375 -0.1356 -2.1081 -0.3842
11309TIP3   OH255341   2.467   2.649  12.217 -0.1416  0.2119 -0.3520
11309TIP3    H155342   2.560   2.626  12.212 -0.5633 -1.9673  0.5597
11309TIP3    H255343   2.460   2.704  12.295  0.4335  0.6989 -0.6378
11310TIP3   OH255344   6.336   2.878  10.612 -0.1872  0.2122 -0.0905
11310TIP3    H155345   6.285   2.905  10.536  0.9205 -0.0571 -0.9545
11310TIP3    H255346   6.336   2.782  10.609 -1.2251  0.1496  1.0136
11311TIP3   OH255347   4.904   2.823   5.768  0.0895 -0.4091 -0.3500
11311TIP3    H155348   4.828   2.879   5.789 -0.2589  0.0461 -2.6281
11311TIP3    H255349   4.908   2.762   5.842 -0.6406  1.4294  1.3285
11312TIP3   OH255350   1.612   2.837  11.925 -0.9105 -0.5787 -0.5585
11312TIP3    H155351   1.644   2.759  11.970 -0.4474  0.9183  1.8717
11312TIP3    H255352   1.518   2.823  11.917 -0.8081 -1.4696 -0.3612
11313TIP3   OH255353   4.178   2.923   5.637 -0.2883  0.0233  0.1589
11313TIP3    H155354   4.237   2.847   5.641 -0.8689 -0.4065  0.6882
11313TIP3    H255355   4.122   2.906   5.562 -1.8937 -1.1901  1.5687
11314TIP3   OH255356   4.873   6.490  15.127 -0.0277  0.7466  0.6484
11314TIP3    H155357   4.885   6.554  15.197 -0.3400  0.8116  0.6435
11314TIP3    H255358   4.961   6.474  15.094 -0.0606  2.1915 -0.2462
11315TIP3   OH255359   6.154   0.751   1.451 -0.3002  0.2012 -0.0140
11315TIP3    H155360   6.231   0.807   1.460 -0.6608  1.0388 -1.7100
11315TIP3    H255361   6.173   0.697   1.374 -1.1651  0.0003 -0.0913
11316TIP3   OH255362   0.658   3.683   3.222 -0.6471  0.7348  0.1036
11316TIP3    H155363   0.739   3.700   3.269 -1.8511 -0.9405  3.0903
11316TIP3    H255364   0.657   3.588   3.209 -1.7134  0.8301 -0.6633
11317TIP3   OH255365   6.269   4.925   1.068  0.0596 -0.0864  0.4485
11317TIP3    H155366   6.338   4.859   1.068  0.2056  0.0447  1.6295
11317TIP3    H255367   6.277   4.968   0.982  1.7459  0.2471  0.7311
11318TIP3   OH255368   4.371   0.746   1.431 -0.4445 -0.1674 -0.2208
11318TIP3    H155369   4.348   0.794   1.352 -0.8784  0.7390  0.4234
11318TIP3    H255370   4.390   0.815   1.495 -0.3209 -0.8746  0.5189
11319TIP3   OH255371   1.470   4.763   5.667 -0.4088  0.1390  0.0003
11319TIP3    H155372   1.471   4.773   5.762 -2.4381  0.1436  0.0837
11319TIP3    H255373   1.462   4.669   5.653  1.8770 -0.0551 -0.2619
11320TIP3   OH255374   3.023   0.841   3.276  0.0757  0.3931  0.2681
11320TIP3    H155375   2.942   0.793   3.294 -0.9585  1.2496 -1.8125
11320TIP3    H255376   3.093   0.779   3.299 -1.1695 -0.8958  0.7300
11321TIP3   OH255377   5.558   3.834   6.386  0.4186  0.1521 -0.0831
11321TIP3    H155378   5.474   3.792   6.367 -0.7705 -0.3250  4.8561
11321TIP3    H255379   5.537   3.902   6.449  3.8107 -0.8654  2.4238
11322TIP3   OH255380   3.832   2.962   2.954  0.1791  0.5860  0.6747
11322TIP3    H155381   3.738   2.954   2.970  0.1138 -0.3802 -0.0824
11322TIP3    H255382   3.855   3.048   2.989 -0.8998  0.6592  1.2544
11323TIP3   OH255383   6.361   0.218   1.251  1.1052 -0.2018 -0.2519
11323TIP3    H155384   6.297   0.151   1.224 -0.3552  1.5810 -1.5082
11323TIP3    H255385   6.404   0.243   1.170  0.5892  1.3690 -0.0699
11324TIP3   OH255386   3.175   1.725  16.798 -0.1661 -0.3702 -0.1479
11324TIP3    H155387   3.146   1.816  16.804 -0.7251 -0.4754 -1.0358
11324TIP3    H255388   3.252   1.729  16.741  0.2338 -0.3760  0.3829
11325TIP3   OH255389   0.720   0.459  12.880  0.3056  0.3033  0.3913
11325TIP3    H155390   0.719   0.499  12.793 -0.2133  1.8104  1.0572
11325TIP3    H255391   0.771   0.520  12.933 -2.2513  1.2275  1.9325
11326TIP3   OH255392   6.362   2.257   0.458 -0.5989 -0.2936  0.0440
11326TIP3    H155393   6.424   2.192   0.493 -0.2254 -1.1774 -2.0891
11326TIP3    H255394   6.293   2.204   0.418 -0.9650  0.6347 -0.5667
11327TIP3   OH255395   6.571   2.467  14.588  0.6938 -1.3295 -0.5412
11327TIP3    H155396   6.527   2.388  14.556  1.1188 -1.6288 -0.3862
11327TIP3    H255397   6.635   2.436  14.651 -1.1858 -0.6379  1.8606
11328TIP3   OH255398   2.582   1.542  16.884  0.5386  0.1162  0.0103
11328TIP3    H155399   2.565   1.539  16.978  1.0431 -0.6186  0.0898
11328TIP3    H255400   2.520   1.606  16.850 -0.0373 -0.0306  0.7642
11329TIP3   OH255401   6.486   2.507   1.353  0.0821  0.0730 -0.8784
11329TIP3    H155402   6.537   2.463   1.421 -2.6030 -1.1730  0.4900
11329TIP3    H255403   6.457   2.589   1.395  2.5514  1.8555 -2.3800
11330TIP3   OH255404   1.538   2.344  11.596 -0.6494  0.2931  0.0934
11330TIP3    H155405   1.539   2.274  11.662 -0.6645 -0.4142 -0.6439
11330TIP3    H255406   1.577   2.419  11.641 -0.5997 -0.1905  0.8895
11331TIP3   OH255407   6.169   5.448   3.784 -0.4618 -0.0346  0.3242
11331TIP3    H155408   6.260   5.437   3.810 -0.0895 -0.3603 -1.0328
11331TIP3    H255409   6.146   5.537   3.812  0.0212 -0.2247  1.3485
11332TIP3   OH255410   1.014   3.589  16.422  0.3294 -0.6727  0.3687
11332TIP3    H155411   0.995   3.530  16.495  0.1709  0.6858  1.4568
11332TIP3    H255412   0.928   3.610  16.386  0.2002  0.5192  1.3170
11333TIP3   OH255413   5.753   0.973   1.211 -0.1085  0.5632 -0.3303
11333TIP3    H155414   5.785   0.922   1.285  0.6105 -0.0598 -1.0640
11333TIP3    H255415   5.826   0.977   1.150 -0.8578  0.6241 -1.2484
11334TIP3   OH255416   6.223   3.438  12.301  0.3690 -0.4354  0.0443
11334TIP3    H155417   6.252   3.390  12.378  0.2256 -1.7231 -0.6887
11334TIP3    H255418   6.292   3.502  12.285  0.6274 -0.4713  0.9439
11335TIP3   OH255419   6.599   3.757  11.533  0.3914  0.6084  0.0185
11335TIP3    H155420   6.687   3.768  11.569 -0.1758 -0.9865  2.0686
11335TIP3    H255421   6.553   3.837  11.558  0.4148  0.1272  1.6863
11336TIP3   OH255422   1.665   3.417  16.615  0.0734  0.4168 -0.3355
11336TIP3    H155423   1.709   3.396  16.697 -1.9039  1.7878  1.1731
11336TIP3    H255424   1.726   3.473  16.568  1.3326 -0.5847  0.0573
11337TIP3   OH255425   1.536   2.421   1.238  0.0709  0.3485  0.3666
11337TIP3    H155426   1.544   2.328   1.257 -0.5539  0.7147  2.6627
11337TIP3    H255427   1.560   2.465   1.319  2.2142  2.3126 -1.2095
11338TIP3   OH255428   0.061   1.679  12.208  0.0855 -0.4031 -0.4707
11338TIP3    H155429   0.106   1.746  12.158 -0.1858  0.0668 -0.0951
11338TIP3    H255430   0.009   1.631  12.143 -0.2084  0.1545 -0.6506
11339TIP3   OH255431   5.428   5.472  14.240 -0.5593  0.4428 -0.1601
11339TIP3    H155432   5.518   5.453  14.215 -0.3736 -1.3547  1.6620
11339TIP3    H255433   5.432   5.558  14.282  0.6722 -0.3901  1.5287
11340TIP3   OH255434   1.990   5.463   2.248 -0.6220 -0.2958  0.2621
11340TIP3    H155435   2.069   5.466   2.302 -0.7640 -0.3898  0.4758
11340TIP3    H255436   1.918   5.477   2.310 -0.6652  1.9672 -0.2096
11341TIP3   OH255437   0.934   4.399  12.356  0.6820 -0.1533 -0.2252
11341TIP3    H155438   0.999   4.442  12.301  0.9464  1.8658  1.5526
11341TIP3    H255439   0.855   4.452  12.346  0.4688 -0.2957  0.6342
11342TIP3   OH255440   1.365   2.211   6.543 -0.0825  0.3555 -0.4703
11342TIP3    H155441   1.447   2.254   6.517  1.9618 -1.3865  2.4733
11342TIP3    H255442   1.353   2.237   6.635 -0.5620 -2.5592  0.3901
11343TIP3   OH255443   2.397   6.187   5.856  0.3904 -0.0040  0.8913
11343TIP3    H155444   2.303   6.173   5.864  0.0399  2.0727  0.7653
11343TIP3    H255445   2.424   6.220   5.941  0.6913  0.9894  0.4200
11344TIP3   OH255446   0.354   0.579   0.945  0.1413  0.5600 -0.4804
11344TIP3    H155447   0.268   0.619   0.931 -0.0884  0.1007 -0.4010
11344TIP3    H255448   0.338   0.485   0.935  0.9053  0.5492 -1.8643
11345TIP3   OH255449   5.023   6.592   0.223 -0.2946 -0.2051 -0.1232
11345TIP3    H155450   5.031   6.508   0.179 -1.7188  0.8710 -2.6756
11345TIP3    H255451   5.101   6.640   0.197 -1.7975  0.9467 -2.9278
11346TIP3   OH255452   4.266   6.736   4.900  0.1259 -0.1573  0.1155
11346TIP3    H155453   4.343   6.791   4.884 -0.8954  1.3063 -0.0044
11346TIP3    H255454   4.301   6.657   4.940  1.7609  0.1743 -0.5652
11347TIP3   OH255455   1.384   3.205   3.120  0.2927  1.1561  0.3747
11347TIP3    H155456   1.366   3.215   3.026  2.1690  1.0037 -0.0548
11347TIP3    H255457   1.353   3.117   3.141  1.6468  0.3944 -0.6259
11348TIP3   OH255458   2.434   1.773  16.783 -0.0684  0.3272 -0.1287
11348TIP3    H155459   2.358   1.829  16.801  0.7591  1.2798  0.5002
11348TIP3    H255460   2.474   1.811  16.705 -0.2270 -0.1745 -0.4614
11349TIP3   OH255461   3.581   0.963  12.770  0.2895  0.4870  0.6356
11349TIP3    H155462   3.675   0.983  12.774  0.2453  0.4555  2.1235
11349TIP3    H255463   3.575   0.871  12.795 -0.1809  0.6084  0.9683
11350TIP3   OH255464   2.527   4.991   6.182 -0.0495 -0.5515  0.4073
11350TIP3    H155465   2.556   5.082   6.174  0.7904 -0.5908  2.3752
11350TIP3    H255466   2.434   4.994   6.164  0.1499  0.5350 -0.5486
11351TIP3   OH255467   4.232   5.259  14.451 -0.0408 -0.1518 -0.2023
11351TIP3    H155468   4.326   5.258  14.435  0.0177 -1.1336  0.1271
11351TIP3    H255469   4.222   5.225  14.540 -0.8182 -2.2260 -1.0004
11352TIP3   OH255470   5.176   6.416   2.619 -0.3188 -0.1003 -0.4067
11352TIP3    H155471   5.199   6.382   2.532 -0.5230 -0.1020 -0.4598
11352TIP3    H255472   5.097   6.468   2.604  0.6637  1.4205 -0.5559
11353TIP3   OH255473   3.318   4.803   3.731  0.1832  0.3302 -0.0719
11353TIP3    H155474   3.343   4.835   3.818  0.8005 -1.5523  0.5087
11353TIP3    H255475   3.271   4.721   3.749 -1.2092  0.7874 -1.4559
11354TIP3   OH255476   4.486   1.570  10.935  0.1742  0.2012  0.1945
11354TIP3    H155477   4.412   1.596  10.880  0.0579 -0.0912  0.2119
11354TIP3    H255478   4.559   1.622  10.903  0.3076 -0.5527 -0.7753
11355TIP3   OH255479   0.751   0.271   1.458  0.0966 -0.3672 -0.3236
11355TIP3    H155480   0.657   0.268   1.471 -0.0774 -0.2115 -1.4557
11355TIP3    H255481   0.786   0.211   1.524 -0.8843 -1.3845 -0.6906
11356TIP3   OH255482   0.137   5.872   6.023 -0.0952  0.3568 -0.6188
11356TIP3    H155483   0.079   5.866   6.099  0.0459 -1.5760 -0.6370
11356TIP3    H255484   0.209   5.928   6.052 -2.1680  3.4100 -0.7908
11357TIP3   OH255485   3.553   2.642   5.848 -0.1923 -0.5103 -0.4132
11357TIP3    H155486   3.464   2.676   5.851 -1.1696 -2.9084  0.1045
11357TIP3    H255487   3.586   2.652   5.937  0.4790  1.2567 -0.8120
11358TIP3   OH255488   2.870   6.457   3.580  0.5689  0.3911 -0.3768
11358TIP3    H155489   2.956   6.459   3.621  1.8039 -2.0897 -2.5393
11358TIP3    H255490   2.829   6.377   3.613 -0.0305  0.4648 -0.9102
11359TIP3   OH255491   0.771   2.024  11.294  0.2110 -0.3179  0.7248
11359TIP3    H155492   0.694   2.021  11.237  1.1230  1.8347 -0.7388
11359TIP3    H255493   0.756   2.098  11.352  0.7971 -0.4102  1.0027
11360TIP3   OH255494   4.092   6.681   4.697 -0.2983  0.0928  0.2679
11360TIP3    H155495   4.149   6.659   4.770 -0.5239  0.1024  0.4467
11360TIP3    H255496   4.097   6.776   4.689 -0.3978  0.1079  0.3752
11361TIP3   OH255497   0.318   1.504  14.358 -0.4328  0.5016  0.5261
11361TIP3    H155498   0.246   1.559  14.387 -1.6238  0.2383 -1.7523
11361TIP3    H255499   0.277   1.428  14.318  1.1351 -0.3023  0.3432
11362TIP3   OH255500   0.120   2.694  10.663  0.0899  0.2339 -0.4582
11362TIP3    H155501   0.214   2.687  10.673  0.3097  0.7684 -1.9000
11362TIP3    H255502   0.098   2.781  10.698 -0.4231 -1.1272  3.0436
11363TIP3   OH255503   2.390   2.222  12.740  0.0234 -0.3688  0.3969
11363TIP3    H155504   2.370   2.170  12.818  0.0280  1.3998  1.6399
11363TIP3    H255505   2.425   2.305  12.775  4.7260 -1.2243 -1.4835
11364TIP3   OH255506   4.644   5.084   5.881 -0.1562  0.2091 -0.7188
11364TIP3    H155507   4.685   5.012   5.929 -2.5445  0.4385  1.9238
11364TIP3    H255508   4.674   5.163   5.926 -1.1042  0.5519 -0.6676
11365TIP3   OH255509   3.871   3.163   4.533 -0.0319  0.5252 -0.4047
11365TIP3    H155510   3.779   3.138   4.526 -0.2306  1.1351 -0.0627
11365TIP3    H255511   3.891   3.206   4.450 -0.4733  1.6706  0.0504
11366TIP3   OH255512   0.085   4.847  12.390 -0.3504  0.0232 -0.5061
11366TIP3    H155513   0.126   4.874  12.472  0.0709 -1.6262 -0.1246
11366TIP3    H255514   0.041   4.925  12.357  1.6864  1.4239 -0.0693
11367TIP3   OH255515   6.756   3.839  13.745 -0.2251  0.0950  0.2451
11367TIP3    H155516   6.752   3.745  13.725 -0.7331  0.1128  0.2510
11367TIP3    H255517   6.764   3.844  13.840  0.4062  0.0460  0.1958
11368TIP3   OH255518   0.342   5.252   1.130  0.4038  0.2859 -0.0874
11368TIP3    H155519   0.337   5.162   1.098 -0.6708  0.7618 -1.3410
11368TIP3    H255520   0.369   5.243   1.222  0.2270 -1.3115 -0.1612
11369TIP3   OH255521   6.146   5.512   1.074  0.0621 -0.4372  0.1103
11369TIP3    H155522   6.239   5.517   1.050 -0.0002  0.1644 -0.0130
11369TIP3    H255523   6.146   5.517   1.169  0.0491  1.5336  0.0403
11370TIP3   OH255524   3.661   2.229   0.959 -0.4397 -1.0165  0.3183
11370TIP3    H155525   3.690   2.312   0.996 -2.3992 -0.8511  1.6297
11370TIP3    H255526   3.700   2.226   0.872 -0.9933  1.6982 -0.0996
11371TIP3   OH255527   4.627   5.201   4.863 -0.3146 -0.0431  0.8314
11371TIP3    H155528   4.553   5.254   4.834 -1.6760 -2.1513  0.2153
11371TIP3    H255529   4.587   5.122   4.900  1.5921 -1.4691  0.0475
11372TIP3   OH255530   1.295   1.589  11.425 -0.3162  0.4722  0.2503
11372TIP3    H155531   1.290   1.604  11.330 -1.5352 -1.8288 -0.1266
11372TIP3    H255532   1.205   1.598  11.455  0.0223  0.9120  1.1762
11373TIP3   OH255533   2.967   3.780   1.437 -0.0540 -0.0557  0.2077
11373TIP3    H155534   2.888   3.727   1.427  0.6817 -0.9160 -1.6722
11373TIP3    H255535   2.944   3.865   1.398  0.4208 -0.8767 -1.9859
11374TIP3   OH255536   3.588   0.707  11.783 -0.3834 -0.6828 -0.4583
11374TIP3    H155537   3.589   0.799  11.758  4.2476 -0.6496 -0.8987
11374TIP3    H255538   3.655   0.666  11.728 -0.1423 -3.6860  1.8032
11375TIP3   OH255539   1.540   2.789   1.973  0.4146 -0.4419 -0.2527
11375TIP3    H155540   1.455   2.833   1.959  0.5574  0.4427  1.4107
11375TIP3    H255541   1.559   2.747   1.889 -0.4163  1.5376 -1.5119
11376TIP3   OH255542   1.225   4.273   6.164 -0.4383  0.9705  0.2582
11376TIP3    H155543   1.266   4.208   6.220 -3.1356 -0.3986  0.8230
11376TIP3    H255544   1.291   4.342   6.154  0.7915  0.4981  3.7390
11377TIP3   OH255545   6.584   4.039  11.859  0.3068 -0.0122  0.2006
11377TIP3    H155546   6.516   4.084  11.909 -0.2595  0.4909 -0.9808
11377TIP3    H255547   6.647   4.108  11.837  0.2366 -0.1087 -0.3027
11378TIP3   OH255548   4.727   1.363  14.406 -0.2035 -0.2401  0.2038
11378TIP3    H155549   4.659   1.345  14.341 -0.3809 -3.8965  1.1681
11378TIP3    H255550   4.808   1.371  14.355 -0.7790  0.1497 -0.6650
11379TIP3   OH255551   1.315   6.497   2.435  0.2660 -0.1297 -0.3340
11379TIP3    H155552   1.314   6.579   2.485 -2.7732  0.0731 -0.5614
11379TIP3    H255553   1.407   6.484   2.413  0.9562  2.8131  0.3744
11380TIP3   OH255554   1.777   1.973  16.224  0.1944 -0.0021  0.7195
11380TIP3    H155555   1.718   2.010  16.289 -0.6973  0.0588 -0.1012
11380TIP3    H255556   1.849   2.035  16.218 -0.0833  0.3577  1.1122
11381TIP3   OH255557   1.227   2.815  16.266 -0.1575  0.2495 -0.3623
11381TIP3    H155558   1.252   2.830  16.357 -0.2835  1.1482 -0.4634
11381TIP3    H255559   1.259   2.892  16.219  0.2295 -0.3689 -1.1488
11382TIP3   OH255560   1.104   4.005  14.263 -0.3411  0.4444  0.3094
11382TIP3    H155561   1.158   3.996  14.341 -0.8383 -0.5962  0.5577
11382TIP3    H255562   1.104   4.099  14.245 -0.9814  0.8473  2.1205
11383TIP3   OH255563   0.256   0.422   2.503  0.5306  0.2207 -0.1826
11383TIP3    H155564   0.254   0.448   2.411 -0.1727 -0.3029 -0.3303
11383TIP3    H255565   0.314   0.485   2.546  2.2200 -0.5340 -1.2823
11384TIP3   OH255566   4.446   0.006   3.159  0.3952 -0.1254  0.5752
11384TIP3    H155567   4.387  -0.061   3.192 -2.0871  0.8053 -1.6314
11384TIP3    H255568   4.508  -0.041   3.104 -0.6242 -0.7673 -0.0456
11385TIP3   OH255569   3.916   0.893  14.311  0.5965  0.7871  0.1245
11385TIP3    H155570   3.862   0.940  14.247  0.6060 -0.0144 -0.4745
11385TIP3    H255571   3.857   0.828  14.349  1.3205 -0.5948 -1.0666
11386TIP3   OH255572   0.945   2.209  16.379 -0.3258 -0.2371 -0.1506
11386TIP3    H155573   0.946   2.304  16.362 -0.5301 -0.4116 -1.2479
11386TIP3    H255574   0.884   2.174  16.314 -1.8432 -0.9093  1.5613
11387TIP3   OH255575   5.497   5.132   3.839 -0.1382 -0.0071 -0.0001
11387TIP3    H155576   5.547   5.152   3.918  1.6948  0.2816 -1.1628
11387TIP3    H255577   5.406   5.131   3.868  0.4539  0.2651  2.0645
11388TIP3   OH255578   3.133   2.874   6.594 -0.3302  0.0262  0.5439
11388TIP3    H155579   3.160   2.890   6.504 -0.7064 -0.4562  0.3384
11388TIP3    H255580   3.147   2.780   6.607 -2.0937 -0.2944  0.3530
11389TIP3   OH255581   4.070   0.179  11.085 -0.5555 -0.1355  0.0661
11389TIP3    H155582   4.150   0.143  11.047 -1.0482 -0.0632 -1.0728
11389TIP3    H255583   4.053   0.125  11.163  0.1464 -0.6675 -0.1492
11390TIP3   OH255584   2.241   4.145  12.393 -0.0690 -0.8757 -0.3891
11390TIP3    H155585   2.165   4.111  12.440 -0.6807 -0.7061 -1.2222
11390TIP3    H255586   2.213   4.148  12.302 -0.0072  1.6231 -0.4174
11391TIP3   OH255587   3.553   3.966  13.348 -0.3559  0.0972 -0.2752
11391TIP3    H155588   3.472   3.915  13.345 -1.3565  1.5930  0.0842
11391TIP3    H255589   3.523   4.057  13.345  1.3204  0.6782  0.0452
11392TIP3   OH255590   4.193   1.599   6.163  0.0295  0.1302 -0.1767
11392TIP3    H155591   4.207   1.510   6.128  0.2688 -0.4030  1.2020
11392TIP3    H255592   4.112   1.592   6.213 -0.9813  1.2010 -1.5938
11393TIP3   OH255593   1.288   3.220  11.610  0.3452  0.1796 -0.3308
11393TIP3    H155594   1.347   3.149  11.587 -0.1155 -0.2335 -0.2641
11393TIP3    H255595   1.290   3.278  11.534  0.2801 -0.2033 -0.6302
11394TIP3   OH255596   1.244   6.560  17.173  0.5527 -0.0637  0.7774
11394TIP3    H155597   1.231   6.638  17.227 -1.7805 -0.0328  0.2760
11394TIP3    H255598   1.204   6.581  17.089  0.9829 -1.3781  0.2005
11395TIP3   OH255599   5.646   5.748   0.250 -0.3551  0.2009  0.2050
11395TIP3    H155600   5.723   5.782   0.297 -1.0523  1.5379  0.4261
11395TIP3    H255601   5.683   5.690   0.183  0.6805 -1.6390  2.2475
11396TIP3   OH255602   2.265   5.380  15.829  0.6008 -0.6109  0.5435
11396TIP3    H155603   2.305   5.459  15.792  1.3791 -0.2307  2.1258
11396TIP3    H255604   2.224   5.409  15.911 -0.9590 -1.4582  0.1051
11397TIP3   OH255605   6.339   6.402   0.932 -0.1121 -0.3704  0.4091
11397TIP3    H155606   6.407   6.429   0.993  0.9353 -0.2560 -0.7512
11397TIP3    H255607   6.361   6.448   0.850 -1.7920 -0.0589  0.0964
11398TIP3   OH255608   0.430   2.228  16.533  0.0463  0.1697  0.2559
11398TIP3    H155609   0.345   2.251  16.494  0.2486  1.2452  0.4019
11398TIP3    H255610   0.447   2.139  16.504  0.0636  0.8308 -1.8933
11399TIP3   OH255611   6.255   0.425   0.231  0.1963 -0.4985  0.4344
11399TIP3    H155612   6.224   0.370   0.159 -0.1976 -0.4733  0.5786
11399TIP3    H255613   6.228   0.378   0.310  0.3298 -0.3616  0.5617
11400TIP3   OH255614   5.365   4.060   5.203 -0.6601  0.1966 -0.3536
11400TIP3    H155615   5.415   4.140   5.185  0.2471 -0.2456  0.1233
11400TIP3    H255616   5.281   4.075   5.160  0.3807  0.3632 -2.5096
11401TIP3   OH255617   2.065   1.084  17.252  0.4088  0.0267 -0.6409
11401TIP3    H155618   2.040   1.024  17.181  1.3512 -1.5096  0.2644
11401TIP3    H255619   2.160   1.076  17.257  0.3282 -0.1449  0.9945
11402TIP3   OH255620   3.227   3.653  13.741 -0.4219  0.3523 -0.3123
11402TIP3    H155621   3.281   3.606  13.804 -0.5789 -2.1235 -1.8868
11402TIP3    H255622   3.254   3.744  13.750  0.1224  0.0101  2.7115
11403TIP3   OH255623   2.540   5.057  11.722  0.2264  0.0120 -0.0115
11403TIP3    H155624   2.446   5.072  11.713  0.1718  0.3636  0.9800
11403TIP3    H255625   2.577   5.145  11.730  0.6959 -0.1027 -0.8253
11404TIP3   OH255626   6.002   3.171   4.459 -0.9605 -0.4298 -0.7979
11404TIP3    H155627   5.963   3.258   4.464 -0.4968 -0.2343 -0.6037
11404TIP3    H255628   6.086   3.184   4.417 -1.4082 -0.9626 -1.8929
11405TIP3   OH255629   2.597   0.537  15.988  0.2016  0.1323  0.5667
11405TIP3    H155630   2.613   0.551  16.082  0.3913  2.2066  0.2727
11405TIP3    H255631   2.617   0.622  15.948 -2.1701  0.0033 -1.0686
11406TIP3   OH255632   2.588   2.867  11.114 -0.3662 -0.6612  0.3086
11406TIP3    H155633   2.500   2.904  11.117 -0.7087 -1.4961  1.2799
11406TIP3    H255634   2.596   2.832  11.026 -0.5166  0.5363 -0.2010
11407TIP3   OH255635   1.565   1.027  17.213  0.1208 -0.4176 -0.2666
11407TIP3    H155636   1.495   1.037  17.149  1.5185 -0.8665 -1.9195
11407TIP3    H255637   1.540   0.951  17.265 -0.7542 -0.3729 -0.6110
11408TIP3   OH255638   4.419   6.032   5.584 -0.4106  0.0488 -0.3918
11408TIP3    H155639   4.355   5.961   5.577 -1.3204  0.4179  2.6834
11408TIP3    H255640   4.385   6.100   5.526 -0.7355 -1.1693 -1.6801
11409TIP3   OH255641   0.992   5.955   2.041  0.7082 -0.1211 -0.5781
11409TIP3    H155642   1.082   5.926   2.054  0.1950 -0.7227  2.5528
11409TIP3    H255643   0.948   5.880   2.001  1.0520 -0.8607  0.3922
11410TIP3   OH255644   1.661   0.723   5.167 -0.2510  0.1998  0.0695
11410TIP3    H155645   1.673   0.642   5.117 -0.9245 -0.5480  1.0697
11410TIP3    H255646   1.592   0.770   5.120  1.3181  1.0260 -1.4840
11411TIP3   OH255647   4.653   1.388  11.984 -0.4595 -0.7809 -0.1079
11411TIP3    H155648   4.654   1.292  11.982 -0.0965 -0.8094 -2.8064
11411TIP3    H255649   4.585   1.412  11.921  0.5240  0.7133 -0.6557
11412TIP3   OH255650   5.500   1.934   5.998  0.0736 -0.4301  0.4812
11412TIP3    H155651   5.548   1.902   5.922  1.2811 -1.4238  1.6172
11412TIP3    H255652   5.429   1.986   5.961  1.2724  0.0403 -1.2888
11413TIP3   OH255653   6.634   6.360  13.791  0.5041 -0.2063  0.2433
11413TIP3    H155654   6.541   6.337  13.790 -0.6904  3.7825  0.9584
11413TIP3    H255655   6.674   6.300  13.728 -3.0226 -0.4447 -2.0842
11414TIP3   OH255656   4.446   1.472  16.673 -0.4027  0.1229  0.2318
11414TIP3    H155657   4.385   1.522  16.619  0.4618 -0.4580 -1.3777
11414TIP3    H255658   4.526   1.526  16.674 -0.2136 -0.1583  0.3942
11415TIP3   OH255659   2.169   6.038  17.037 -0.0389  0.1325 -0.2817
11415TIP3    H155660   2.074   6.048  17.028 -0.1405  1.5888  1.8026
11415TIP3    H255661   2.203   6.127  17.036  0.8884 -0.0859  2.4999
11416TIP3   OH255662   2.208   5.934  12.343 -0.1058 -0.5666 -0.2209
11416TIP3    H155663   2.271   5.890  12.400  0.5510 -0.6533 -0.9967
11416TIP3    H255664   2.205   6.024  12.375  2.1701  0.0732 -1.5537
11417TIP3   OH255665   0.026   4.505  10.730 -0.3342 -0.2713 -0.0807
11417TIP3    H155666  -0.011   4.568  10.668  1.0804  1.4899  0.7803
11417TIP3    H255667   0.094   4.459  10.681  0.3977  0.7219 -0.0114
11418TIP3   OH255668   6.241   6.632   2.057 -0.0158 -0.1125  0.0938
11418TIP3    H155669   6.184   6.673   1.991  1.0446 -0.1744 -0.8918
11418TIP3    H255670   6.181   6.587   2.116 -0.9655 -0.8877 -1.4061
11419TIP3   OH255671   6.600   0.585  14.286  0.2953 -0.3899  0.3829
11419TIP3    H155672   6.616   0.496  14.318  1.2468 -0.5367 -0.4467
11419TIP3    H255673   6.585   0.637  14.365 -0.0998 -1.2498  0.8860
11420TIP3   OH255674   3.194   4.433   0.112 -0.2424  0.0977  0.1536
11420TIP3    H155675   3.234   4.512   0.149  0.9928  0.4938 -1.8950
11420TIP3    H255676   3.103   4.436   0.143  0.3886  0.9739  2.1467
11421TIP3   OH255677   4.529   5.574  11.234 -0.1280  0.0597 -0.4456
11421TIP3    H155678   4.503   5.614  11.150  1.2364  1.2717 -0.3413
11421TIP3    H255679   4.464   5.606  11.297  0.6546  1.7997 -0.4611
11422TIP3   OH255680   4.606   0.641  12.945  0.5535  0.4351  0.3484
11422TIP3    H155681   4.642   0.704  13.008  2.8061  0.5658 -0.9746
11422TIP3    H255682   4.584   0.565  12.998 -0.0943  1.4820  1.6596
11423TIP3   OH255683   3.823   1.273   0.302  0.0851  0.7000 -0.0130
11423TIP3    H155684   3.833   1.357   0.346  2.0093  0.6964 -0.3233
11423TIP3    H255685   3.880   1.213   0.352 -1.7541 -0.6145  0.6129
11424TIP3   OH255686   6.591   5.377   5.278  0.0248 -0.0962 -0.2274
11424TIP3    H155687   6.595   5.436   5.354 -2.1461 -0.1100 -0.0266
11424TIP3    H255688   6.681   5.373   5.245  0.8281  0.7315  1.7180
11425TIP3   OH255689   6.388   2.486  16.423 -0.3139 -0.2457  0.1213
11425TIP3    H155690   6.399   2.530  16.339 -0.4397 -0.5410 -0.0515
11425TIP3    H255691   6.426   2.399  16.411  1.3433  0.3318  0.9284
11426TIP3   OH255692   5.451   3.947  13.233 -0.0154 -0.3155  0.2329
11426TIP3    H155693   5.417   4.030  13.200  0.4363 -0.7046 -1.3010
11426TIP3    H255694   5.535   3.970  13.273  0.3068 -0.0580 -0.5525
11427TIP3   OH255695   0.965   6.650   2.687  0.6000 -0.2394  0.0792
11427TIP3    H155696   1.040   6.706   2.708 -0.8006  1.7387  0.0934
11427TIP3    H255697   0.891   6.692   2.730 -0.8256 -1.1186 -1.4173
11428TIP3   OH255698   5.226   6.316  15.861 -0.7353 -0.2548  0.5580
11428TIP3    H155699   5.197   6.329  15.951  0.1644 -0.6520  0.9247
11428TIP3    H255700   5.160   6.259  15.822 -1.7117  0.8019  0.6285
11429TIP3   OH255701   4.829   2.703  11.495 -0.0726  0.1486  0.6714
11429TIP3    H155702   4.827   2.781  11.440 -3.0832 -0.1016  0.2481
11429TIP3    H255703   4.796   2.633  11.438  0.4468 -0.9697  1.6992
11430TIP3   OH255704   1.578   2.109  15.378 -0.2281 -0.1347 -0.4164
11430TIP3    H155705   1.618   2.181  15.330  0.9669 -1.0634 -0.8468
11430TIP3    H255706   1.556   2.146  15.463  0.5218  0.6946 -0.5762
11431TIP3   OH255707   2.968   5.369  15.813 -0.3398 -0.1927 -0.1605
11431TIP3    H155708   2.958   5.304  15.882 -0.0202 -0.3536 -0.2645
11431TIP3    H255709   3.041   5.337  15.760  0.3139  0.6219  0.2223
11432TIP3   OH255710   5.409   6.419  16.885 -0.1387 -0.3237  0.0503
11432TIP3    H155711   5.341   6.462  16.937 -0.1214 -0.5156  0.2344
11432TIP3    H255712   5.464   6.374  16.949  0.6734  0.5318 -0.0266
11433TIP3   OH255713   4.085   4.444   5.846 -0.4636  0.2378 -0.1316
11433TIP3    H155714   4.003   4.404   5.817  0.3759 -1.0363 -0.8352
11433TIP3    H255715   4.134   4.372   5.886  0.5888  0.8371 -0.3193
11434TIP3   OH255716   1.435   3.387  12.622 -0.2163 -0.3003 -0.6095
11434TIP3    H155717   1.372   3.430  12.564 -1.0456 -0.3693  0.2219
11434TIP3    H255718   1.455   3.452  12.689  1.7255  0.2466 -1.6319
11435TIP3   OH255719   1.170   2.036  16.497 -0.4407 -0.2535 -0.1124
11435TIP3    H155720   1.196   1.984  16.421 -0.1434 -0.5150  0.1631
11435TIP3    H255721   1.098   2.091  16.465 -0.1199 -0.1395 -0.6570
11436TIP3   OH255722   1.637   2.356  12.429 -0.2993  0.4231  0.3303
11436TIP3    H155723   1.677   2.319  12.350  0.1143  2.1622 -0.3352
11436TIP3    H255724   1.574   2.290  12.458  1.4690 -1.4587  0.1465
11437TIP3   OH255725   3.593   0.082  14.445  0.2268  0.6865  0.2548
11437TIP3    H155726   3.641   0.146  14.497 -0.4478  0.3805  1.2806
11437TIP3    H255727   3.512   0.067  14.494 -1.2600  1.6871 -1.7276
11438TIP3   OH255728   0.237   3.830  13.681  0.1234  0.1028 -0.2991
11438TIP3    H155729   0.153   3.866  13.711 -0.3399 -2.8064  2.3197
11438TIP3    H255730   0.231   3.832  13.585 -2.8331  0.1613 -0.1862
11439TIP3   OH255731   3.124   2.430  16.125 -0.0989 -0.6847 -0.2731
11439TIP3    H155732   3.213   2.399  16.142  0.3414  0.1454 -0.9823
11439TIP3    H255733   3.114   2.506  16.182  0.1555  0.0468 -1.1739
11440TIP3   OH255734   4.012   6.683  17.266 -0.2611  0.1047  0.6191
11440TIP3    H155735   4.026   6.706  17.358  0.3089  1.5804  0.1914
11440TIP3    H255736   4.022   6.588  17.263  2.3070  0.2727  1.6603
11441TIP3   OH255737   4.697   2.973   5.838  0.3735  0.4186  0.0035
11441TIP3    H155738   4.641   3.037   5.881 -0.9188  0.4266 -1.5785
11441TIP3    H255739   4.644   2.939   5.766  1.2067 -2.0761  0.4679
11442TIP3   OH255740   5.212   2.974  11.397 -0.3591  0.8436  0.0443
11442TIP3    H155741   5.202   2.881  11.377 -1.0554  0.3586  2.3616
11442TIP3    H255742   5.294   2.979  11.446  0.5121  1.7499 -1.4129
11443TIP3   OH255743   3.052   2.324   2.524 -0.3424  0.0876  0.5404
11443TIP3    H155744   3.042   2.290   2.435 -0.6433  0.7121  0.3372
11443TIP3    H255745   3.100   2.254   2.570  0.1318 -0.0882 -0.1987
11444TIP3   OH255746   0.122   2.758   2.010  0.6655  0.2685 -0.5427
11444TIP3    H155747   0.105   2.817   2.084 -0.9443 -0.2681 -0.4470
11444TIP3    H255748   0.195   2.799   1.963  0.1508  1.8892 -0.0055
11445TIP3   OH255749   5.993   4.178   0.936 -0.0400  0.1392  0.1725
11445TIP3    H155750   5.978   4.272   0.932  2.3937  0.5723 -1.1051
11445TIP3    H255751   6.081   4.166   0.900  0.9760 -2.3347  3.0365
11446TIP3   OH255752   4.731   4.319  13.825  0.4162  0.0085 -0.5216
11446TIP3    H155753   4.753   4.344  13.915  2.2795 -0.1005 -0.8906
11446TIP3    H255754   4.785   4.377  13.771  0.7435 -1.1704 -1.5040
11447TIP3   OH255755   3.882   2.328  13.227  0.1090 -0.2428  0.7137
11447TIP3    H155756   3.833   2.315  13.308 -0.7521  2.0546  0.6416
11447TIP3    H255757   3.850   2.412  13.193  1.1079 -0.7063 -1.5338
11448TIP3   OH255758   2.031   0.774   2.666  0.4792  0.4148 -0.2616
11448TIP3    H155759   1.985   0.691   2.676  2.0032 -0.3686  0.6616
11448TIP3    H255760   2.074   0.768   2.581  0.6200  0.2557 -0.1777
11449TIP3   OH255761   4.742   0.182  11.894 -0.7177  0.5633 -0.3416
11449TIP3    H155762   4.708   0.099  11.861 -1.2043  0.7133 -0.2259
11449TIP3    H255763   4.701   0.248  11.838 -1.1321  0.7863  0.2111
11450TIP3   OH255764   0.223   5.283   0.820  0.0509  0.0767 -0.4124
11450TIP3    H155765   0.291   5.229   0.779 -0.4378 -0.5978 -0.3456
11450TIP3    H255766   0.177   5.223   0.879 -1.6321  0.1029 -1.6213
11451TIP3   OH255767   0.555   1.205   2.004 -0.0755 -0.1940 -0.0742
11451TIP3    H155768   0.638   1.162   1.982 -1.3691 -2.4480 -0.8584
11451TIP3    H255769   0.500   1.193   1.927 -1.0894  1.4700  0.3290
11452TIP3   OH255770   1.913   2.708  11.797  0.4915 -0.4686  0.8569
11452TIP3    H155771   1.874   2.772  11.737  2.1709  0.7277  0.9823
11452TIP3    H255772   1.933   2.758  11.876  1.4114 -1.2489  1.1334
11453TIP3   OH255773   1.954   6.609  10.688 -0.3097 -0.0771  0.1755
11453TIP3    H155774   2.047   6.589  10.685 -0.1956  0.5123 -0.3388
11453TIP3    H255775   1.950   6.701  10.711 -0.7749 -0.1606  0.4414
11454TIP3   OH255776   5.233   3.466  12.565  0.4896 -0.4620 -0.2311
11454TIP3    H155777   5.297   3.453  12.635  0.2080 -0.7476 -0.0267
11454TIP3    H255778   5.157   3.415  12.592 -0.4413  1.1291  0.3309
11455TIP3   OH255779   2.303   1.131   5.315 -0.2925  0.3303  0.3525
11455TIP3    H155780   2.253   1.196   5.364  0.8922  1.4573  0.1353
11455TIP3    H255781   2.258   1.049   5.331 -1.6283  1.1446  0.9344
11456TIP3   OH255782   5.853   0.247   1.985 -0.2835 -0.7579 -0.1214
11456TIP3    H155783   5.784   0.206   1.933 -1.2823  0.4299  0.2160
11456TIP3    H255784   5.817   0.252   2.074 -0.1976  0.7395 -0.1311
11457TIP3   OH255785   6.133   0.221  11.402 -0.1932  0.2249  0.1327
11457TIP3    H155786   6.181   0.154  11.451  0.8113 -0.1599 -1.3014
11457TIP3    H255787   6.095   0.173  11.328  1.1741  1.3222 -1.3467
11458TIP3   OH255788   5.260   6.213   0.795 -0.6587  0.2919  0.4748
11458TIP3    H155789   5.210   6.225   0.714  0.2311 -1.0804 -0.3145
11458TIP3    H255790   5.211   6.148   0.844 -0.5869  0.2573  0.5008
11459TIP3   OH255791   4.469   0.465  16.405  0.1964  0.7214  0.2993
11459TIP3    H155792   4.551   0.443  16.449  0.3178  1.1184  0.2709
11459TIP3    H255793   4.486   0.444  16.313 -0.0489 -0.0834  0.4227
11460TIP3   OH255794   0.315   1.807  12.731 -0.5565  0.0607  0.2350
11460TIP3    H155795   0.345   1.749  12.800 -0.8192 -1.3041 -0.7379
11460TIP3    H255796   0.348   1.767  12.650 -3.0467 -0.3155 -0.6965
11461TIP3   OH255797   3.026   0.848  14.395 -0.1346  0.7909  0.4468
11461TIP3    H155798   3.066   0.814  14.475 -0.4761  1.1770  0.7934
11461TIP3    H255799   3.100   0.868  14.338  0.0321 -2.6696 -0.7219
11462TIP3   OH255800   5.255   0.972   0.454 -0.0457 -0.3355  0.0675
11462TIP3    H155801   5.182   1.010   0.405  1.3238  0.2734 -1.6055
11462TIP3    H255802   5.257   0.880   0.427  1.1877  0.1615 -1.7987
11463TIP3   OH255803   1.503   6.625   4.351 -0.2239 -0.4582 -0.4212
11463TIP3    H155804   1.477   6.557   4.289 -0.1770 -1.8003  0.9721
11463TIP3    H255805   1.421   6.657   4.387 -0.2208 -0.1385 -0.6945
11464TIP3   OH255806   3.177   1.326  17.090 -0.0649 -0.6442 -0.3543
11464TIP3    H155807   3.141   1.284  17.012 -2.1096 -1.6303  1.0411
11464TIP3    H255808   3.190   1.255  17.152 -1.9445  0.4917  1.4651
11465TIP3   OH255809   5.541   6.761   0.928 -0.2926 -0.4557 -0.3401
11465TIP3    H155810   5.562   6.842   0.976 -1.3919 -0.3674  0.0222
11465TIP3    H255811   5.597   6.695   0.969  0.4582  0.0656 -0.4892
11466TIP3   OH255812   4.895   4.021  13.240  0.3127 -0.0559  0.0368
11466TIP3    H155813   4.923   4.102  13.200 -0.3530  0.4036  0.4754
11466TIP3    H255814   4.910   3.954  13.174 -1.6823  0.8148 -1.4036
11467TIP3   OH255815   5.692   2.192  13.974 -0.2869  0.0775 -0.0949
11467TIP3    H155816   5.665   2.120  13.917  0.2560  0.1326 -0.4303
11467TIP3    H255817   5.657   2.169  14.060 -0.1521 -0.5747 -0.2048
11468TIP3   OH255818   0.053   2.881  15.149 -0.2218  0.1473  0.3846
11468TIP3    H155819  -0.042   2.882  15.151 -0.3317  4.1462  0.3259
11468TIP3    H255820   0.079   2.869  15.241 -0.8637  0.7662  0.6565
11469TIP3   OH255821   4.015   4.225   3.709 -0.5602 -0.0314 -0.6839
11469TIP3    H155822   4.008   4.224   3.804 -1.4907 -0.4238 -0.7392
11469TIP3    H255823   3.984   4.311   3.683 -0.9363 -0.1583 -0.6638
11470TIP3   OH255824   5.492   0.331   2.231 -0.9328  0.3490  0.2195
11470TIP3    H155825   5.535   0.246   2.237 -1.3325  0.2376  1.8631
11470TIP3    H255826   5.563   0.395   2.226 -0.6345 -0.0356 -0.6912
11471TIP3   OH255827   6.516   5.028   6.063  0.3240  0.1147  0.7530
11471TIP3    H155828   6.554   5.093   6.124 -0.0020  1.5920 -0.5437
11471TIP3    H255829   6.424   5.052   6.058  0.6655  1.2036 -1.6427
11472TIP3   OH255830   5.103   3.964   2.794 -0.4946  0.2740  1.0470
11472TIP3    H155831   5.127   4.056   2.795  0.1345  0.1338  0.0900
11472TIP3    H255832   5.085   3.943   2.886 -1.3940  1.5209  1.1876
11473TIP3   OH255833   1.496   2.892  14.175  0.2345 -0.4328  0.3846
11473TIP3    H155834   1.459   2.815  14.133  1.3146 -1.0860  0.5905
11473TIP3    H255835   1.591   2.882  14.164  0.3876  0.9119  0.3396
11474TIP3   OH255836   0.626   0.447   6.066 -0.6998  0.2046  0.2369
11474TIP3    H155837   0.657   0.509   5.999  1.4674  0.7596  1.6449
11474TIP3    H255838   0.576   0.382   6.017  2.2714 -0.4339 -2.2569
11475TIP3   OH255839   1.452   3.644  14.178 -0.1993 -0.3335 -0.2193
11475TIP3    H155840   1.467   3.735  14.204  0.7031 -0.6208  0.3093
11475TIP3    H255841   1.359   3.641  14.156 -0.1084  0.8671 -0.8777
11476TIP3   OH255842   2.276   3.128  16.039  0.1886 -1.3876  0.0587
11476TIP3    H155843   2.281   3.199  16.102 -2.1000 -0.3682 -0.7787
11476TIP3    H255844   2.257   3.050  16.091 -0.3480 -0.8121  0.7374
11477TIP3   OH255845   4.128   5.918  13.021 -0.3281  0.0176  0.4205
11477TIP3    H155846   4.184   5.971  13.078 -0.9150 -0.0577  1.0764
11477TIP3    H255847   4.093   5.980  12.957 -0.7324  0.3653  0.9689
11478TIP3   OH255848   2.131   6.350   4.651 -0.2573  0.0952  0.1086
11478TIP3    H155849   2.208   6.370   4.704 -1.4354 -0.3533  2.0575
11478TIP3    H255850   2.143   6.402   4.572  1.1051  1.5272  1.1984
11479TIP3   OH255851   5.974   6.044  16.577 -0.2958  0.0957  0.3857
11479TIP3    H155852   6.008   6.032  16.665 -0.5993  0.5315  0.5658
11479TIP3    H255853   5.932   5.961  16.556  0.2223 -0.1847  0.4495
11480TIP3   OH255854   2.890   6.441  11.759  0.0579  0.1542 -0.2075
11480TIP3    H155855   2.900   6.531  11.789  0.3929  0.1091 -0.1774
11480TIP3    H255856   2.834   6.400  11.824  0.2759  0.2216  0.0276
11481TIP3   OH255857   2.132   3.218   2.043  0.4010 -0.1690 -0.3795
11481TIP3    H155858   2.206   3.263   2.086 -0.5563  2.0368 -0.8914
11481TIP3    H255859   2.096   3.283   1.983 -1.2757 -1.5765 -0.9877
11482TIP3   OH255860   1.653   6.743   2.214  0.3794  0.0909  0.0684
11482TIP3    H155861   1.734   6.755   2.164  0.4637  1.4501  0.4798
11482TIP3    H255862   1.668   6.792   2.295 -1.4628  1.8338 -0.5543
11483TIP3   OH255863   5.554   5.664  13.264  0.0519 -0.2867  0.3530
11483TIP3    H155864   5.564   5.660  13.359 -1.5179 -2.2136  0.5098
11483TIP3    H255865   5.468   5.703  13.249  1.2123  2.1808 -0.4211
11484TIP3   OH255866   1.270   4.479   3.209 -0.3892 -0.1225 -0.1288
11484TIP3    H155867   1.237   4.565   3.186  0.5994  0.3988  0.3317
11484TIP3    H255868   1.342   4.464   3.147  1.1283  0.5258  1.3940
11485TIP3   OH255869   6.032   3.906  13.704  0.0941 -0.2510  0.3704
11485TIP3    H155870   6.103   3.936  13.760  0.8738 -0.7949 -0.3009
11485TIP3    H255871   6.055   3.938  13.617 -1.4880  1.2482  0.4642
11486TIP3   OH255872   4.204   5.629  16.881 -0.3030  0.4501 -0.9763
11486TIP3    H155873   4.281   5.677  16.851 -0.0519  0.1285 -0.8642
11486TIP3    H255874   4.232   5.537  16.880  0.2580  0.5135  1.7223
11487TIP3   OH255875   3.093   5.802   3.358 -0.3638  0.6361 -0.1626
11487TIP3    H155876   3.114   5.787   3.450 -0.1983  0.7622 -0.1805
11487TIP3    H255877   3.144   5.738   3.310 -0.3569  0.6511 -0.1751
11488TIP3   OH255878   5.681   0.950   5.851  0.1077  0.4318 -0.7697
11488TIP3    H155879   5.630   0.969   5.930 -0.3407 -0.4867 -0.8345
11488TIP3    H255880   5.767   0.923   5.884 -0.0496  0.1371 -0.6005
11489TIP3   OH255881   0.042   1.008   2.862  0.2602  0.0082 -0.7296
11489TIP3    H155882   0.019   0.922   2.827 -0.6018  0.1184 -0.4585
11489TIP3    H255883  -0.032   1.064   2.838  0.2677  0.3936  0.1187
11490TIP3   OH255884   1.978   3.744   6.092 -0.3120  0.2828  0.0328
11490TIP3    H155885   1.913   3.676   6.111  0.2066  0.2408  1.8295
11490TIP3    H255886   1.933   3.826   6.110 -0.3239  0.3285 -0.2002
11491TIP3   OH255887   5.675   1.126   5.389  0.1464 -0.0710 -0.1199
11491TIP3    H155888   5.677   1.034   5.359 -0.1685  0.2430 -1.1512
11491TIP3    H255889   5.612   1.127   5.461  0.9828 -0.8720  0.6486
11492TIP3   OH255890   5.517   0.552  11.405  0.0078 -0.7361  0.4275
11492TIP3    H155891   5.495   0.621  11.468 -0.5142 -3.0732  2.9910
11492TIP3    H255892   5.562   0.598  11.334 -1.1212  2.3368  1.5217
11493TIP3   OH255893   1.335   0.050  10.309 -0.6547  0.1094 -0.0974
11493TIP3    H155894   1.405  -0.014  10.320  0.3311  1.4989  2.5810
11493TIP3    H255895   1.264   0.019  10.366  0.3944  1.9867  2.4301
11494TIP3   OH255896   1.305   6.371  11.520  0.3999 -0.2572 -0.1380
11494TIP3    H155897   1.220   6.371  11.564  0.3735 -0.8777 -0.1752
11494TIP3    H255898   1.298   6.301  11.455  1.0131 -0.4586  0.0079
11495TIP3   OH255899   0.949   0.969  12.831 -0.4517 -0.3074  0.3152
11495TIP3    H155900   0.991   1.044  12.873 -1.7989  0.7737 -0.1917
11495TIP3    H255901   0.913   0.918  12.903 -3.3389  1.8845  0.6257
11496TIP3   OH255902   1.700   0.177  16.802  0.0360 -0.2861  0.2224
11496TIP3    H155903   1.710   0.149  16.893  1.3969  0.3081  0.2737
11496TIP3    H255904   1.683   0.095  16.755 -0.4182 -0.6338  0.9661
11497TIP3   OH255905   2.702   5.521  15.304 -0.0628 -0.5223 -0.6078
11497TIP3    H155906   2.643   5.596  15.316 -0.5051 -1.1455  1.3407
11497TIP3    H255907   2.746   5.511  15.388  2.8976 -0.0872 -1.9702
11498TIP3   OH255908   5.989   6.316   1.700 -0.0840 -0.1096 -0.5911
11498TIP3    H155909   6.052   6.380   1.665 -0.5407  0.8479  0.2863
11498TIP3    H255910   5.922   6.309   1.632 -0.4457  0.9759 -0.3631
11499TIP3   OH255911   2.815   4.370   4.007 -0.0453 -0.2018 -0.3496
11499TIP3    H155912   2.803   4.383   3.913  0.5260  2.5750 -0.1251
11499TIP3    H255913   2.896   4.319   4.014 -1.0578 -2.0585 -1.3363
11500TIP3   OH255914   1.709   2.703   0.668 -0.0455 -0.0020 -0.9170
11500TIP3    H155915   1.780   2.752   0.626  0.9772  0.9475  1.7485
11500TIP3    H255916   1.698   2.744   0.753  1.4616 -4.7025  1.9523
11501TIP3   OH255917   0.720   6.708  16.575 -0.1178 -0.5271  0.2640
11501TIP3    H155918   0.777   6.746  16.642 -0.2384  1.1188 -0.5232
11501TIP3    H255919   0.631   6.732  16.602 -0.1708  0.0862 -0.4374
11502TIP3   OH255920   4.403   2.810  13.966 -0.4978  0.0712 -0.2559
11502TIP3    H155921   4.454   2.761  14.032 -0.7236  0.9343  0.5868
11502TIP3    H255922   4.313   2.782  13.980 -0.3534 -1.0142 -1.3544
11503TIP3   OH255923   4.514   4.156  12.422  0.1389 -0.3500  0.0633
11503TIP3    H155924   4.508   4.068  12.384  1.8025 -0.9761  1.1704
11503TIP3    H255925   4.474   4.147  12.508  1.2708 -0.2933  0.5985
11504TIP3   OH255926   0.182   5.900   5.625  0.0735  0.0104  0.0892
11504TIP3    H155927   0.124   5.941   5.689  2.0920 -0.2792  2.2255
11504TIP3    H255928   0.256   5.960   5.618 -0.0816  0.0146 -2.0100
11505TIP3   OH255929   5.368   0.060   6.184 -0.7383 -0.0821 -0.3514
11505TIP3    H155930   5.277   0.031   6.183 -0.2569 -1.8980  1.3629
11505TIP3    H255931   5.400   0.033   6.270  1.3695  0.7066 -0.8431
11506TIP3   OH255932   1.384   4.733  14.752 -0.0012  0.0688  0.0600
11506TIP3    H155933   1.421   4.712  14.666  0.3812 -0.2430  0.3001
11506TIP3    H255934   1.293   4.703  14.747 -0.8545  2.6007 -1.2140
11507TIP3   OH255935   5.660   6.382   5.085 -0.0766  0.0773  0.0498
11507TIP3    H155936   5.628   6.312   5.142 -0.0033  0.7980  1.0209
11507TIP3    H255937   5.649   6.349   4.996 -0.8732 -0.8034  0.4621
11508TIP3   OH255938   2.147   0.139  14.280 -0.0178 -0.2995  0.4132
11508TIP3    H155939   2.127   0.227  14.312  2.7743  0.9605 -1.0131
11508TIP3    H255940   2.128   0.082  14.355 -2.1053  1.4043  1.3109
11509TIP3   OH255941   2.059   6.489  15.154 -0.1828  0.1018 -0.1781
11509TIP3    H155942   2.102   6.459  15.074 -2.7193 -0.2481 -1.4907
11509TIP3    H255943   2.008   6.413  15.183  2.2654 -0.5293  3.0760
11510TIP3   OH255944   2.496   6.681  16.763  0.1348 -0.5108 -0.7793
11510TIP3    H155945   2.580   6.690  16.717 -1.1436 -0.0351 -3.1671
11510TIP3    H255946   2.430   6.703  16.697 -1.8887 -0.7816  1.0515
11511TIP3   OH255947   1.052   6.406  13.998  1.1586  0.1854 -0.4375
11511TIP3    H155948   1.065   6.402  13.903  0.4140  0.1612 -0.5422
11511TIP3    H255949   1.011   6.323  14.021 -0.0393  0.7836 -0.3264
11512TIP3   OH255950   5.338   0.864  15.168  0.2568 -0.0121 -0.6111
11512TIP3    H155951   5.301   0.806  15.102  1.8363 -0.3091 -1.2599
11512TIP3    H255952   5.403   0.811  15.213 -0.0206  0.5296  0.4560
11513TIP3   OH255953   5.617   5.306  16.148  0.2503  0.5997 -0.3013
11513TIP3    H155954   5.551   5.255  16.101  0.8508  1.2924 -1.9481
11513TIP3    H255955   5.680   5.241  16.179 -0.8992 -0.0135  0.8542
11514TIP3   OH255956   1.661   3.439  16.977 -0.0663  0.6332  0.2392
11514TIP3    H155957   1.746   3.429  17.021 -0.2150 -1.7012  0.1397
11514TIP3    H255958   1.666   3.524  16.934  1.4157  1.4695  1.9353
11515TIP3   OH255959   1.259   2.702   0.257  0.5947  0.1145 -0.3033
11515TIP3    H155960   1.353   2.694   0.274  0.8561 -2.3368 -2.2382
11515TIP3    H255961   1.218   2.646   0.323  0.4510  1.1315  0.4986
11516TIP3   OH255962   3.632   5.828  15.489  0.1126  0.5580  1.1614
11516TIP3    H155963   3.717   5.852  15.526  0.5798 -1.7018  1.6957
11516TIP3    H255964   3.653   5.772  15.414 -0.8495 -0.8675  1.8943
11517TIP3   OH255965   4.645   2.759  16.113 -0.2560  0.1767 -0.3636
11517TIP3    H155966   4.703   2.685  16.096  0.1799  0.7278 -1.3297
11517TIP3    H255967   4.607   2.739  16.199  0.7672 -0.5656 -0.0526
11518TIP3   OH255968   3.877   3.383  15.650  0.6055 -0.3554  0.0656
11518TIP3    H155969   3.823   3.462  15.648  0.2823 -0.5744 -1.5896
11518TIP3    H255970   3.965   3.414  15.625  0.2533 -0.6183 -1.6779
11519TIP3   OH255971   5.212   0.004   0.601  0.1877 -0.0454 -0.1627
11519TIP3    H155972   5.186  -0.075   0.648 -1.0068  0.8912  0.8310
11519TIP3    H255973   5.181  -0.010   0.512  0.4547 -0.9090 -0.1302
11520TIP3   OH255974   3.625   3.455  16.304 -0.0466 -0.0412  0.5370
11520TIP3    H155975   3.692   3.517  16.273 -0.8123  0.9901  0.8731
11520TIP3    H255976   3.566   3.509  16.356 -2.7194 -0.2718 -1.9995
11521TIP3   OH255977   1.307   5.113   1.977  0.2782 -0.3824  0.1598
11521TIP3    H155978   1.315   5.121   1.881  1.4124  2.7754  0.3928
11521TIP3    H255979   1.392   5.080   2.005  1.2148  1.9839  0.2652
11522TIP3   OH255980   1.671   3.694  16.888 -0.2278 -0.1476 -0.1391
11522TIP3    H155981   1.649   3.740  16.807  0.8624  1.2952  0.3481
11522TIP3    H255982   1.720   3.758  16.939  0.1593 -1.4362  1.1514
11523TIP3   OH255983   6.182   2.559   3.245 -0.1089  0.4423 -0.1579
11523TIP3    H155984   6.144   2.577   3.159  0.5260 -1.4875 -0.8959
11523TIP3    H255985   6.266   2.605   3.244 -0.9558  2.0430  0.2192
11524TIP3   OH255986   4.947   4.752  14.478  0.5642 -0.3302 -0.5360
11524TIP3    H155987   5.016   4.783  14.536 -0.5019  2.2358 -0.4923
11524TIP3    H255988   4.949   4.813  14.404 -1.5259 -0.2648 -0.5930
11525TIP3   OH255989   3.466   2.247   3.709 -0.1818  0.4353  0.2899
11525TIP3    H155990   3.383   2.294   3.698  0.8799  3.1095  2.5014
11525TIP3    H255991   3.512   2.261   3.626 -0.0769  3.1215  0.7023
11526TIP3   OH255992   4.969   2.953   2.948  0.1942  0.3448 -0.6904
11526TIP3    H155993   4.914   2.878   2.922  0.7350 -0.3630  0.1352
11526TIP3    H255994   5.051   2.940   2.899  1.7461 -1.7450  2.1523
11527TIP3   OH255995   0.101   1.367   3.396 -0.0475 -0.1360 -0.1580
11527TIP3    H155996   0.176   1.406   3.350  1.1548 -0.6944  1.2327
11527TIP3    H255997   0.024   1.406   3.355  1.0370  1.1968 -0.9986
11528TIP3   OH255998   3.592   5.933   4.107 -0.6019 -0.5511  0.0256
11528TIP3    H155999   3.660   5.939   4.040  0.7502  2.7880  1.4574
11528TIP3    H256000   3.519   5.983   4.071 -0.7990 -0.8186  0.0543
11529TIP3   OH256001   5.409   3.646  15.237  0.1747  0.2004 -0.2554
11529TIP3    H156002   5.385   3.738  15.248  1.0016  0.3877  0.0080
11529TIP3    H256003   5.484   3.633  15.294 -0.5044 -0.8866  0.4301
11530TIP3   OH256004   0.276   3.484  15.263  0.6193 -0.7007 -0.2125
11530TIP3    H156005   0.263   3.525  15.348 -2.2763 -0.4572 -0.6811
11530TIP3    H256006   0.305   3.556  15.206  1.5436 -0.6560  0.2801
11531TIP3   OH256007   2.243   1.177   0.795 -0.1656 -0.0117 -0.2496
11531TIP3    H156008   2.216   1.193   0.885 -3.0439 -1.4900 -0.7297
11531TIP3    H256009   2.313   1.112   0.802  2.2515  2.5305  0.9833
11532TIP3   OH256010   0.299   3.240  15.791  0.2537 -0.4685 -0.4281
11532TIP3    H156011   0.304   3.333  15.768  0.4917 -0.4671 -0.3796
11532TIP3    H256012   0.316   3.194  15.708 -0.3886 -0.4731 -0.5595
11533TIP3   OH256013   3.090   0.937   4.904 -0.1539 -0.0077  0.0659
11533TIP3    H156014   3.106   1.015   4.957  0.0838  1.7019 -2.3205
11533TIP3    H256015   2.995   0.936   4.890 -0.4596 -1.5066  1.9258
11534TIP3   OH256016   0.511   3.067  13.183  0.1507 -0.4264  0.1662
11534TIP3    H156017   0.556   3.088  13.264  0.6667 -1.5545  0.1938
11534TIP3    H256018   0.458   3.144  13.164  1.9098  0.8639  0.2470
11535TIP3   OH256019   1.577   0.083  15.185 -0.5259  0.4500 -0.4835
11535TIP3    H156020   1.626   0.147  15.133 -0.0417 -0.0939 -0.7092
11535TIP3    H256021   1.553   0.130  15.264  0.6380  0.6423 -0.2265
11536TIP3   OH256022   3.570   5.973   5.857  0.3729  0.1181 -0.1907
11536TIP3    H156023   3.651   5.951   5.904  0.0886  0.5314  0.5216
11536TIP3    H256024   3.537   5.889   5.826  0.3422 -0.2332  0.7473
11537TIP3   OH256025   1.813   3.129   5.950 -0.1914  0.7117  0.3116
11537TIP3    H156026   1.787   3.219   5.974  0.5063  0.6286  1.4884
11537TIP3    H256027   1.806   3.080   6.032 -0.4574 -0.2888 -0.2985
11538TIP3   OH256028   1.779   5.134  15.331  0.4896 -0.2915 -0.5269
11538TIP3    H156029   1.763   5.040  15.318 -0.6381 -0.3600  1.0980
11538TIP3    H256030   1.702   5.165  15.378  2.6602  0.5225  2.8450
11539TIP3   OH256031   1.971   3.614  12.457  0.3264 -0.4058  0.4299
11539TIP3    H156032   1.958   3.699  12.498 -2.0181 -0.1645 -0.6720
11539TIP3    H256033   2.066   3.600  12.461  0.8151  2.3356  0.4728
11540TIP3   OH256034   3.521   1.255   1.526  0.0871  0.3508 -0.3761
11540TIP3    H156035   3.591   1.318   1.540  0.3559  0.1390 -0.7413
11540TIP3    H256036   3.535   1.222   1.437 -0.0825 -0.1816 -0.2137
11541TIP3   OH256037   2.798   6.626   0.676  0.6819  0.2264  0.6957
11541TIP3    H156038   2.834   6.565   0.612 -0.2391 -0.6139  0.9637
11541TIP3    H256039   2.745   6.572   0.735  0.8712  1.1028  1.7010
11542TIP3   OH256040   0.558   4.819   4.479  0.0614 -0.5113 -0.3234
11542TIP3    H156041   0.542   4.882   4.549 -1.7529 -2.6251  1.3468
11542TIP3    H256042   0.608   4.867   4.413  0.9529  1.8932  1.9460
11543TIP3   OH256043   2.970   3.727  13.640 -0.2272 -0.0603 -0.7706
11543TIP3    H156044   2.924   3.660  13.690  2.6621 -1.1681  0.6937
11543TIP3    H256045   3.058   3.728  13.678  1.2555  1.2669 -3.8900
11544TIP3   OH256046   5.544   1.312  11.846 -0.3348  0.4779 -0.7210
11544TIP3    H156047   5.538   1.231  11.896  1.4886  0.2910 -0.7381
11544TIP3    H256048   5.455   1.328  11.815 -1.0351 -0.6601  0.5933
11545TIP3   OH256049   1.320   1.981   2.425 -0.2603 -0.2237  0.1583
11545TIP3    H156050   1.407   1.968   2.463 -0.6980 -0.2977  1.1708
11545TIP3    H256051   1.260   1.960   2.497 -1.1077  0.0362 -0.4695
11546TIP3   OH256052   3.107   1.339   4.471 -0.3898 -0.2245 -0.2910
11546TIP3    H156053   3.037   1.369   4.415 -0.7393  1.9513  1.1885
11546TIP3    H256054   3.063   1.290   4.541 -0.1913 -0.8174 -0.5725
11547TIP3   OH256055   4.343   5.599  11.421  0.2683 -0.4190  0.7424
11547TIP3    H156056   4.376   5.646  11.497  0.1858  0.0763  0.4735
11547TIP3    H256057   4.249   5.593  11.434  0.4553 -1.9731  1.5877
11548TIP3   OH256058   1.920   6.759  16.506  0.2518  0.1293  0.6094
11548TIP3    H156059   1.856   6.707  16.458  0.1001  0.4165  0.4982
11548TIP3    H256060   1.889   6.758  16.596 -1.2112  2.1674  0.1916
11549TIP3   OH256061   6.321   4.806   6.033  0.5102 -0.1674 -0.5062
11549TIP3    H156062   6.283   4.776   6.115  1.8992  1.7042  0.9279
11549TIP3    H256063   6.413   4.779   6.038  0.9991  1.3503 -0.6560
11550TIP3   OH256064   3.567   5.335  17.266  0.8773  0.1167 -0.8410
11550TIP3    H156065   3.472   5.325  17.278  0.7512 -1.0273 -2.4719
11550TIP3    H256066   3.605   5.294  17.344  0.0504 -0.2748 -0.6272
11551TIP3   OH256067   6.042   2.091  16.932 -0.1681  0.1623  0.0230
11551TIP3    H156068   5.970   2.131  16.884 -1.1648 -0.1269  1.2061
11551TIP3    H256069   6.000   2.046  17.005  0.9870 -2.0875 -0.5888
11552TIP3   OH256070   1.884   1.879  14.822  0.3639 -0.0508  0.2311
11552TIP3    H156071   1.814   1.820  14.796 -0.5154  0.6328  0.9640
11552TIP3    H256072   1.890   1.942  14.750 -1.0731  0.9777  0.9418
11553TIP3   OH256073   4.981   3.839   4.663 -0.4657 -0.4799  0.0668
11553TIP3    H156074   5.073   3.863   4.655 -0.2320 -1.5280 -0.6002
11553TIP3    H256075   4.962   3.791   4.583 -1.8457  0.4780 -0.2193
11554TIP3   OH256076   5.532   2.631   7.279 -0.2382  0.0468 -0.3262
11554TIP3    H156077   5.612   2.634   7.226  0.2980 -1.6802  0.3173
11554TIP3    H256078   5.461   2.634   7.214  0.2766  2.1543 -0.8781
11555TIP3   OH256079   6.126   1.028  13.303 -0.5229  0.3159  0.1764
11555TIP3    H156080   6.171   1.099  13.258  1.0681 -0.9112 -0.2681
11555TIP3    H256081   6.194   0.962  13.317 -2.2620 -1.8150 -0.8714
11556TIP3   OH256082   2.188   0.607   5.503 -0.0335 -0.5620  0.1986
11556TIP3    H156083   2.231   0.668   5.563  0.8242 -0.6677 -0.2828
11556TIP3    H256084   2.231   0.523   5.519  0.2226 -0.5904 -0.5512
11557TIP3   OH256085   2.334   6.495  13.950  0.1307 -0.2836  0.1354
11557TIP3    H156086   2.266   6.430  13.936 -0.1723 -0.1211  0.7733
11557TIP3    H256087   2.357   6.526  13.863 -0.4565 -0.5011 -0.0996
11558TIP3   OH256088   3.185   5.159   2.557  0.0235  0.1493 -0.2753
11558TIP3    H156089   3.137   5.147   2.475 -0.1870  1.6475 -0.4085
11558TIP3    H256090   3.253   5.092   2.556  0.3256  0.4427 -1.9122
11559TIP3   OH256091   6.621   6.004  17.033 -0.4452  0.4500 -0.1032
11559TIP3    H156092   6.526   5.999  17.021 -0.3021 -0.0679 -1.2494
11559TIP3    H256093   6.642   6.096  17.021 -0.9821  0.8803  1.9420
11560TIP3   OH256094   4.930   5.619  17.187  0.2140  0.2474 -0.4231
11560TIP3    H156095   4.991   5.550  17.215 -0.4755 -0.0339  0.4556
11560TIP3    H256096   4.921   5.676  17.263  3.0820  3.1388 -2.0151
11561TIP3   OH256097   2.697   5.552   1.526 -0.5058 -0.6313 -0.1973
11561TIP3    H156098   2.646   5.595   1.458  0.0478 -1.8288 -1.4132
11561TIP3    H256099   2.785   5.587   1.515 -0.6111 -0.0786  0.5911
11562TIP3   OH256100   2.073   3.375  13.791  0.0603 -0.0733 -0.1893
11562TIP3    H156101   2.103   3.313  13.857 -2.6425 -2.0077 -0.6125
11562TIP3    H256102   2.128   3.357  13.714 -0.5978 -1.9094 -0.2640
11563TIP3   OH256103   4.264   3.897   2.407  0.4390  0.4946 -0.6278
11563TIP3    H156104   4.197   3.865   2.468  0.5534 -0.7378 -1.1095
11563TIP3    H256105   4.345   3.859   2.440  0.8151  1.4525 -0.4234
11564TIP3   OH256106   4.504   5.868  12.695  0.0544  0.4415  0.1829
11564TIP3    H156107   4.483   5.838  12.784  1.7630 -0.0588  0.4482
11564TIP3    H256108   4.419   5.870  12.650 -0.5717 -1.5533  1.1452
11565TIP3   OH256109   2.698   1.097   0.215 -0.1913 -0.0083  0.2857
11565TIP3    H156110   2.696   1.130   0.305 -0.0615 -1.3862  0.8192
11565TIP3    H256111   2.607   1.077   0.194 -0.2991  0.8441 -0.1176
11566TIP3   OH256112   2.262   6.281  15.296  0.5006 -0.1726  0.2300
11566TIP3    H156113   2.240   6.305  15.206 -1.4854 -0.2472  0.6638
11566TIP3    H256114   2.224   6.194  15.308 -1.6433  0.9153  1.9301
11567TIP3   OH256115   4.824   1.647   1.032 -0.0965 -0.3191 -0.3106
11567TIP3    H156116   4.848   1.732   1.068 -2.3937  0.8806 -1.3526
11567TIP3    H256117   4.907   1.608   1.004  1.0361  1.5067  0.3233
11568TIP3   OH256118   5.840   5.682   1.136  0.2358  0.2282 -0.0884
11568TIP3    H156119   5.908   5.620   1.164  0.7887  0.8030 -0.1212
11568TIP3    H256120   5.868   5.711   1.050 -0.8893 -0.6989 -0.7825
11569TIP3   OH256121   0.266   0.875  11.309 -0.0192 -0.7150 -0.2899
11569TIP3    H156122   0.257   0.949  11.249 -0.5437 -0.4604  0.0893
11569TIP3    H256123   0.183   0.873  11.356  0.1930 -1.2266  0.0642
11570TIP3   OH256124   2.494   1.262  15.975  0.2690 -0.3416  0.2853
11570TIP3    H156125   2.519   1.200  16.043 -0.7140  1.3496  2.2887
11570TIP3    H256126   2.401   1.245  15.960  0.2346 -0.0210  0.1198
11571TIP3   OH256127   0.693   3.507  14.311 -0.0798 -0.6494 -0.4274
11571TIP3    H156128   0.621   3.444  14.307  1.8155 -2.9513 -0.6735
11571TIP3    H256129   0.717   3.522  14.219 -0.1024 -0.0556 -0.3406
11572TIP3   OH256130   2.429   2.667   1.664 -0.3574 -0.3194  0.0319
11572TIP3    H156131   2.428   2.730   1.736 -0.8358  0.3769 -0.5642
11572TIP3    H256132   2.472   2.589   1.700 -1.0965 -0.1938  1.2320
11573TIP3   OH256133   2.989   2.264   2.931  0.1481  0.2801  0.0330
11573TIP3    H156134   3.050   2.337   2.939  0.1772  0.1682  1.0002
11573TIP3    H256135   3.038   2.188   2.963 -0.3350  0.0981  0.3539
11574TIP3   OH256136   5.598   1.196  15.048  0.1465  0.1392 -0.0325
11574TIP3    H156137   5.590   1.231  15.136  1.2165 -1.9341  0.9656
11574TIP3    H256138   5.507   1.181  15.020 -0.1923 -0.0854  1.1251
11575TIP3   OH256139   5.581   6.344  12.940 -0.0635 -0.0078 -0.2677
11575TIP3    H156140   5.674   6.321  12.940 -0.1577 -0.4055  0.2700
11575TIP3    H256141   5.538   6.268  12.902 -0.2256 -0.0485  0.0023
11576TIP3   OH256142   5.820   0.274  15.670 -0.1363 -0.3020 -0.0883
11576TIP3    H156143   5.907   0.265  15.711  0.2246  0.9317 -0.5426
11576TIP3    H256144   5.765   0.311  15.740 -0.5582 -1.9107  0.4815
11577TIP3   OH256145   5.846   6.685   2.120  0.0972 -0.3728 -0.6204
11577TIP3    H156146   5.792   6.609   2.098 -1.3170  0.1038  0.9830
11577TIP3    H256147   5.869   6.672   2.212 -1.5394  1.8566  0.1881
11578TIP3   OH256148   5.324   0.627  15.751  0.1873  0.2862 -0.6729
11578TIP3    H156149   5.278   0.643  15.833  0.1727  1.4435 -0.8891
11578TIP3    H256150   5.417   0.636  15.773  0.2509 -0.5120 -0.5651
11579TIP3   OH256151   1.298   5.886  11.688 -0.1371 -0.0575 -0.3446
11579TIP3    H156152   1.353   5.929  11.623  1.7835 -2.0747 -0.1275
11579TIP3    H256153   1.267   5.806  11.646  0.0991 -0.7657  0.7810
11580TIP3   OH256154   6.249   0.435   5.525 -0.7093 -0.3121 -0.9329
11580TIP3    H156155   6.253   0.490   5.447 -1.6753  0.6475 -0.3375
11580TIP3    H256156   6.273   0.347   5.495 -1.6067 -0.0689 -2.4039
11581TIP3   OH256157   2.399   2.776  15.467 -0.4387  0.0721  0.4019
11581TIP3    H156158   2.479   2.787  15.417  0.2449 -0.6677  1.2834
11581TIP3    H256159   2.422   2.711  15.534 -1.4124  0.7519  1.4295
11582TIP3   OH256160   4.139   0.254  16.657 -0.2693  0.2476  0.4475
11582TIP3    H156161   4.129   0.320  16.725 -0.6213 -0.0504  0.6883
11582TIP3    H256162   4.158   0.173  16.705  1.3437  0.3896  0.1099
11583TIP3   OH256163   0.186   6.304  16.609 -0.3421  0.2717 -0.1755
11583TIP3    H156164   0.102   6.343  16.636 -1.4902 -1.8422 -0.4920
11583TIP3    H256165   0.250   6.339  16.671 -1.2526  2.6250 -0.4613
11584TIP3   OH256166   3.057   0.028  16.385  0.1569 -0.2354  0.4076
11584TIP3    H156167   2.997  -0.031  16.339 -0.6448  1.8710 -1.4610
11584TIP3    H256168   3.137   0.027  16.333  0.0875  0.3986  0.2804
11585TIP3   OH256169   4.100   2.262  15.737 -0.4077 -0.0738  0.6333
11585TIP3    H156170   4.160   2.264  15.812  0.6637  0.5761 -0.2113
11585TIP3    H256171   4.154   2.230  15.664 -0.7152  1.7160 -0.4355
11586TIP3   OH256172   1.703   2.783   2.189 -0.6646 -0.3127  0.1596
11586TIP3    H156173   1.650   2.703   2.183 -0.2640 -0.5753  0.0973
11586TIP3    H256174   1.666   2.841   2.123 -1.3501 -0.2145  0.6205
11587TIP3   OH256175   3.283   6.386   3.539 -0.1748  0.0935 -0.0509
11587TIP3    H156176   3.254   6.359   3.452 -1.5379 -0.4648  0.5666
11587TIP3    H256177   3.207   6.430   3.577  1.0323  2.1764  0.1136
11588TIP3   OH256178   1.556   1.147   2.984 -0.3786 -0.5946 -0.1058
11588TIP3    H156179   1.538   1.089   2.910  0.5576 -0.8050 -0.1835
11588TIP3    H256180   1.541   1.092   3.061 -0.4343 -0.6554 -0.1598
11589TIP3   OH256181   0.063   5.053  11.293  0.0626 -0.0630  0.1586
11589TIP3    H156182   0.046   5.039  11.386 -1.4022  1.5731  0.1853
11589TIP3    H256183   0.104   5.140  11.289 -2.3684  1.1247 -0.8745
11590TIP3   OH256184   5.574   4.401   1.981 -0.2560 -0.4941 -0.5094
11590TIP3    H156185   5.528   4.419   2.063 -1.3940  0.5566 -1.3389
11590TIP3    H256186   5.635   4.473   1.972  0.1703 -0.8353 -0.3916
11591TIP3   OH256187   3.347   0.865   5.111 -0.2006  0.0510 -0.2494
11591TIP3    H156188   3.423   0.923   5.112  1.7473 -2.2907  2.3028
11591TIP3    H256189   3.272   0.924   5.095  1.8930  2.6969 -1.1367
11592TIP3   OH256190   0.831   3.765  15.848 -0.4358 -0.2309 -0.4920
11592TIP3    H156191   0.756   3.719  15.809 -1.3178  0.4995  0.3067
11592TIP3    H256192   0.860   3.707  15.919  0.0478 -0.7215 -1.0800
11593TIP3   OH256193   5.907   6.404   2.823 -0.4225 -0.3415 -0.4193
11593TIP3    H156194   5.969   6.472   2.849 -0.5466 -0.8302  1.2877
11593TIP3    H256195   5.944   6.322   2.857 -1.7543 -0.7016  0.2809
11594TIP3   OH256196   1.234   5.801  17.318 -0.0238 -0.0347 -0.0789
11594TIP3    H156197   1.175   5.874  17.301 -0.4226 -0.2403  0.3953
11594TIP3    H256198   1.265   5.774  17.231 -1.1682 -0.3679 -0.4055
11595TIP3   OH256199   6.299   6.528  14.333  0.4333  0.4741 -0.5976
11595TIP3    H156200   6.323   6.437  14.314 -1.2200  0.1431 -1.2621
11595TIP3    H256201   6.206   6.533  14.312 -0.0431  1.7460  1.5821
11596TIP3   OH256202   3.161   4.208  14.054 -0.1189  0.5844  0.1103
11596TIP3    H156203   3.162   4.167  14.140  0.9384 -0.6386 -0.4339
11596TIP3    H256204   3.136   4.137  13.994 -0.8934  1.4255 -0.5925
11597TIP3   OH256205   6.381   3.893   4.834  0.2004 -0.2627 -0.1990
11597TIP3    H156206   6.347   3.912   4.747 -0.3536  0.2701  0.1261
11597TIP3    H256207   6.406   3.979   4.869  0.2556 -0.4504  0.2316
11598TIP3   OH256208   2.291   2.343  16.313  0.2482 -0.8454 -0.6665
11598TIP3    H156209   2.349   2.381  16.379 -0.1015 -1.4792  0.0086
11598TIP3    H256210   2.203   2.355  16.348 -0.0075 -0.4047 -1.4221
11599TIP3   OH256211   2.207   0.653  11.364  0.1024 -0.7104  0.5384
11599TIP3    H156212   2.201   0.702  11.282  0.7824  0.3982  1.1169
11599TIP3    H256213   2.300   0.654  11.386 -0.2727  1.0650  2.4614
11600TIP3   OH256214   3.870   2.290   5.749 -0.2286 -0.6167  0.3870
11600TIP3    H156215   3.872   2.217   5.688  0.0725 -0.4378  0.1838
11600TIP3    H256216   3.956   2.332   5.741 -0.8417  0.5254 -0.4325
11601TIP3   OH256217   0.303   2.950  12.662 -0.2591  0.0946  0.3597
11601TIP3    H156218   0.352   3.007  12.722 -2.0094  0.5610  1.4461
11601TIP3    H256219   0.272   3.009  12.593 -0.8314  0.2045  0.6957
11602TIP3   OH256220   4.164   4.232  13.892 -0.1122 -0.4012  0.0434
11602TIP3    H156221   4.091   4.291  13.913  0.2061 -0.0310  0.1189
11602TIP3    H256222   4.235   4.261  13.950 -0.1906 -1.3541  0.6465
11603TIP3   OH256223   0.452   2.619   3.716 -0.1056 -0.2552 -0.6485
11603TIP3    H156224   0.518   2.689   3.712 -0.7980  0.5125  0.6556
11603TIP3    H256225   0.450   2.594   3.808 -0.1621 -1.7332 -1.0374
11604TIP3   OH256226   4.192   2.390  14.408 -0.0984  0.0099  0.3575
11604TIP3    H156227   4.183   2.361  14.318 -0.8558 -3.9730  1.5429
11604TIP3    H256228   4.285   2.378  14.429  0.0790  0.9396  0.1718
11605TIP3   OH256229   0.786   5.601  17.310 -0.4574  0.4665  0.2711
11605TIP3    H156230   0.868   5.627  17.267 -0.3383  1.0060  0.8156
11605TIP3    H256231   0.804   5.514  17.346 -0.5553  0.0060 -0.7513
11606TIP3   OH256232   6.231   3.726   1.192  0.6091  0.6741  0.2814
11606TIP3    H156233   6.294   3.659   1.218 -0.2720  0.4487  1.9720
11606TIP3    H256234   6.201   3.764   1.274 -0.4094  1.7605 -0.5520
11607TIP3   OH256235   2.540   6.548  12.058  0.7058  0.6597 -0.4013
11607TIP3    H156236   2.468   6.584  12.008 -0.4593 -0.8888  0.0801
11607TIP3    H256237   2.570   6.621  12.113 -1.8643  0.8616  0.9024
11608TIP3   OH256238   2.758   5.432   0.021  0.2396 -0.2968 -0.2589
11608TIP3    H156239   2.756   5.378  -0.058 -1.4907 -0.3910 -0.1735
11608TIP3    H256240   2.739   5.372   0.093  1.7326 -0.1983  0.2563
11609TIP3   OH256241   1.427   2.643  11.728  0.1658  0.5457  0.3659
11609TIP3    H156242   1.429   2.728  11.684  1.6770 -0.8862 -2.6049
11609TIP3    H256243   1.516   2.609  11.720 -0.5632 -1.6361  0.7563
11610TIP3   OH256244   5.723   5.585   0.044 -0.2955  0.0406 -0.5122
11610TIP3    H156245   5.817   5.571   0.050 -0.1409  0.9203 -0.7972
11610TIP3    H256246   5.685   5.499   0.064  0.5866 -0.5635 -1.3407
11611TIP3   OH256247   3.650   2.758  12.942 -0.3203  0.0134 -0.5514
11611TIP3    H156248   3.622   2.676  12.901 -0.5428 -0.8788  1.2749
11611TIP3    H256249   3.716   2.793  12.882  1.1936 -2.4852 -0.5054
11612TIP3   OH256250   4.471   6.078   1.007  0.2071  0.0156 -0.7419
11612TIP3    H156251   4.448   6.002   0.955 -2.1681 -2.2127  3.0873
11612TIP3    H256252   4.538   6.047   1.068  0.4595  1.5078 -0.1915
11613TIP3   OH256253   1.366   4.622  15.149 -0.0217  0.3033  0.4944
11613TIP3    H156254   1.337   4.552  15.208 -0.3013  1.2691  1.5455
11613TIP3    H256255   1.285   4.657  15.112  0.1625 -0.4569 -0.7083
11614TIP3   OH256256   4.147   1.153   3.222 -0.1187  0.1777 -0.0534
11614TIP3    H156257   4.110   1.134   3.308  0.3800 -0.1571  0.0912
11614TIP3    H256258   4.178   1.244   3.229 -0.3587  0.2555  0.0169
11615TIP3   OH256259   1.799   1.070  10.468  0.2614  0.1281  0.5182
11615TIP3    H156260   1.748   0.997  10.434  0.2587  0.1686  0.4359
11615TIP3    H256261   1.863   1.088  10.400  1.3702 -0.8989  1.2347
11616TIP3   OH256262   6.107   4.520  12.926  0.0345  0.8976 -0.0967
11616TIP3    H156263   6.048   4.462  12.975  0.8028 -0.3143 -0.5712
11616TIP3    H256264   6.049   4.577  12.876 -0.7790  1.9641  1.9415
11617TIP3   OH256265   5.703   0.080  12.397  0.1391  0.0546  0.2716
11617TIP3    H156266   5.611   0.070  12.370  0.8223 -1.4915 -1.6938
11617TIP3    H256267   5.710   0.027  12.476 -0.6767  0.2535  0.4910
11618TIP3   OH256268   3.765   5.602  16.553 -0.2066 -0.7635 -0.0246
11618TIP3    H156269   3.794   5.616  16.644  2.4435  1.0218 -1.0349
11618TIP3    H256270   3.710   5.678  16.534  1.0837  0.0507 -0.5760
11619TIP3   OH256271   4.326   5.290  12.163  0.5926 -0.4265  0.1422
11619TIP3    H156272   4.252   5.230  12.163 -0.8694  1.2671 -1.2503
11619TIP3    H256273   4.340   5.311  12.255 -2.2517  0.9563  0.3877
11620TIP3   OH256274   4.914   4.039   4.223 -0.1019  0.0956  0.1346
11620TIP3    H156275   4.848   4.010   4.285  1.0084 -0.4453  1.1201
11620TIP3    H256276   4.870   4.104   4.168 -1.4244 -0.2577  0.7494
11621TIP3   OH256277   2.785   2.275   4.736 -0.7555 -0.3163 -0.3656
11621TIP3    H156278   2.813   2.224   4.659  0.9153  0.4596 -0.3255
11621TIP3    H256279   2.742   2.352   4.699  1.9164  1.1554 -0.7259
11622TIP3   OH256280   2.591   0.636   1.536 -0.2835 -0.0303  0.2465
11622TIP3    H156281   2.678   0.667   1.512  0.2774 -1.0606  0.9295
11622TIP3    H256282   2.531   0.696   1.489  0.7554  1.5585  0.8591
11623TIP3   OH256283   2.813   2.535  12.796 -0.2868 -0.3902 -0.2053
11623TIP3    H156284   2.796   2.556  12.704 -0.1256  0.0781 -0.1300
11623TIP3    H256285   2.853   2.614  12.832  1.9446 -1.4004 -0.3344
11624TIP3   OH256286   3.874   4.613   0.075 -0.0766  0.2094  0.6278
11624TIP3    H156287   3.886   4.596   0.169 -1.2217 -1.2370  0.5433
11624TIP3    H256288   3.955   4.584   0.034  0.1079  0.0771  1.0826
11625TIP3   OH256289   3.704   2.135  12.120 -0.8835  0.4715  0.3068
11625TIP3    H156290   3.630   2.190  12.095 -0.9696  0.2507  0.0671
11625TIP3    H256291   3.715   2.074  12.047 -0.0625  0.9066  0.0569
11626TIP3   OH256292   2.239   1.857  14.158  0.0494 -0.0821  0.4044
11626TIP3    H156293   2.246   1.876  14.252 -1.6144  2.7399  0.0715
11626TIP3    H256294   2.324   1.882  14.122 -0.1693  1.3606  0.8377
11627TIP3   OH256295   3.112   0.606   1.524 -1.1335  0.2359  0.5089
11627TIP3    H156296   3.197   0.632   1.561 -0.4145  1.6089 -1.8382
11627TIP3    H256297   3.108   0.512   1.537  0.3374  0.2745  1.4965
11628TIP3   OH256298   4.870   2.261   5.791  0.2874  0.2529 -0.3684
11628TIP3    H156299   4.936   2.273   5.858  0.2831 -1.2442 -0.0708
11628TIP3    H256300   4.894   2.180   5.746 -1.2232 -0.2294 -0.3803
11629TIP3   OH256301   4.967   1.382  14.264 -0.0547 -0.3442  0.0804
11629TIP3    H156302   4.922   1.428  14.193 -1.8005 -2.7486 -0.5054
11629TIP3    H256303   5.047   1.348  14.223 -0.9553 -1.5462 -0.7656
11630TIP3   OH256304   1.402   0.357   0.719  0.8575  0.8169 -0.3268
11630TIP3    H156305   1.359   0.341   0.635  1.0682  0.6669 -0.4083
11630TIP3    H256306   1.466   0.286   0.727  1.5859  1.4383 -0.5416
11631TIP3   OH256307   2.605   2.198  11.764  0.0194 -0.5064 -0.2873
11631TIP3    H156308   2.589   2.208  11.858  1.3052  0.5777 -0.1519
11631TIP3    H256309   2.547   2.261  11.722  0.5787  0.1410 -0.1030
11632TIP3   OH256310   1.257   5.949  15.081  0.2449  0.2973  0.2847
11632TIP3    H156311   1.163   5.931  15.076  0.0278  0.4778  2.4604
11632TIP3    H256312   1.291   5.923  14.996 -1.3968 -2.1073  0.2506
11633TIP3   OH256313   5.454   5.609   1.285  0.0678 -0.3383 -0.0254
11633TIP3    H156314   5.498   5.610   1.200  3.7900  0.5200  1.6768
11633TIP3    H256315   5.441   5.516   1.304 -0.1168 -0.5612 -1.1965
11634TIP3   OH256316   2.227   1.557   2.564  0.9415 -0.4611 -0.6364
11634TIP3    H156317   2.289   1.492   2.531  1.1374 -0.7984  0.3599
11634TIP3    H256318   2.229   1.546   2.659 -0.8245 -0.6412 -0.5925
11635TIP3   OH256319   6.177   4.232   4.873 -0.3120 -0.0861 -0.2472
11635TIP3    H156320   6.228   4.284   4.936  0.6933  0.7740 -1.7191
11635TIP3    H256321   6.107   4.194   4.926  0.1216  1.1067  1.2857
11636TIP3   OH256322   1.518   6.081  12.934 -0.5895 -0.0804 -0.0317
11636TIP3    H156323   1.445   6.101  12.993  0.4068 -0.3452  1.3265
11636TIP3    H256324   1.591   6.060  12.991  0.2432 -1.0382 -1.3725
11637TIP3   OH256325   6.574   6.530  13.399 -0.2452 -0.1806 -0.7290
11637TIP3    H156326   6.663   6.566  13.407 -1.0332  1.4249  1.7805
11637TIP3    H256327   6.531   6.587  13.335 -0.1026  0.4343 -0.2879
11638TIP3   OH256328   0.835   1.904  14.414  0.0199 -0.0090 -0.1734
11638TIP3    H156329   0.770   1.911  14.484  0.5181 -0.4715  0.3438
11638TIP3    H256330   0.884   1.986  14.419  1.1956 -0.7443  1.1909
11639TIP3   OH256331   5.384   5.896  14.008 -0.2627 -0.1441 -0.2346
11639TIP3    H156332   5.340   5.981  14.003 -1.3863 -0.6785  0.1703
11639TIP3    H256333   5.316   5.836  14.040  0.5807 -1.1426 -0.2723
11640TIP3   OH256334   0.500   0.111   5.079 -0.7812 -0.3237 -0.2357
11640TIP3    H156335   0.572   0.162   5.043 -0.3466  0.0072  1.0604
11640TIP3    H256336   0.450   0.082   5.002  0.8122 -0.7108 -1.1686
11641TIP3   OH256337   0.548   0.589   4.079 -0.1880  0.1345  0.0597
11641TIP3    H156338   0.494   0.604   4.001 -0.7018  0.4837  0.4777
11641TIP3    H256339   0.531   0.497   4.102 -0.2114  0.0963 -0.1049
11642TIP3   OH256340   6.121   1.929  13.489  0.0519 -0.1156  0.6202
11642TIP3    H156341   6.146   1.920  13.581 -2.6719 -0.8591  1.3930
11642TIP3    H256342   6.096   1.841  13.462 -1.3396  0.4789 -0.1214
11643TIP3   OH256343   4.480   1.896  16.792 -0.8849 -0.2694  0.1377
11643TIP3    H156344   4.460   1.961  16.724  2.3248  1.7925  0.9324
11643TIP3    H256345   4.551   1.844  16.756 -1.8609 -1.8552  0.4254
11644TIP3   OH256346   1.268   2.343  15.770 -0.2109  0.4380 -0.0978
11644TIP3    H156347   1.344   2.286  15.753 -0.5693 -0.9048  2.2713
11644TIP3    H256348   1.304   2.414  15.824  0.1138  2.2518 -2.5441
11645TIP3   OH256349   0.925   6.070   3.428 -0.4516 -0.4414  0.0413
11645TIP3    H156350   0.839   6.111   3.442 -0.0215 -0.2050  2.1700
11645TIP3    H256351   0.981   6.142   3.397  0.5141  1.0177  4.5128
11646TIP3   OH256352   6.117   3.423  11.874 -0.1535 -0.5722 -0.7114
11646TIP3    H156353   6.179   3.354  11.897  0.7398 -0.2962 -2.1875
11646TIP3    H256354   6.102   3.469  11.957 -0.7883 -2.5089  0.3153
11647TIP3   OH256355   1.845   5.236  14.512 -0.0456  0.0219  0.3479
11647TIP3    H156356   1.940   5.242  14.524  0.0400  0.4492 -0.4415
11647TIP3    H256357   1.816   5.328  14.507 -0.1450 -0.0874 -1.9168
11648TIP3   OH256358   0.156   4.637  12.814  0.2994  0.0532 -0.3831
11648TIP3    H156359   0.186   4.634  12.723  0.6925  0.5596 -0.2734
11648TIP3    H256360   0.080   4.578  12.816  0.5350 -0.2813 -0.9444
11649TIP3   OH256361   5.717   1.130  16.568 -0.6590 -0.0729  0.4771
11649TIP3    H156362   5.682   1.041  16.563 -1.9879  0.4433 -0.1740
11649TIP3    H256363   5.756   1.136  16.655 -2.8688 -0.5259  1.5871
11650TIP3   OH256364   0.882   1.786   2.152  0.1913 -0.1869 -0.4464
11650TIP3    H156365   0.803   1.745   2.187 -0.2150 -0.4586 -1.6350
11650TIP3    H256366   0.866   1.880   2.161  0.8831 -0.2230  1.7536
11651TIP3   OH256367   4.246   3.156  14.093 -0.1214 -0.5001 -0.0147
11651TIP3    H156368   4.281   3.241  14.119 -0.4266 -0.9473  2.0479
11651TIP3    H256369   4.312   3.120  14.033  0.0103  1.1485 -0.8952
11652TIP3   OH256370   5.717   3.993  11.263 -0.1193  0.2586  0.2211
11652TIP3    H156371   5.744   4.083  11.277  1.0439  0.0942 -0.8042
11652TIP3    H256372   5.632   3.999  11.221 -0.1348  0.8799  0.3423
11653TIP3   OH256373   4.262   3.219  11.943  0.2162  0.3837  0.5166
11653TIP3    H156374   4.226   3.305  11.964  0.2084  0.3321  0.7147
11653TIP3    H256375   4.322   3.235  11.871 -1.5394  0.2032 -1.0562
11654TIP3   OH256376   1.964   0.067   4.637  0.1363  0.4639  0.3804
11654TIP3    H156377   1.895   0.014   4.598 -0.0218  1.0893 -0.1990
11654TIP3    H256378   1.997   0.013   4.709 -0.0317 -0.4133 -0.1821
11655TIP3   OH256379   2.773   5.435   5.503  0.1504 -0.0544  0.9131
11655TIP3    H156380   2.853   5.406   5.546 -1.2280 -3.2235  1.5719
11655TIP3    H256381   2.769   5.529   5.521  1.3055 -0.5876  5.0265
11656TIP3   OH256382   2.635   1.136  17.320  0.2718  0.0082  0.3545
11656TIP3    H156383   2.702   1.200  17.346  1.9909 -1.6532  0.2399
11656TIP3    H256384   2.631   1.075  17.394 -1.7269  0.4915  0.6956
11657TIP3   OH256385   3.403   4.055   1.370  0.4201  0.5063  0.1347
11657TIP3    H156386   3.439   4.035   1.456 -1.0950  0.3478  0.7608
11657TIP3    H256387   3.411   4.150   1.361 -2.0688  0.9670  1.7633
11658TIP3   OH256388   5.438   2.700  14.863  0.4307 -0.7583 -0.0709
11658TIP3    H156389   5.410   2.609  14.871 -1.9422 -0.0295  0.7767
11658TIP3    H256390   5.491   2.702  14.783 -1.7010 -2.3943 -1.6275
11659TIP3   OH256391   2.624   0.257   3.801  0.7315 -0.1944 -0.6616
11659TIP3    H156392   2.589   0.272   3.713  1.3679  0.1456 -0.8634
11659TIP3    H256393   2.569   0.311   3.858  2.2984  2.2199 -1.2465
11660TIP3   OH256394   2.893   2.491   4.337 -0.9268 -0.1795 -0.0562
11660TIP3    H156395   2.914   2.574   4.296 -1.9404 -0.1209 -0.4609
11660TIP3    H256396   2.853   2.514   4.421  1.9164 -0.2884  1.4997
11661TIP3   OH256397   1.106   5.928   1.150  0.6940 -0.5161 -0.5185
11661TIP3    H156398   1.056   5.993   1.101  0.2784 -0.2781  0.2139
11661TIP3    H256399   1.196   5.938   1.118  0.5757  0.1984 -0.6370
11662TIP3   OH256400   5.590   3.047   3.333 -0.1031  0.4240 -0.1022
11662TIP3    H156401   5.677   3.074   3.363  0.6682 -2.7262  0.9454
11662TIP3    H256402   5.607   2.996   3.253 -0.5003 -2.6642  1.6267
11663TIP3   OH256403   6.703   6.305   1.344  0.4293 -0.3286  0.0188
11663TIP3    H156404   6.615   6.270   1.355  1.0265 -2.0238 -0.2428
11663TIP3    H256405   6.693   6.399   1.352 -1.4995 -0.4422 -0.6212
11664TIP3   OH256406   5.117   2.936   3.254  0.4455 -0.1643  0.9604
11664TIP3    H156407   5.117   2.990   3.175  0.2369 -0.8464  0.4876
11664TIP3    H256408   5.097   2.847   3.223 -3.5059  0.1107  2.1780
11665TIP3   OH256409   0.726   5.839  11.912 -0.0320  0.5096  0.0763
11665TIP3    H156410   0.809   5.884  11.900  0.1824 -0.5075 -3.3410
11665TIP3    H256411   0.660   5.906  11.894  0.0113  1.0163  1.6275
11666TIP3   OH256412   0.506   4.181  11.278 -0.5161  0.5564  0.2807
11666TIP3    H156413   0.571   4.241  11.314 -0.1199  0.3931 -0.1703
11666TIP3    H256414   0.547   4.143  11.201 -0.0793 -1.6071  1.5024
11667TIP3   OH256415   6.688   1.988  12.864 -0.4770  0.3417  0.2176
11667TIP3    H156416   6.782   1.976  12.876 -0.2933  0.6445 -0.7829
11667TIP3    H256417   6.682   2.059  12.800 -1.4120  1.3247  1.3377
11668TIP3   OH256418   6.518   4.338  15.707  0.7575  0.0043 -0.3368
11668TIP3    H156419   6.557   4.417  15.746  0.0216  0.9564 -1.4453
11668TIP3    H256420   6.489   4.367  15.620  1.0501 -1.6706 -1.0208
11669TIP3   OH256421   0.047   1.667  16.406 -0.0136 -0.3444  0.4100
11669TIP3    H156422   0.000   1.741  16.367 -0.6083 -0.6689  0.5066
11669TIP3    H256423  -0.007   1.591  16.388  1.3570 -1.0338 -1.0716
11670TIP3   OH256424   0.165   6.176   0.488 -0.3913  0.6678 -0.1101
11670TIP3    H156425   0.154   6.081   0.489 -1.7076  0.7684 -1.5065
11670TIP3    H256426   0.251   6.190   0.447 -1.1189  0.0841 -1.9588
11671TIP3   OH256427   4.521   5.373  15.329 -0.3211 -0.0656  0.6129
11671TIP3    H156428   4.556   5.398  15.415  0.6838 -0.1304  0.2450
11671TIP3    H256429   4.514   5.278  15.332 -1.1565  0.0003  0.9309
11672TIP3   OH256430   5.066   2.330  10.456 -0.0001  0.1569 -0.1187
11672TIP3    H156431   5.071   2.241  10.423  0.6346 -0.0350  0.4854
11672TIP3    H256432   5.003   2.373  10.398  0.3784 -0.4243 -0.9790
11673TIP3   OH256433   0.288   1.876  16.202  0.5953  0.6398  0.2650
11673TIP3    H156434   0.355   1.834  16.148  0.9527  1.9995 -0.4007
11673TIP3    H256435   0.337   1.935  16.259 -0.0372  1.7602 -0.3304
11674TIP3   OH256436   3.526   0.337  11.666  0.1197 -0.0944  0.4271
11674TIP3    H156437   3.570   0.390  11.599  0.5860  0.0756  0.8655
11674TIP3    H256438   3.473   0.275  11.616 -0.0260  0.4432 -0.0942
11675TIP3   OH256439   4.576   0.021  15.054 -0.5272 -0.0326  0.4846
11675TIP3    H156440   4.496   0.025  15.001 -0.1342 -1.4296 -0.2771
11675TIP3    H256441   4.629  -0.047  15.012  0.6799  0.2367  1.5062
11676TIP3   OH256442   1.995   4.331   1.977 -0.5116  0.2086 -0.3855
11676TIP3    H156443   2.053   4.255   1.985 -1.3161 -0.2982  1.0891
11676TIP3    H256444   1.907   4.294   1.985 -1.0386  1.0586 -1.8218
11677TIP3   OH256445   3.064   3.467  14.195  0.2919  0.1662  0.0559
11677TIP3    H156446   3.142   3.470  14.140 -0.7640 -1.3787 -1.6681
11677TIP3    H256447   3.052   3.374  14.214  0.0126  0.5766  2.0566
11678TIP3   OH256448   0.166   4.364  14.652 -0.3383 -0.1069  0.2662
11678TIP3    H156449   0.123   4.364  14.567  0.2703  0.2163 -0.0435
11678TIP3    H256450   0.094   4.371  14.715 -0.8229 -0.8152 -0.1922
11679TIP3   OH256451   0.505   3.643  14.874  0.0666 -0.2460  0.9384
11679TIP3    H156452   0.431   3.656  14.933 -1.7119 -2.6606 -0.6070
11679TIP3    H256453   0.552   3.568  14.911  0.4006 -0.1972  0.6142
11680TIP3   OH256454   5.170   4.874  13.203  0.6666  0.7499  0.2069
11680TIP3    H156455   5.247   4.924  13.230  1.5239 -0.4162 -0.0250
11680TIP3    H256456   5.155   4.900  13.112  2.6494 -1.2054 -0.7659
11681TIP3   OH256457   5.267   6.340   4.515 -0.4034 -0.4810  0.4667
11681TIP3    H156458   5.199   6.395   4.476  0.3884  0.1734 -0.0121
11681TIP3    H256459   5.315   6.400   4.573  1.3119 -0.2877 -1.0630
11682TIP3   OH256460   4.910   1.583  12.722  0.0765 -0.3461  0.0607
11682TIP3    H156461   5.002   1.608  12.719  0.0268 -0.0860  0.5720
11682TIP3    H256462   4.861   1.665  12.717 -0.1198 -0.4651 -0.0046
11683TIP3   OH256463   4.210   0.723  17.320 -0.0109 -0.0610  0.0136
11683TIP3    H156464   4.291   0.767  17.346 -0.9780  0.8826  1.5058
11683TIP3    H256465   4.184   0.673  17.397 -1.5416  0.6870  0.0054
11684TIP3   OH256466   1.351   4.526  15.720  0.3637 -0.0391 -0.1297
11684TIP3    H156467   1.353   4.497  15.628  0.5144 -0.9648  0.1607
11684TIP3    H256468   1.332   4.620  15.714 -1.2846 -0.3738 -1.0672
11685TIP3   OH256469   6.691   3.555   3.785 -0.2675 -0.1628 -1.0785
11685TIP3    H156470   6.705   3.505   3.704  5.1406 -0.6540 -0.1951
11685TIP3    H256471   6.738   3.505   3.852 -1.3231  2.2011  1.6078
11686TIP3   OH256472   2.956   2.068   2.278 -0.4322 -0.5855  0.0102
11686TIP3    H156473   2.884   2.006   2.285 -0.8597 -0.0073  1.0472
11686TIP3    H256474   3.034   2.016   2.292 -0.7860 -0.8984  0.8694
11687TIP3   OH256475   5.914   4.163   4.311 -0.2228 -0.2989  0.5553
11687TIP3    H156476   5.869   4.244   4.337 -1.5370 -1.4509  2.1396
11687TIP3    H256477   5.845   4.097   4.309  0.7800 -1.3760 -0.9099
11688TIP3   OH256478   3.533   5.993  13.265  0.7554  0.3706 -0.0374
11688TIP3    H156479   3.566   5.914  13.222 -0.0014  0.0858 -0.1148
11688TIP3    H256480   3.522   5.968  13.357  1.5146  0.7104  0.1589
11689TIP3   OH256481   5.661   5.677   0.516  0.0754 -0.5298  0.6848
11689TIP3    H156482   5.624   5.699   0.430 -1.6172  0.8506  1.7017
11689TIP3    H256483   5.657   5.582   0.520 -3.0863 -0.5154  0.5343
11690TIP3   OH256484   3.659   4.675   4.658 -0.4749  0.0742 -0.7732
11690TIP3    H156485   3.738   4.654   4.708 -1.8872 -0.2105  1.4608
11690TIP3    H256486   3.691   4.691   4.569  1.9182 -1.5006 -0.3045
11691TIP3   OH256487   3.543   1.825   5.223  0.3390  0.3662 -0.8251
11691TIP3    H156488   3.555   1.917   5.200 -0.8500  0.8236  0.2232
11691TIP3    H256489   3.521   1.826   5.316  0.2738 -0.9756 -0.7980
11692TIP3   OH256490   3.002   4.673  12.064 -0.0055 -0.4166  0.3366
11692TIP3    H156491   3.097   4.676  12.053 -0.1111 -1.9411 -1.5865
11692TIP3    H256492   2.969   4.643  11.979 -2.4092  2.2940  0.1476
11693TIP3   OH256493   3.058   6.553  15.993  0.4843 -0.3102 -0.0060
11693TIP3    H156494   3.079   6.463  15.969  1.7819  0.3670 -1.6172
11693TIP3    H256495   3.056   6.600  15.910  0.2589  1.2331  0.8399
11694TIP3   OH256496   6.313   4.637   3.718  0.1827  0.0568 -0.7169
11694TIP3    H156497   6.331   4.727   3.691  0.0141  0.2276 -0.2652
11694TIP3    H256498   6.398   4.600   3.737  0.1276  0.6895  0.8819
11695TIP3   OH256499   3.189   3.459  17.347 -0.0175 -0.4404 -0.1548
11695TIP3    H156500   3.210   3.525  17.281  0.2794 -1.4436 -1.1006
11695TIP3    H256501   3.103   3.425  17.321  0.6576 -1.7266 -0.7952
11696TIP3   OH256502   3.139   4.915  12.667  0.0844 -0.6748 -0.2718
11696TIP3    H156503   3.163   4.827  12.639  0.2081 -0.7213 -0.0241
11696TIP3    H256504   3.086   4.902  12.745  1.6069 -0.4741  0.8460
11697TIP3   OH256505   0.177   2.876   5.608 -0.5542  0.2077  0.2745
11697TIP3    H156506   0.162   2.879   5.702 -1.0830 -1.9908  0.3103
11697TIP3    H256507   0.272   2.868   5.599 -0.6523 -2.4032  0.8117
11698TIP3   OH256508   2.600   3.828  16.339 -0.1424 -0.1449 -0.0380
11698TIP3    H156509   2.603   3.732  16.343 -0.9012 -0.2020 -0.7184
11698TIP3    H256510   2.688   3.853  16.310  0.0927 -0.6248  0.2448
11699TIP3   OH256511   4.668   1.655  14.932  0.1558 -0.6667 -0.2401
11699TIP3    H156512   4.586   1.676  14.977 -0.8882  0.7229 -2.6056
11699TIP3    H256513   4.640   1.613  14.851  1.7625  0.2583 -1.3123
11700TIP3   OH256514   1.321   5.602   1.039  0.1514 -0.2016 -0.1285
11700TIP3    H156515   1.226   5.604   1.042  0.1235 -1.5509  0.6813
11700TIP3    H256516   1.348   5.607   1.130  0.8028 -1.0639 -0.2568
11701TIP3   OH256517   0.749   2.230  11.476 -0.6176 -0.0081  0.1857
11701TIP3    H156518   0.759   2.275  11.560 -1.1414 -0.6792  0.6134
11701TIP3    H256519   0.749   2.300  11.411 -2.3199  0.7125  0.9058
11702TIP3   OH256520   4.995   4.537  16.997  0.4891  0.5377 -0.1094
11702TIP3    H156521   4.916   4.580  16.963  0.6620  1.7870  0.9913
11702TIP3    H256522   4.967   4.500  17.081  0.2259 -1.9823 -1.2210
11703TIP3   OH256523   3.932   2.526   3.547  0.5652  0.1717  0.2146
11703TIP3    H156524   3.987   2.574   3.609  1.3600 -0.1894 -0.1977
11703TIP3    H256525   3.882   2.465   3.602 -0.2837  1.2696  0.7148
11704TIP3   OH256526   1.323   3.974  13.124  0.4024 -0.1927  0.2170
11704TIP3    H156527   1.388   4.045  13.133  0.3117 -0.2593  1.6445
11704TIP3    H256528   1.372   3.895  13.146 -0.1866 -0.2170  1.5370
11705TIP3   OH256529   1.068   0.941   4.334 -0.4206  0.0191  0.2986
11705TIP3    H156530   1.070   1.036   4.343 -0.1433 -0.1039  1.8100
11705TIP3    H256531   0.980   0.916   4.363 -1.1680 -0.0689 -1.8637
11706TIP3   OH256532   3.950   5.038   4.281 -0.6131  0.0313  0.4798
11706TIP3    H156533   4.008   5.114   4.273  0.0557 -0.2842  1.9111
11706TIP3    H256534   3.957   5.013   4.373  0.2691 -2.6265 -0.2323
11707TIP3   OH256535   3.347   1.527  13.282  0.1946 -0.7370 -0.0044
11707TIP3    H156536   3.349   1.490  13.194 -1.1510  1.5502 -1.0686
11707TIP3    H256537   3.378   1.617  13.271 -0.1502 -0.3576  1.8404
11708TIP3   OH256538   0.940   2.476   5.972  0.1771  0.0609 -0.2882
11708TIP3    H156539   0.884   2.533   6.024  0.7708  1.3476 -1.0062
11708TIP3    H256540   1.026   2.483   6.013  0.5433  0.7146 -1.1268
11709TIP3   OH256541   3.339   3.199   4.364 -0.0820  0.4043  0.3116
11709TIP3    H156542   3.400   3.271   4.381 -0.4995  0.4586  1.7845
11709TIP3    H256543   3.394   3.127   4.335  0.7505  0.3586  1.8887
11710TIP3   OH256544   2.261   1.511  14.303  0.3741 -0.3333  0.3364
11710TIP3    H156545   2.169   1.539  14.305  0.5782  0.3911 -0.1312
11710TIP3    H256546   2.277   1.491  14.211 -0.4278 -4.3156  0.8909
11711TIP3   OH256547   5.307   1.716  14.774 -0.0108  0.0501  0.7011
11711TIP3    H156548   5.280   1.767  14.849 -0.1117  1.3070 -0.1674
11711TIP3    H256549   5.252   1.747  14.702  0.6993 -0.4823 -0.0932
11712TIP3   OH256550   5.133   5.379   4.040  0.3438 -0.3682  0.2725
11712TIP3    H156551   5.056   5.416   4.083 -0.5557 -0.2522 -1.3369
11712TIP3    H256552   5.205   5.435   4.066 -0.3119  0.1607  0.9844
11713TIP3   OH256553   0.505   1.117  10.961 -0.1466 -0.3445  0.2881
11713TIP3    H156554   0.475   1.026  10.951  0.5874 -0.5955  0.2988
11713TIP3    H256555   0.425   1.168  10.969 -0.6467 -0.7918 -1.4214
11714TIP3   OH256556   2.249   3.966  13.324  0.0620 -0.8435 -0.6174
11714TIP3    H156557   2.171   3.922  13.358 -1.3864 -2.0079 -4.8873
11714TIP3    H256558   2.309   3.894  13.304  0.9884 -0.1771 -0.3003
11715TIP3   OH256559   0.354   5.416   4.964  0.4905  0.8693  0.0353
11715TIP3    H156560   0.441   5.452   4.983  0.2736  0.3885  2.2856
11715TIP3    H256561   0.296   5.492   4.971  0.5153  0.8456  0.5576
11716TIP3   OH256562   5.775   3.512   3.986  0.2681 -0.0913 -0.1251
11716TIP3    H156563   5.812   3.432   3.946 -1.4005 -1.5499  1.1049
11716TIP3    H256564   5.717   3.547   3.918  0.9016  0.0323 -0.6209
11717TIP3   OH256565   3.981   2.613  13.500 -0.1649  0.2834 -0.6240
11717TIP3    H156566   3.929   2.691  13.483 -1.5347 -0.6137 -0.6633
11717TIP3    H256567   4.039   2.605  13.424 -0.1774  1.1194 -0.7274
11718TIP3   OH256568   6.042   1.363   5.030  0.2347  0.3652 -0.1843
11718TIP3    H156569   5.981   1.290   5.022 -1.3000  1.4017  1.3990
11718TIP3    H256570   6.007   1.430   4.972  1.3602  0.0694 -1.2481
11719TIP3   OH256571   3.194   0.514   4.384 -0.5453 -0.4257  0.3762
11719TIP3    H156572   3.120   0.529   4.326 -0.0113  1.1697  0.0653
11719TIP3    H256573   3.271   0.534   4.331  0.3145 -3.8144  0.0951
11720TIP3   OH256574   2.591   6.322  13.525 -0.5657  0.5824 -0.8699
11720TIP3    H156575   2.651   6.251  13.547 -0.6278  1.2293  1.7144
11720TIP3    H256576   2.583   6.319  13.429  1.5518 -1.1288 -1.0516
11721TIP3   OH256577   0.208   4.511   1.267 -0.3746 -0.3033  0.3818
11721TIP3    H156578   0.167   4.492   1.352  0.4787  0.8052  1.0836
11721TIP3    H256579   0.194   4.605   1.255  0.4875 -0.2351 -0.1529
11722TIP3   OH256580   3.634   5.996  15.199  0.0305 -0.0385  0.1242
11722TIP3    H156581   3.576   5.922  15.180  0.8566 -0.5541 -0.4559
11722TIP3    H256582   3.706   5.986  15.137  1.6229 -0.3911  1.9250
11723TIP3   OH256583   4.860   3.812  16.913  0.2508  0.1856  0.0660
11723TIP3    H156584   4.905   3.739  16.870 -0.8313 -0.9122  0.7572
11723TIP3    H256585   4.923   3.845  16.977 -0.2763 -2.1440  1.9106
11724TIP3   OH256586   1.522   3.073  16.323 -0.5052  0.4573 -0.3250
11724TIP3    H156587   1.451   3.055  16.385 -0.0472  1.1856  0.4424
11724TIP3    H256588   1.562   2.988  16.307 -0.6997  0.2382  0.3171
11725TIP3   OH256589   2.831   1.698  11.590  0.0367 -0.5349 -0.3705
11725TIP3    H156590   2.747   1.655  11.605 -0.7521  1.2133  0.5194
11725TIP3    H256591   2.817   1.751  11.511 -0.4427  1.3979  0.9364
11726TIP3   OH256592   2.894   2.414   3.245 -0.1427 -0.1514  0.5805
11726TIP3    H156593   2.954   2.435   3.174 -1.1786  1.6026  0.1718
11726TIP3    H256594   2.871   2.498   3.283 -2.5400 -0.7062  0.5461
11727TIP3   OH256595   2.340   5.823   4.409  0.3009 -0.2797 -0.1630
11727TIP3    H156596   2.428   5.860   4.413  1.2295 -2.4279  1.2556
11727TIP3    H256597   2.352   5.740   4.363 -0.5414 -1.6038  1.8857
11728TIP3   OH256598   3.932   5.686  17.195  0.4939 -0.6418  0.3073
11728TIP3    H156599   3.920   5.649  17.108  1.3538 -0.6121  0.1658
11728TIP3    H256600   3.900   5.776  17.188  3.4176  0.4253 -0.8946
11729TIP3   OH256601   4.193   5.481   5.622 -0.8972  0.5230  0.5190
11729TIP3    H156602   4.169   5.523   5.705 -0.3664 -0.5376  1.2288
11729TIP3    H256603   4.182   5.387   5.638 -0.8043  0.3014 -0.6242
11730TIP3   OH256604   0.266   1.241  11.964  0.1685 -0.3696  0.2811
11730TIP3    H156605   0.311   1.269  11.884  1.4011 -0.0688  1.0611
11730TIP3    H256606   0.177   1.220  11.935  0.3520  0.5282 -1.0174
11731TIP3   OH256607   6.121   1.853   5.403 -0.4505 -0.2435 -0.0165
11731TIP3    H156608   6.204   1.820   5.437 -1.1226 -0.5783  1.3379
11731TIP3    H256609   6.079   1.777   5.362 -0.6382 -0.3679  0.4028
11732TIP3   OH256610   5.052   4.063  13.479  0.5950  0.6620 -0.0521
11732TIP3    H156611   5.047   4.003  13.404  0.3021  1.5536 -0.7648
11732TIP3    H256612   4.960   4.076  13.505  0.7347 -0.1749  0.9082
11733TIP3   OH256613   6.446   2.542   2.992  0.0784 -0.5385 -0.0257
11733TIP3    H156614   6.390   2.614   2.963 -1.5495 -1.4474  0.7113
11733TIP3    H256615   6.442   2.479   2.920  2.0349  0.3222 -0.9622
11734TIP3   OH256616   2.957   5.953  14.317  0.8394 -0.7660  0.7834
11734TIP3    H156617   2.882   5.961  14.258  1.3577  0.2172  0.2276
11734TIP3    H256618   3.030   5.928  14.260  1.1808 -0.5459  1.1169
11735TIP3   OH256619   0.043   5.186  14.317  0.2555 -0.3987  0.3387
11735TIP3    H156620  -0.037   5.239  14.314  0.2529 -0.4121  0.0954
11735TIP3    H256621   0.012   5.096  14.332 -0.0575 -0.9384 -2.8075
11736TIP3   OH256622   6.671   6.184  15.669 -0.0502 -0.5373 -0.5096
11736TIP3    H156623   6.686   6.101  15.626  1.3291 -1.1179  0.9791
11736TIP3    H256624   6.758   6.218  15.688 -0.5476 -0.2339  1.5779
11737TIP3   OH256625   3.035   3.360   1.255  0.1130  0.2008  0.0784
11737TIP3    H156626   3.014   3.343   1.347  1.2475 -1.1633  0.1137
11737TIP3    H256627   3.103   3.428   1.259  0.7257 -0.4091  0.3137
11738TIP3   OH256628   2.638   4.917   5.211  0.1873  0.8746  0.8264
11738TIP3    H156629   2.623   4.974   5.135 -0.8639  1.0644  1.1642
11738TIP3    H256630   2.649   4.830   5.173  0.7639  1.1340  0.3801
11739TIP3   OH256631   4.025   4.215   3.366 -0.0036  0.0792  0.2526
11739TIP3    H156632   3.982   4.139   3.406 -0.1999  0.5457  0.9588
11739TIP3    H256633   4.102   4.230   3.421  0.6594 -0.2928 -0.5570
11740TIP3   OH256634   3.110   4.474   2.413 -0.5462  0.8193  0.4431
11740TIP3    H156635   3.160   4.394   2.426 -0.0314  1.1603  0.6225
11740TIP3    H256636   3.019   4.445   2.406 -0.5231  0.3355  1.8348
11741TIP3   OH256637   5.192   0.096   4.892 -1.2442 -0.1403 -0.7314
11741TIP3    H156638   5.124   0.029   4.885 -0.4313 -1.0447 -0.3766
11741TIP3    H256639   5.270   0.047   4.918 -0.9394  1.1390  0.9238
11742TIP3   OH256640   2.940   3.947  12.927 -0.7455  0.2298  0.0895
11742TIP3    H156641   2.996   3.872  12.907  0.5625  1.5847 -1.8697
11742TIP3    H256642   2.992   4.000  12.987 -0.9102  0.3787  0.1018
11743TIP3   OH256643   6.623   5.147   2.546 -0.8183 -0.5960  0.4664
11743TIP3    H156644   6.695   5.096   2.583 -2.4689 -1.4675  2.6680
11743TIP3    H256645   6.647   5.160   2.454  0.4795 -3.8502  0.2366
11744TIP3   OH256646   1.747   6.454  10.768 -1.0177 -1.0949  0.7044
11744TIP3    H156647   1.831   6.492  10.742 -0.4689 -1.1119  2.3452
11744TIP3    H256648   1.682   6.519  10.743 -0.7977 -1.8743 -2.3575
11745TIP3   OH256649   1.896   2.430   5.037 -0.4813  0.1750  0.2360
11745TIP3    H156650   1.942   2.450   4.956  0.4400 -1.0537  0.4276
11745TIP3    H256651   1.873   2.516   5.073  0.8904  0.8086 -0.3123
11746TIP3   OH256652   3.265   5.192  15.131 -0.2158 -0.4658 -0.1775
11746TIP3    H156653   3.310   5.274  15.154 -1.4567  0.5850 -1.3009
11746TIP3    H256654   3.185   5.193  15.184 -1.1252 -0.0023 -1.4924
11747TIP3   OH256655   4.362   1.469   0.865 -0.5086 -0.0340  0.8699
11747TIP3    H156656   4.333   1.558   0.885  1.0406  0.3259  1.6681
11747TIP3    H256657   4.407   1.476   0.781  1.0739  0.3175  1.6984
11748TIP3   OH256658   0.190   3.061  14.665  0.2592 -0.4732 -0.3965
11748TIP3    H156659   0.139   3.137  14.638  2.1127  0.5615 -1.1943
11748TIP3    H256660   0.141   3.023  14.738  0.5173  2.9954  1.7973
11749TIP3   OH256661   0.501   4.183  16.970 -0.0126 -0.1528  0.1693
11749TIP3    H156662   0.566   4.235  16.923 -0.3483 -1.0591 -1.3626
11749TIP3    H256663   0.462   4.245  17.033  3.1766  0.0952  2.1288
11750TIP3   OH256664   1.029   4.500  13.644  0.1036  0.3634  0.0374
11750TIP3    H156665   1.012   4.486  13.550 -0.1438  0.7554  0.0260
11750TIP3    H256666   0.964   4.446  13.688 -1.3807  2.0387 -0.0014
11751TIP3   OH256667   1.475   5.941  16.752 -0.6397  0.5562  0.5639
11751TIP3    H156668   1.432   5.876  16.696 -1.4816  0.5580  1.1891
11751TIP3    H256669   1.403   5.988  16.794 -0.0287  0.8935  1.2643
11752TIP3   OH256670   6.081   1.066  16.412  0.0290  0.0041  0.3130
11752TIP3    H156671   6.074   1.063  16.317 -1.7026  0.5534  0.3859
11752TIP3    H256672   6.114   1.154  16.431 -2.7082  1.1475  0.2819
11753TIP3   OH256673   4.240   1.788  16.820  0.5542  0.1450  0.4149
11753TIP3    H156674   4.251   1.714  16.880 -0.7548 -0.4549 -0.0447
11753TIP3    H256675   4.328   1.826  16.812  1.3178 -1.5299  0.4522
11754TIP3   OH256676   5.763   0.919   1.479  0.1167 -0.6462  0.3190
11754TIP3    H156677   5.851   0.902   1.514  0.4109  0.3465  0.0816
11754TIP3    H256678   5.737   1.003   1.518  0.4604  0.5128 -1.8092
11755TIP3   OH256679   2.832   0.917  15.915  0.3777 -0.0275 -0.1433
11755TIP3    H156680   2.779   0.998  15.916 -1.3775 -1.1170  0.1549
11755TIP3    H256681   2.891   0.927  15.989 -0.6731  0.4914  0.6630
11756TIP3   OH256682   0.656   1.697  12.354  0.5282 -0.4105  0.2171
11756TIP3    H156683   0.679   1.727  12.266 -1.0823 -0.0813 -0.1246
11756TIP3    H256684   0.731   1.644  12.382  1.6591  0.5980 -0.7905
11757TIP3   OH256685   0.382   6.097   2.911 -0.0767 -0.0655  0.0596
11757TIP3    H156686   0.392   6.190   2.933 -0.1708 -0.3847  1.5416
11757TIP3    H256687   0.324   6.063   2.978  0.5338 -1.3620 -0.0418
11758TIP3   OH256688   0.141   5.150   3.274 -0.0606  0.0982 -0.5704
11758TIP3    H156689   0.072   5.207   3.239 -0.7950 -0.4781 -0.0742
11758TIP3    H256690   0.149   5.176   3.366  0.9359  0.6862 -0.8032
11759TIP3   OH256691   5.540   2.002   1.064  0.2230  0.1057  0.2244
11759TIP3    H156692   5.630   1.987   1.034  0.4747 -1.2898  1.5125
11759TIP3    H256693   5.495   2.040   0.988  1.3497 -1.2228 -1.1871
11760TIP3   OH256694   0.593   3.899   4.983 -0.2872 -0.2067  0.2664
11760TIP3    H156695   0.609   3.882   5.076  0.4623 -1.6036 -0.0795
11760TIP3    H256696   0.567   3.814   4.948 -1.8571  0.5810 -0.5710
11761TIP3   OH256697   2.168   4.238  12.088 -0.1069  0.5740  0.1398
11761TIP3    H156698   2.195   4.310  12.032  2.0806 -0.8958 -0.8612
11761TIP3    H256699   2.157   4.164  12.029 -3.6000  0.2739  0.9493
11762TIP3   OH256700   4.233   5.049  13.943 -0.4121  0.0720 -0.4252
11762TIP3    H156701   4.245   4.996  14.022 -0.6492 -1.3824 -1.3298
11762TIP3    H256702   4.320   5.083  13.924 -0.1632 -0.3404 -0.0580
11763TIP3   OH256703   1.563   1.823  12.148  0.7344 -0.0974  0.0503
11763TIP3    H156704   1.654   1.794  12.137  0.8585  0.2409  0.1551
11763TIP3    H256705   1.511   1.761  12.097  0.8920 -1.1128  1.0884
11764TIP3   OH256706   5.391   3.273   2.344 -0.4505 -0.2403  0.3889
11764TIP3    H156707   5.393   3.243   2.435 -0.4630  0.2681  0.5590
11764TIP3    H256708   5.313   3.329   2.339 -0.0012  0.3760  0.2699
11765TIP3   OH256709   3.460   4.842   0.614 -0.4091 -0.4390  0.3128
11765TIP3    H156710   3.469   4.751   0.640  0.2181 -0.6307 -0.5345
11765TIP3    H256711   3.452   4.840   0.519 -0.2818  0.3893  0.2719
11766TIP3   OH256712   4.125   5.996   0.922  0.6489 -0.1662 -0.0637
11766TIP3    H156713   4.206   5.956   0.955  0.6448 -0.7380 -0.7166
11766TIP3    H256714   4.146   6.089   0.913  1.0709 -0.2287  0.2653
11767TIP3   OH256715   4.409   6.701   1.540 -0.3724 -0.0207  0.3115
11767TIP3    H156716   4.394   6.627   1.482 -0.7418  0.3326 -0.0484
11767TIP3    H256717   4.326   6.749   1.539  0.3462  1.2471 -0.6724
11768TIP3   OH256718   3.617   3.640   6.894  0.1916  0.6089  0.2036
11768TIP3    H156719   3.578   3.631   6.807  1.0242 -1.3561 -0.0212
11768TIP3    H256720   3.580   3.569   6.945  0.0047  1.5150  1.3621
11769TIP3   OH256721   4.389   4.301  14.052 -0.0537  0.1918  0.3959
11769TIP3    H156722   4.376   4.356  14.129 -0.3611  0.8160 -0.0943
11769TIP3    H256723   4.484   4.293  14.044 -0.0254 -0.2038  1.0617
11770TIP3   OH256724   2.059   3.352  16.885 -0.9445  0.6189 -0.3166
11770TIP3    H156725   2.145   3.390  16.904 -1.8941  2.5576  0.3793
11770TIP3    H256726   2.076   3.289  16.815  0.7835  2.2679 -1.5021
11771TIP3   OH256727   6.468   2.976   1.703  0.1284  0.6409  0.0166
11771TIP3    H156728   6.537   2.987   1.769  0.4151 -1.1478  0.0788
11771TIP3    H256729   6.514   2.979   1.620  0.5289 -1.5962  0.0843
11772TIP3   OH256730   1.300   1.111   0.987  0.3794 -0.2431 -0.3266
11772TIP3    H156731   1.378   1.090   0.935  0.8841 -0.9736  0.6851
11772TIP3    H256732   1.309   1.058   1.066 -0.6314  0.4440  0.2765
11773TIP3   OH256733   5.176   3.339  11.523  0.5970  0.2900 -0.3423
11773TIP3    H156734   5.090   3.381  11.532  0.8766  0.8468 -0.2805
11773TIP3    H256735   5.226   3.369  11.598 -0.2042 -2.6878  1.5839
11774TIP3   OH256736   3.035   4.066   5.563 -0.2275 -0.6734 -0.4281
11774TIP3    H156737   3.056   4.039   5.474 -1.1424 -2.0276 -0.2590
11774TIP3    H256738   3.061   3.992   5.618  1.5636  0.6510  0.6322
11775TIP3   OH256739   4.096   6.432   6.037 -0.4441  0.0946  0.1222
11775TIP3    H156740   4.046   6.406   6.115 -0.7678 -0.8334 -0.3825
11775TIP3    H256741   4.183   6.452   6.070 -0.1566 -1.6902  0.5533
11776TIP3   OH256742   3.274   5.912  15.328 -0.1245 -0.1772 -0.4463
11776TIP3    H156743   3.306   5.968  15.257 -0.7972  0.3808 -0.3191
11776TIP3    H256744   3.348   5.908  15.389 -0.0090  0.4576 -0.5317
11777TIP3   OH256745   1.291   2.775   4.400  0.0493 -0.4348 -0.0853
11777TIP3    H156746   1.205   2.772   4.357  0.0295  0.8877 -0.1807
11777TIP3    H256747   1.348   2.816   4.335  0.8698 -1.7196 -0.1932
11778TIP3   OH256748   6.185   6.224  11.853 -0.3922  0.4983 -0.3294
11778TIP3    H156749   6.139   6.307  11.868  0.9798  1.2856 -0.3646
11778TIP3    H256750   6.136   6.183  11.782 -1.5454  0.9151  0.1906
11779TIP3   OH256751   4.887   5.851  17.385 -0.3491 -0.4422 -0.5673
11779TIP3    H156752   4.798   5.825  17.364 -0.5377  0.2022 -0.6099
11779TIP3    H256753   4.880   5.944  17.407  0.2176 -0.5378  0.0403
11780TIP3   OH256754   4.034   4.469  16.766 -0.3459 -0.2652 -0.4214
11780TIP3    H156755   3.995   4.531  16.828 -0.6768 -0.2170 -0.6784
11780TIP3    H256756   3.962   4.442  16.710 -0.0675 -0.3904 -0.7220
11781TIP3   OH256757   0.488   4.175   5.056 -0.0012  0.3840  0.5770
11781TIP3    H156758   0.455   4.085   5.050 -1.4213  0.8706  0.7231
11781TIP3    H256759   0.547   4.175   5.131 -0.3817 -0.3042  0.8779
11782TIP3   OH256760   5.764   4.851  12.650  0.6673 -0.3034 -0.0248
11782TIP3    H156761   5.715   4.797  12.588 -0.5442 -0.0456  0.6624
11782TIP3    H256762   5.856   4.830  12.634  0.2588 -3.8417  1.3471
11783TIP3   OH256763   2.534   6.478   0.259 -1.0037  0.4785 -0.0443
11783TIP3    H156764   2.509   6.399   0.308 -1.0798 -0.3487 -1.3624
11783TIP3    H256765   2.500   6.463   0.171  0.6034  1.1490 -0.8108
11784TIP3   OH256766   1.366   0.906  10.257  0.3267  0.3472  0.1608
11784TIP3    H156767   1.347   0.906  10.163 -0.0684  2.1617  0.2079
11784TIP3    H256768   1.363   0.814  10.282  0.4859 -0.1736 -1.6072
11785TIP3   OH256769   5.438   4.342   0.943 -0.0962 -0.0104  0.0156
11785TIP3    H156770   5.504   4.342   1.013 -0.6818 -2.0640  0.6480
11785TIP3    H256771   5.354   4.349   0.988 -0.4751 -1.2265 -0.4434
11786TIP3   OH256772   3.971   2.096   3.462 -0.6735  0.6307 -0.1587
11786TIP3    H156773   3.968   2.002   3.476 -3.7214  0.3506 -1.7848
11786TIP3    H256774   3.909   2.132   3.524 -0.6307  1.3943 -0.5418
11787TIP3   OH256775   5.995   4.344  13.884 -0.8622  0.1363  0.1504
11787TIP3    H156776   5.989   4.262  13.933  0.3501 -1.5740 -2.3397
11787TIP3    H256777   6.068   4.390  13.923 -1.1914 -0.2196  1.2164
11788TIP3   OH256778   0.873   0.084  15.766 -0.0054 -0.2416  0.0612
11788TIP3    H156779   0.887   0.103  15.673 -1.7974 -1.3647 -0.4883
11788TIP3    H256780   0.954   0.042  15.795  1.1244  1.4009 -0.5944
11789TIP3   OH256781   2.782   2.109   1.145 -0.2342 -0.4938 -0.6516
11789TIP3    H156782   2.873   2.110   1.176 -0.1882 -2.0682 -0.6469
11789TIP3    H256783   2.789   2.098   1.050 -0.4298  0.7547 -0.8344
11790TIP3   OH256784   2.013   2.942  15.652 -0.2182  0.1530  0.1982
11790TIP3    H156785   2.074   2.901  15.591 -0.1355  1.4282 -0.6199
11790TIP3    H256786   1.944   2.877  15.664 -0.1773 -0.1761 -1.1789
11791TIP3   OH256787   1.543   1.216  11.423 -0.2626 -0.0712 -0.4445
11791TIP3    H156788   1.546   1.241  11.331 -0.4522 -1.6931 -0.9114
11791TIP3    H256789   1.571   1.124  11.424 -0.7577 -0.2273  1.0478
11792TIP3   OH256790   2.746   3.861  13.211 -0.2395 -0.1141 -0.3468
11792TIP3    H156791   2.830   3.845  13.167 -0.4225 -0.6911 -0.4979
11792TIP3    H256792   2.728   3.779  13.257 -0.9575 -0.1716 -0.7136
11793TIP3   OH256793   5.967   0.716   5.214  0.5880 -0.6342 -0.3835
11793TIP3    H156794   5.918   0.794   5.241  1.6031 -0.5784  1.4359
11793TIP3    H256795   5.955   0.654   5.286  2.6516 -0.8426 -0.1562
11794TIP3   OH256796   3.030   3.808  15.007  0.4819  0.0716  0.2803
11794TIP3    H156797   2.980   3.890  15.001  1.2260  0.6025  1.0771
11794TIP3    H256798   3.030   3.786  15.100  0.7631 -0.5314  0.1437
11795TIP3   OH256799   0.136   3.576  14.503 -0.1917  0.1353 -0.1359
11795TIP3    H156800   0.114   3.604  14.592 -3.8689 -0.5056 -0.6958
11795TIP3    H256801   0.220   3.531  14.512  0.3647  1.5113  2.6765
11796TIP3   OH256802   1.314   0.057  12.068 -0.0994 -0.2943  0.8689
11796TIP3    H156803   1.364   0.113  12.009 -1.9450  0.7414  0.1947
11796TIP3    H256804   1.334  -0.032  12.040 -1.0215  0.1741 -1.4799
11797TIP3   OH256805   2.236   0.005  13.167  0.3775  0.0866  0.1613
11797TIP3    H156806   2.216   0.093  13.199  3.2447  1.2315 -0.8902
11797TIP3    H256807   2.220   0.010  13.073 -0.3649 -0.8600  0.2212
11798TIP3   OH256808   0.420   5.416  14.233 -0.2945  0.1607  0.1350
11798TIP3    H156809   0.416   5.321  14.248 -2.4700  0.0343 -0.9505
11798TIP3    H256810   0.484   5.447  14.297  1.4819 -2.1855 -0.3382
11799TIP3   OH256811   6.416   4.350   2.695 -0.6542 -0.4362 -0.3231
11799TIP3    H156812   6.334   4.359   2.646 -0.9665  0.4666  0.3487
11799TIP3    H256813   6.392   4.370   2.786  0.5135  0.8892 -0.2892
11800TIP3   OH256814   6.255   5.370   2.881 -0.0557  0.1018  0.0636
11800TIP3    H156815   6.181   5.310   2.868 -2.4181  1.9430  3.4782
11800TIP3    H256816   6.259   5.420   2.800 -1.7482 -0.8692 -0.6738
11801TIP3   OH256817   0.977   4.286  15.421  0.3296  0.0876 -0.1579
11801TIP3    H156818   1.010   4.215  15.477  0.6809  0.3253 -0.0604
11801TIP3    H256819   0.883   4.268  15.412  0.2999 -0.0410  0.3822
11802TIP3   OH256820   6.643   4.760   5.240 -0.0335  1.0365  0.3817
11802TIP3    H156821   6.729   4.719   5.230  0.6415  2.5196 -0.1996
11802TIP3    H256822   6.639   4.787   5.331 -0.2036  0.3131  0.5965
11803TIP3   OH256823   2.957   1.333   2.474 -0.0793 -0.3530  0.3959
11803TIP3    H156824   2.876   1.287   2.496 -0.3861  0.0943  0.2075
11803TIP3    H256825   2.929   1.413   2.430  0.5186 -1.3205 -1.8917
11804TIP3   OH256826   3.474   6.652   0.290 -0.4586  0.2171  0.0815
11804TIP3    H156827   3.409   6.719   0.268 -1.3300 -0.6364 -0.0167
11804TIP3    H256828   3.495   6.667   0.382 -1.4080  0.0105  0.3434
11805TIP3   OH256829   2.441   1.662  15.429 -0.4070 -0.7025  0.1925
11805TIP3    H156830   2.459   1.598  15.360  0.2184 -0.7409  0.3773
11805TIP3    H256831   2.385   1.727  15.388 -2.7656 -2.3888  0.5474
11806TIP3   OH256832   2.497   2.556  13.588 -0.2486  0.1132  0.2606
11806TIP3    H156833   2.436   2.489  13.619  0.8862 -0.0415  2.3582
11806TIP3    H256834   2.452   2.639  13.606 -0.5595 -0.0208  0.1231
11807TIP3   OH256835   6.513   4.987   3.164  0.0842  0.1862  0.0120
11807TIP3    H156836   6.591   4.943   3.129 -2.1082 -1.2843 -3.5710
11807TIP3    H256837   6.512   5.072   3.119 -1.6775 -0.8965 -2.1910
11808TIP3   OH256838   1.832   2.937   5.087  0.4728  0.4819  0.3545
11808TIP3    H156839   1.762   2.994   5.055  0.1197  0.0125  0.2748
11808TIP3    H256840   1.878   2.989   5.153 -0.9062  0.2505  1.5229
11809TIP3   OH256841   2.622   2.291   4.327  0.4467  0.2211  0.3068
11809TIP3    H156842   2.653   2.288   4.236  0.9271 -0.0610  0.4780
11809TIP3    H256843   2.595   2.382   4.339 -0.2320  0.1133 -0.3157
11810TIP3   OH256844   2.708   4.090   1.781  0.2668  0.1731  1.2268
11810TIP3    H156845   2.631   4.042   1.812 -0.3129 -0.9580 -1.6074
11810TIP3    H256846   2.781   4.031   1.799 -0.0476 -0.4347  0.5876
11811TIP3   OH256847   3.875   5.312  14.986 -0.5084 -0.5720 -0.0719
11811TIP3    H156848   3.911   5.327  15.074  0.0569  1.2066 -0.5701
11811TIP3    H256849   3.922   5.236  14.953 -2.1242 -2.5524  1.8710
11812TIP3   OH256850   1.678   6.288  14.958 -0.0676 -0.3073  0.0335
11812TIP3    H156851   1.625   6.229  15.012 -1.4362  1.4285  0.7115
11812TIP3    H256852   1.721   6.231  14.894 -1.1601 -2.0317  0.7640
11813TIP3   OH256853   3.130   2.326   4.320  0.5303  0.1943  0.3691
11813TIP3    H156854   3.044   2.366   4.316  0.6576  0.3861 -0.6104
11813TIP3    H256855   3.191   2.400   4.326  0.6136  0.0490  1.7155
11814TIP3   OH256856   2.295   2.419   6.321 -0.1576 -0.0077  0.1679
11814TIP3    H156857   2.236   2.346   6.341  0.5462 -1.1719 -1.6628
11814TIP3    H256858   2.240   2.497   6.326 -1.7424 -0.9963 -0.8687
11815TIP3   OH256859   5.448   1.727   4.812 -0.5276  0.2851  0.0164
11815TIP3    H156860   5.364   1.682   4.813 -0.0489 -0.6224  0.1478
11815TIP3    H256861   5.510   1.663   4.846  0.6726 -0.0226 -2.5082
11816TIP3   OH256862   3.883   3.611  11.538 -0.6121  0.1525  0.1232
11816TIP3    H156863   3.813   3.614  11.472 -0.7000 -2.0959  0.0336
11816TIP3    H256864   3.839   3.580  11.617  0.2863 -1.4677  0.0189
11817TIP3   OH256865   1.718   5.050  14.685  0.2651 -0.1504  1.1235
11817TIP3    H156866   1.793   4.993  14.704  1.0365  0.4780  0.0819
11817TIP3    H256867   1.751   5.113  14.621 -1.2910 -0.1471  0.2610
11818TIP3   OH256868   5.473   4.208  10.868 -0.0659  0.1656  0.4822
11818TIP3    H156869   5.546   4.246  10.819  0.9000 -0.9018  1.0210
11818TIP3    H256870   5.408   4.187  10.801  1.0088 -0.7971 -0.3092
11819TIP3   OH256871   4.920   0.820  15.450  0.1677  0.1941 -0.0493
11819TIP3    H156872   4.827   0.837  15.465  0.6699  0.5829  3.2917
11819TIP3    H256873   4.954   0.903  15.417 -0.6595 -0.0638 -1.6964
11820TIP3   OH256874   6.578   3.812  15.624  0.0215 -0.3962 -0.2128
11820TIP3    H156875   6.583   3.901  15.657 -2.2169 -0.0445 -0.7118
11820TIP3    H256876   6.553   3.759  15.700 -0.0606 -0.3869 -0.2335
11821TIP3   OH256877   1.354   5.829   5.510 -0.0921 -0.2261  0.1920
11821TIP3    H156878   1.417   5.760   5.492  0.1030  0.1542 -0.6044
11821TIP3    H256879   1.392   5.877   5.584 -0.1527 -0.8588  0.6430
11822TIP3   OH256880   1.061   5.704  14.318  0.2170  0.1309 -0.4324
11822TIP3    H156881   1.036   5.698  14.410 -1.1408  0.5210 -0.7554
11822TIP3    H256882   1.008   5.637  14.274 -0.4581  1.1179 -1.1712
11823TIP3   OH256883   6.397   2.979   0.842  0.2880  0.3980 -0.4445
11823TIP3    H156884   6.399   2.932   0.925  0.4050  0.9356 -0.1394
11823TIP3    H256885   6.315   3.028   0.845 -0.8926 -1.3717 -1.6572
11824TIP3   OH256886   2.545   5.976   5.685  0.3964  0.2270  0.3770
11824TIP3    H156887   2.622   5.937   5.725  2.0776  1.4219 -1.5169
11824TIP3    H256888   2.529   6.055   5.737  0.3455 -0.0928  0.8566
11825TIP3   OH256889   3.527   0.286   5.763 -0.5129 -0.4368  0.0650
11825TIP3    H156890   3.574   0.223   5.708  0.0977 -1.2184  1.4291
11825TIP3    H256891   3.473   0.336   5.702 -0.5147 -1.8493 -1.1347
11826TIP3   OH256892   3.456   0.783   4.298  0.4354 -0.0699 -0.6622
11826TIP3    H156893   3.449   0.689   4.312 -1.1965  0.2046  0.7510
11826TIP3    H256894   3.542   0.796   4.260  1.3487 -1.9824  0.6054
11827TIP3   OH256895   0.167   2.464   4.959 -0.5456 -0.3973 -0.0506
11827TIP3    H156896   0.258   2.491   4.973 -0.5356 -0.8186  0.7665
11827TIP3    H256897   0.151   2.483   4.866  0.7902 -1.5291 -0.5493
11828TIP3   OH256898   3.109   1.342  13.097 -0.2545  0.5139  0.2380
11828TIP3    H156899   3.200   1.315  13.105  0.0380  0.3463 -2.7628
11828TIP3    H256900   3.076   1.341  13.187  2.8940  1.3992  1.5250
11829TIP3   OH256901   4.906   1.747   5.483  0.1784  0.1560  0.0757
11829TIP3    H156902   4.912   1.653   5.462  1.7458  0.3297 -0.3723
11829TIP3    H256903   4.962   1.789   5.418  0.5124  1.2924  1.0725
11830TIP3   OH256904   2.194   1.979   3.622  0.3897  0.1204  0.2030
11830TIP3    H156905   2.263   2.043   3.642  0.2556 -0.0625  1.3348
11830TIP3    H256906   2.184   1.929   3.703 -0.5017 -0.3953 -0.2144
11831TIP3   OH256907   0.412   1.971  12.524 -0.0076  0.4480 -0.0294
11831TIP3    H156908   0.335   1.971  12.468  0.0395  0.8101 -0.0977
11831TIP3    H256909   0.379   1.950  12.611 -0.4247  2.1961  0.2599
11832TIP3   OH256910   4.743   6.691   0.896 -0.3192 -0.7314  0.4147
11832TIP3    H156911   4.689   6.714   0.972  0.2936 -0.8910  0.8995
11832TIP3    H256912   4.730   6.596   0.885 -2.2133 -0.3852 -1.0984
11833TIP3   OH256913   1.327   3.128  12.573  0.1810 -0.4917 -0.4390
11833TIP3    H156914   1.231   3.135  12.577  0.2370 -0.3559  2.7901
11833TIP3    H256915   1.358   3.218  12.578  0.4627 -0.6482  0.9907
11834TIP3   OH256916   5.808   1.269  14.871 -0.1104 -0.3074  0.0418
11834TIP3    H156917   5.834   1.361  14.875 -1.7740  0.2262 -0.5835
11834TIP3    H256918   5.755   1.255  14.949 -0.4727 -0.5220 -0.2385
11835TIP3   OH256919   1.910   6.284   5.057 -0.0406  0.4011  0.4901
11835TIP3    H156920   1.817   6.304   5.071  0.0866  1.7147 -0.3351
11835TIP3    H256921   1.920   6.285   4.962  0.7698 -0.0339  0.5647
11836TIP3   OH256922   1.012   0.628   2.603  0.2414 -1.1212  0.0546
11836TIP3    H156923   1.080   0.691   2.627 -0.0779 -1.1031  0.9349
11836TIP3    H256924   0.941   0.644   2.665 -0.3490 -1.5164 -0.5005
11837TIP3   OH256925   3.623   2.215  13.379 -0.5518 -0.3032  0.3400
11837TIP3    H156926   3.616   2.286  13.315 -0.8420 -0.7948 -0.1929
11837TIP3    H256927   3.687   2.155  13.341  1.6186  0.8654  1.9783
11838TIP3   OH256928   6.255   3.872   4.601 -0.8103 -0.0711  0.3310
11838TIP3    H156929   6.194   3.816   4.553  0.8488 -0.4820 -1.4111
11838TIP3    H256930   6.246   3.958   4.560  0.0930 -0.2544 -0.2975
11839TIP3   OH256931   2.666   4.573  14.444  0.0376  0.1426  0.2671
11839TIP3    H156932   2.724   4.649  14.440  2.5736 -1.7273 -1.1483
11839TIP3    H256933   2.598   4.592  14.379  0.8432  1.0724 -0.3377
11840TIP3   OH256934   1.188   2.414   4.118  0.5198 -0.5266  0.2003
11840TIP3    H156935   1.281   2.435   4.129  0.7247 -0.8056 -0.9302
11840TIP3    H256936   1.180   2.324   4.151  0.6150 -0.4444  0.4519
11841TIP3   OH256937   4.916   2.579   5.978  0.1208 -0.3646 -0.1399
11841TIP3    H156938   4.911   2.644   6.048 -2.0848  0.8747 -1.3374
11841TIP3    H256939   4.857   2.509   6.005  0.4088 -0.5934 -0.0959
11842TIP3   OH256940   0.724   2.878  14.778  0.0277 -0.2963  0.1563
11842TIP3    H156941   0.748   2.936  14.706 -0.6177 -0.0351  0.1504
11842TIP3    H256942   0.712   2.936  14.853 -0.0447 -0.4878  0.2928
11843TIP3   OH256943   5.338   0.621   3.480 -0.1368  0.2909 -0.2456
11843TIP3    H156944   5.406   0.603   3.415 -0.6844  0.2028 -0.8043
11843TIP3    H256945   5.350   0.714   3.503  1.0146 -0.0607  0.6722
11844TIP3   OH256946   3.604   0.114   3.075 -0.1909 -0.2879 -0.1054
11844TIP3    H156947   3.538   0.183   3.070 -0.9664 -1.0368 -0.3752
11844TIP3    H256948   3.560   0.036   3.042  0.6296 -0.9510  0.3337
11845TIP3   OH256949   4.882   4.400  16.197  0.1393  0.0641  0.2956
11845TIP3    H156950   4.787   4.412  16.194  0.1728  0.2715 -1.8052
11845TIP3    H256951   4.917   4.486  16.220 -0.1785 -0.3885  2.7476
11846TIP3   OH256952   1.923   5.086  13.292  0.1670  0.3301 -0.8326
11846TIP3    H156953   1.872   5.149  13.241  2.1021  1.1901 -1.8241
11846TIP3    H256954   1.897   5.102  13.383 -2.8290 -0.7392 -1.3934
11847TIP3   OH256955   0.179   6.693  16.464 -0.4276 -0.8139  0.4150
11847TIP3    H156956   0.153   6.672  16.374  1.0633  0.6771 -0.4166
11847TIP3    H256957   0.101   6.733  16.502 -1.2521 -1.9464 -0.0129
11848TIP3   OH256958   4.782   4.587   4.509  0.3201 -0.2540 -0.2575
11848TIP3    H156959   4.788   4.529   4.434 -2.1864 -0.0904 -0.6791
11848TIP3    H256960   4.784   4.675   4.472 -1.2559 -0.1738 -0.2405
11849TIP3   OH256961   3.488   4.315   0.670 -0.9003  0.4163 -0.1723
11849TIP3    H156962   3.446   4.258   0.735  1.1404 -0.2034  0.6820
11849TIP3    H256963   3.564   4.350   0.716 -1.2461  2.6702 -1.1819
11850TIP3   OH256964   1.030   0.004   2.397 -0.1661  0.1467 -0.2983
11850TIP3    H156965   0.959  -0.010   2.460  0.5008 -1.1424  0.2029
11850TIP3    H256966   1.009   0.088   2.356 -1.2109  0.4858  0.8545
11851TIP3   OH256967   6.294   4.106   0.697  0.2593 -0.2498  0.3770
11851TIP3    H156968   6.237   4.029   0.703  0.9379 -0.7385  0.7659
11851TIP3    H256969   6.382   4.069   0.690  0.5510  0.4940  0.0731
11852TIP3   OH256970   4.038   5.005   1.749 -0.2571  0.2470  0.0263
11852TIP3    H156971   4.113   4.982   1.694 -0.1516  0.2044  0.1886
11852TIP3    H256972   4.057   4.964   1.833  0.0197  1.0673  0.3751
11853TIP3   OH256973   1.645   3.600  15.685  0.0525 -0.3451  0.1341
11853TIP3    H156974   1.710   3.616  15.755 -0.8707  1.4417  0.6358
11853TIP3    H256975   1.629   3.686  15.647 -0.0798 -1.1683 -1.7811
11854TIP3   OH256976   0.121   4.683   1.727 -0.3217  0.0822 -0.1513
11854TIP3    H156977   0.062   4.608   1.739 -0.4390  0.3561  1.1748
11854TIP3    H256978   0.207   4.650   1.753  0.0216 -0.1373 -1.4828
11855TIP3   OH256979   0.491   3.423  11.790 -0.1720 -0.1958 -0.0915
11855TIP3    H156980   0.439   3.346  11.812 -0.0667  0.4311  2.8610
11855TIP3    H256981   0.553   3.431  11.863  1.4530  1.2999 -1.5502
11856TIP3   OH256982   3.658   0.480  12.798 -0.0746 -0.7603  0.2147
11856TIP3    H156983   3.630   0.401  12.753  2.1031 -1.4610 -0.0104
11856TIP3    H256984   3.655   0.457  12.891 -0.6285 -0.6756  0.2223
11857TIP3   OH256985   0.266   4.295  12.214 -0.5493  0.2481 -0.2933
11857TIP3    H156986   0.171   4.293  12.229 -0.8643 -0.5274 -2.0955
11857TIP3    H256987   0.290   4.387  12.223 -1.7438  0.6769 -1.1956
11858TIP3   OH256988   3.182   0.003  11.885  0.4737  0.0724  0.0938
11858TIP3    H156989   3.095   0.031  11.857 -0.1936 -1.3923  0.5962
11858TIP3    H256990   3.208   0.069  11.949  0.7118  1.7459 -1.6168
11859TIP3   OH256991   2.265   3.466   3.375  0.3985  0.0961 -0.3846
11859TIP3    H156992   2.335   3.531   3.378  0.6999 -0.2659  1.2815
11859TIP3    H256993   2.307   3.384   3.398 -0.4349 -0.2599 -0.0743
11860TIP3   OH256994   0.040   2.259  13.741 -0.3565  0.4381  0.3572
11860TIP3    H156995  -0.006   2.321  13.685 -0.2273  2.1063  1.9870
11860TIP3    H256996   0.119   2.305  13.768 -0.3187 -0.3699  1.7151
11861TIP3   OH256997   4.052   1.833  15.088  0.0033  0.3679 -0.5724
11861TIP3    H156998   4.017   1.918  15.116  0.6304  0.2530  0.5784
11861TIP3    H256999   4.137   1.826  15.131  0.0595 -0.7482 -0.8366
11862TIP3   OH257000   0.885   1.252  15.970  0.2288  0.3056  0.5364
11862TIP3    H157001   0.890   1.277  15.878  2.6206  2.0251  1.0191
11862TIP3    H257002   0.810   1.300  16.004  0.4259  1.1169 -0.1460
11863TIP3   OH257003   2.707   6.377   4.391  0.2690 -0.2316  0.2772
11863TIP3    H157004   2.721   6.424   4.309 -0.9357 -0.8763 -0.3286
11863TIP3    H257005   2.736   6.288   4.374 -0.2757 -0.4451  0.4471
11864TIP3   OH257006   1.541   3.901   5.594 -0.4008 -0.5015 -0.6747
11864TIP3    H157007   1.584   3.938   5.671 -2.3037  0.7918 -0.1510
11864TIP3    H257008   1.561   3.808   5.597  2.5150  0.0348 -0.6432
11865TIP3   OH257009   6.308   3.032  12.042 -0.0869 -0.4246  0.0122
11865TIP3    H157010   6.381   3.087  12.011 -0.7737  1.6548  1.7935
11865TIP3    H257011   6.320   3.029  12.137 -1.3944 -1.4610  0.1607
11866TIP3   OH257012   2.684   1.527  11.945  0.1869 -0.4077  0.0999
11866TIP3    H157013   2.647   1.503  11.861 -1.3041 -1.1146  0.9180
11866TIP3    H257014   2.716   1.445  11.982  1.7050  0.0396 -0.1459
11867TIP3   OH257015   6.151   1.100   5.095 -0.3577 -0.5121  0.2599
11867TIP3    H157016   6.112   1.094   5.008 -0.1263 -1.7939  0.2259
11867TIP3    H257017   6.080   1.077   5.155 -0.3977 -0.0611  0.3933
11868TIP3   OH257018   2.344   5.409  13.183  0.0829  0.3559 -0.0460
11868TIP3    H157019   2.294   5.420  13.102  0.2185  0.1343 -0.1613
11868TIP3    H257020   2.297   5.342  13.232 -0.7059  1.3707  0.6264
11869TIP3   OH257021   0.079   2.890  15.407 -0.3656  0.4515 -0.4768
11869TIP3    H157022   0.081   2.982  15.432 -0.4132  0.7301 -1.4819
11869TIP3    H257023   0.107   2.843  15.486  0.2059  1.3582 -0.1308
11870TIP3   OH257024   5.944   3.179  14.462 -0.3903  0.2258  0.1867
11870TIP3    H157025   5.891   3.220  14.530 -0.1146 -0.6996  0.9745
11870TIP3    H257026   5.922   3.086  14.467  0.9294 -0.1043  0.1976
11871TIP3   OH257027   4.441   2.956   6.631 -0.4390 -0.2673 -0.3741
11871TIP3    H157028   4.429   2.885   6.568 -2.1285 -0.3109 -0.0483
11871TIP3    H257029   4.429   2.915   6.716 -1.3220  0.3717 -0.1790
11872TIP3   OH257030   0.361   2.206  11.481  0.0084  0.1225  0.1630
11872TIP3    H157031   0.283   2.253  11.452  0.2022 -0.0814 -0.7364
11872TIP3    H257032   0.393   2.162  11.402  1.3488  0.6512  0.3691
11873TIP3   OH257033   4.331   5.980   3.926 -0.2024 -0.9426  0.3972
11873TIP3    H157034   4.419   6.010   3.904 -1.0635  0.9008 -0.7394
11873TIP3    H257035   4.280   6.060   3.940 -1.8084 -1.9401  0.5970
11874TIP3   OH257036   1.856   0.786   4.239  0.1153  0.1351  0.5957
11874TIP3    H157037   1.907   0.711   4.270 -1.0525 -0.2091  1.7722
11874TIP3    H257038   1.779   0.788   4.296 -0.5070  1.4688 -0.2409
11875TIP3   OH257039   2.163   2.481   1.055 -0.2697 -0.0495 -0.1815
11875TIP3    H157040   2.107   2.520   0.988 -0.2195  0.6113  0.1590
11875TIP3    H257041   2.224   2.426   1.005  0.0260  0.7483 -0.7287
11876TIP3   OH257042   0.785   2.776  13.641 -0.4273 -0.2805  0.2504
11876TIP3    H157043   0.691   2.774  13.623 -0.4622 -1.0606  0.4538
11876TIP3    H257044   0.825   2.742  13.561 -0.3872 -0.8235  0.4926
11877TIP3   OH257045   6.038   5.585  10.768 -0.1223 -0.1973 -0.1399
11877TIP3    H157046   6.049   5.592  10.673 -1.1424 -0.7394 -0.3112
11877TIP3    H257047   6.084   5.505  10.791 -2.5657 -1.8600 -0.6910
11878TIP3   OH257048   4.312   2.123  13.892  0.1115 -0.3759 -0.5293
11878TIP3    H157049   4.406   2.137  13.885  0.2707 -0.3167  1.1951
11878TIP3    H257050   4.287   2.172  13.971 -0.7703 -2.9711  0.8994
11879TIP3   OH257051   0.768   5.355  16.780  0.3336 -0.6954  0.0420
11879TIP3    H157052   0.844   5.387  16.829  1.4920 -1.6661 -1.0634
11879TIP3    H257053   0.706   5.427  16.783  1.0821 -0.0642  1.4021
11880TIP3   OH257054   2.493   0.686   4.054 -0.5251 -0.1799  0.3583
11880TIP3    H157055   2.454   0.724   4.133  0.3748 -1.7943  1.6732
11880TIP3    H257056   2.431   0.704   3.984 -1.2087  1.5919  1.3562
11881TIP3   OH257057   3.475   1.683  17.149  0.2807 -0.2909  0.3151
11881TIP3    H157058   3.423   1.616  17.104  1.3145 -0.7361 -0.2378
11881TIP3    H257059   3.410   1.733  17.199 -0.7199 -0.6682 -0.5572
11882TIP3   OH257060   3.750   0.416   1.471 -0.2004 -0.5775  0.3089
11882TIP3    H157061   3.785   0.492   1.518  0.1875  1.2293 -2.6819
11882TIP3    H257062   3.824   0.357   1.461  1.5610  1.8942 -3.3711
11883TIP3   OH257063   1.113   4.038  15.542  0.6273 -0.3669 -0.5289
11883TIP3    H157064   1.188   4.005  15.592 -0.8225  0.3508  2.3211
11883TIP3    H257065   1.037   4.011  15.592 -0.9745  0.4076 -2.4273
11884TIP3   OH257066   2.056   0.681  16.863 -0.0219 -0.3153  0.1238
11884TIP3    H157067   2.080   0.632  16.784  2.2994 -1.4099  1.4068
11884TIP3    H257068   2.137   0.721  16.893 -0.7032 -0.3909  2.2648
11885TIP3   OH257069   2.138   2.217  14.186  0.0007  0.4529 -0.5647
11885TIP3    H157070   2.049   2.207  14.152 -0.1411  2.1918 -0.7565
11885TIP3    H257071   2.134   2.176  14.273 -0.1454 -2.2221 -1.7137
11886TIP3   OH257072   1.477   0.343  14.770 -1.1132  0.4015 -1.0196
11886TIP3    H157073   1.428   0.262  14.756 -0.2504 -0.7242  1.6373
11886TIP3    H257074   1.421   0.395  14.828  0.1421 -0.2995  0.9148
11887TIP3   OH257075   1.095   2.797   0.045  0.0161  0.1559  0.2397
11887TIP3    H157076   1.011   2.777   0.085  0.9869 -1.0501  1.8000
11887TIP3    H257077   1.160   2.759   0.104  1.6680  0.9373 -0.9708
11888TIP3   OH257078   4.653   5.523  12.937  0.0610  0.1748 -0.2035
11888TIP3    H157079   4.700   5.558  13.013  0.4551  0.5939 -0.6233
11888TIP3    H257080   4.576   5.480  12.973 -0.1186  0.9616  0.3918
11889TIP3   OH257081   1.748   6.594   1.825  0.1203  0.1093 -0.2086
11889TIP3    H157082   1.765   6.505   1.854  0.6982  0.0596 -0.6873
11889TIP3    H257083   1.656   6.592   1.797 -0.0630 -0.1632  0.3928
11890TIP3   OH257084   4.042   0.096   2.720  0.1840 -0.6235  0.1102
11890TIP3    H157085   3.965   0.082   2.776 -0.5870 -0.1516 -0.8102
11890TIP3    H257086   4.024   0.179   2.675  2.1333  0.5497  1.3263
11891TIP3   OH257087   0.349   6.095  12.219  0.1617 -0.2213  0.7610
11891TIP3    H157088   0.439   6.079  12.191  0.0889  0.3186  0.2024
11891TIP3    H257089   0.299   6.025  12.179  0.0123  0.7028 -0.7538
11892TIP3   OH257090   5.242   4.065   0.695 -0.2610 -0.4506 -0.7168
11892TIP3    H157091   5.322   4.117   0.688 -0.4235 -0.3830 -2.6889
11892TIP3    H257092   5.172   4.126   0.670 -0.8404 -0.7538  0.1209
11893TIP3   OH257093   0.369   1.182  12.433  0.2237  0.3209  0.6292
11893TIP3    H157094   0.397   1.181  12.341 -0.6434  0.4911  0.3510
11893TIP3    H257095   0.292   1.239  12.434  0.9558  1.3317  1.6888
11894TIP3   OH257096   0.548   1.376   1.144  0.1842  0.1514 -0.8010
11894TIP3    H157097   0.548   1.291   1.099 -2.5069  0.2663 -1.1912
11894TIP3    H257098   0.510   1.437   1.080  0.8349  1.3722 -0.0501
11895TIP3   OH257099   0.564   1.390  15.799 -0.0646  0.2793 -0.4031
11895TIP3    H157100   0.585   1.483  15.787  0.8972 -0.0660 -1.6378
11895TIP3    H257101   0.578   1.374  15.892 -2.7043  1.9211  0.3850
11896TIP3   OH257102   6.699   0.904  12.327 -0.0964  0.0540  0.2956
11896TIP3    H157103   6.746   0.924  12.245 -0.2181 -0.9390 -0.0287
11896TIP3    H257104   6.681   0.990  12.365  1.3851  0.4894  0.0903
11897TIP3   OH257105   2.373   1.221   4.117 -0.0551 -0.2427  0.3044
11897TIP3    H157106   2.356   1.258   4.030 -2.5386  0.1338  0.8770
11897TIP3    H257107   2.377   1.298   4.175  1.2059 -0.5165  0.6166
11898TIP3   OH257108   3.478   4.098   1.643 -0.3850 -0.2072 -0.2789
11898TIP3    H157109   3.432   4.105   1.727 -0.7351  1.2925 -0.5567
11898TIP3    H257110   3.560   4.054   1.664 -0.5187  0.0353  0.8408
11899TIP3   OH257111   5.515   4.337  16.890 -0.3124  0.0226 -0.0426
11899TIP3    H157112   5.505   4.390  16.969 -1.7277  0.9325 -0.8097
11899TIP3    H257113   5.598   4.366  16.852  0.2261 -0.2098  0.9233
11900TIP3   OH257114   6.696   2.982   4.280  0.5167  0.3200 -0.1625
11900TIP3    H157115   6.714   3.009   4.371 -1.4234  0.4153  0.2374
11900TIP3    H257116   6.773   3.010   4.231  1.5751  0.3434  1.4411
11901TIP3   OH257117   3.246   4.479   4.290 -0.6544 -0.3256 -0.4441
11901TIP3    H157118   3.296   4.405   4.325 -0.8811 -0.7063 -0.9120
11901TIP3    H257119   3.212   4.524   4.368  0.3949 -0.0669 -0.1173
11902TIP3   OH257120   2.613   4.658  17.283 -0.7717 -0.1261  0.4125
11902TIP3    H157121   2.670   4.699  17.349 -0.9551 -1.4908  1.4650
11902TIP3    H257122   2.640   4.698  17.200  0.5420  0.5198  1.1162
11903TIP3   OH257123   1.385   1.719  13.761  0.4052 -0.2393 -0.7961
11903TIP3    H157124   1.407   1.783  13.829  1.0910 -0.2922 -0.9587
11903TIP3    H257125   1.442   1.645  13.780 -0.5753 -0.9207 -0.4466
11904TIP3   OH257126   1.780   4.114  16.021  0.1707 -0.7922 -0.0070
11904TIP3    H157127   1.811   4.205  16.018 -0.1043 -0.7104 -0.4479
11904TIP3    H257128   1.695   4.116  15.978  1.1195 -1.6251 -2.0834
11905TIP3   OH257129   4.755   4.699  14.236 -0.1575 -0.3151  0.0326
11905TIP3    H157130   4.792   4.621  14.195 -0.0659 -1.1213  1.5745
11905TIP3    H257131   4.829   4.759  14.244  0.1096 -0.6622  0.1953
11906TIP3   OH257132   2.445   4.050  11.152 -0.0712  0.6894  0.0956
11906TIP3    H157133   2.474   3.978  11.096  0.1321  0.0249  1.0421
11906TIP3    H257134   2.458   4.128  11.098  1.0051  0.1572 -0.4435
11907TIP3   OH257135   2.224   2.516  14.139  0.1022 -0.0361  0.0271
11907TIP3    H157136   2.142   2.536  14.185  0.7446  0.1067  1.1580
11907TIP3    H257137   2.226   2.421  14.135 -1.1457 -0.0477 -1.9897
11908TIP3   OH257138   0.246   1.522   2.151  0.4469  0.5188 -0.2619
11908TIP3    H157139   0.341   1.529   2.145  0.5313 -1.0409 -1.3238
11908TIP3    H257140   0.215   1.613   2.154  2.0761  1.1057  3.0453
11909TIP3   OH257141   0.331   6.607  17.176 -1.0137 -0.1810 -0.4217
11909TIP3    H157142   0.400   6.555  17.135  0.7905 -0.6515  2.8882
11909TIP3    H257143   0.359   6.698  17.163 -1.5656 -0.1977 -1.9192
11910TIP3   OH257144   6.482   4.486  16.161 -0.5209 -0.5097 -0.5935
11910TIP3    H157145   6.449   4.398  16.147 -0.3878 -0.7127  0.2851
11910TIP3    H257146   6.429   4.519  16.234 -0.2272 -0.0511 -0.5856
11911TIP3   OH257147   6.567   5.454  16.284 -0.3009 -0.1618 -0.4970
11911TIP3    H157148   6.544   5.507  16.361 -1.8093 -1.3426 -0.0860
11911TIP3    H257149   6.483   5.440  16.240  0.4094 -0.3171 -1.8386
11912TIP3   OH257150   3.024   4.163   2.396 -0.1730 -0.5472  0.5380
11912TIP3    H157151   2.978   4.106   2.334  0.1786 -0.7415  0.4489
11912TIP3    H257152   3.006   4.125   2.481 -2.3259  0.8603  0.7962
11913TIP3   OH257153   0.127   0.719   0.878  0.0184 -0.3106 -0.1592
11913TIP3    H157154   0.079   0.738   0.958 -2.1870 -1.9667 -0.9854
11913TIP3    H257155   0.060   0.717   0.810  1.4707 -1.3302 -1.6388
11914TIP3   OH257156   2.776   5.954   5.846 -0.4174  0.4380  0.2629
11914TIP3    H157157   2.784   6.015   5.919  2.3791  0.2005  0.2819
11914TIP3    H257158   2.853   5.973   5.791  0.6860 -3.0978  0.3587
11915TIP3   OH257159   0.774   4.220   2.592  0.1347  0.1920  0.3220
11915TIP3    H157160   0.823   4.293   2.631  0.4618 -1.3966  3.1196
11915TIP3    H257161   0.782   4.234   2.498  0.9451  3.2448  0.7183
11916TIP3   OH257162   4.212   3.889  15.944 -0.8390  0.2640 -0.6125
11916TIP3    H157163   4.254   3.918  15.863  0.7836 -2.4858 -0.8435
11916TIP3    H257164   4.178   3.802  15.924 -5.1132  1.4970  0.1707
11917TIP3   OH257165   2.654   1.213  17.031  0.0611  0.1695  0.2398
11917TIP3    H157166   2.563   1.211  17.002 -0.1156 -0.4091  0.8032
11917TIP3    H257167   2.650   1.189  17.124  0.8537 -0.7103  0.0679
11918TIP3   OH257168   4.418   2.168  13.334 -0.1351 -0.3066  0.0777
11918TIP3    H157169   4.407   2.084  13.380  0.3561 -0.4836 -0.1318
11918TIP3    H257170   4.489   2.212  13.381  0.7090 -0.6942 -0.8015
11919TIP3   OH257171   0.455   2.026   4.731 -0.2924 -0.3384  0.0252
11919TIP3    H157172   0.513   2.097   4.702  0.2155 -0.8027 -0.1202
11919TIP3    H257173   0.367   2.063   4.726 -0.2686 -0.4454 -2.3566
11920TIP3   OH257174   0.955   2.861   3.947  0.3986 -0.0435  0.6122
11920TIP3    H157175   0.906   2.903   3.876 -2.1755 -0.8545  1.7783
11920TIP3    H257176   0.976   2.774   3.913 -1.5709 -0.7443  1.0342
11921TIP3   OH257177   5.621   1.672   0.650 -0.2381 -0.5446 -0.1661
11921TIP3    H157178   5.583   1.640   0.568 -1.3006  1.2159 -0.3986
11921TIP3    H257179   5.546   1.691   0.706  0.4684 -1.6780  1.2412
11922TIP3   OH257180   2.542   4.864  13.919 -0.6143  0.1615 -0.3594
11922TIP3    H157181   2.525   4.946  13.872 -0.7507  0.8753  0.8958
11922TIP3    H257182   2.613   4.885  13.980 -2.0260 -0.0405  1.4522
11923TIP3   OH257183   2.184   3.796   1.307 -0.7561 -0.2812 -0.3350
11923TIP3    H157184   2.196   3.772   1.215  1.7669 -1.0940  0.1189
11923TIP3    H257185   2.160   3.714   1.350 -1.8437  0.0804 -0.2343
11924TIP3   OH257186   5.052   6.641  11.764 -0.0362  0.6305  0.2239
11924TIP3    H157187   5.061   6.569  11.702 -2.0548  0.7698 -0.2799
11924TIP3    H257188   5.127   6.631  11.823  0.8530 -0.6428 -1.0603
11925TIP3   OH257189   2.914   1.095  16.257 -0.0402 -0.2092  0.5680
11925TIP3    H157190   2.840   1.038  16.238 -1.3986  1.7195 -0.2875
11925TIP3    H257191   2.887   1.181  16.226  1.7481  1.0181  2.1479
11926TIP3   OH257192   2.976   2.378  15.893  0.5323 -0.6059  0.0118
11926TIP3    H157193   2.898   2.409  15.938  0.4055  2.1861 -1.9067
11926TIP3    H257194   3.048   2.398  15.953 -0.0166 -1.2914  0.9171
11927TIP3   OH257195   6.376   0.758   6.294 -0.2533 -0.2932  0.5167
11927TIP3    H157196   6.284   0.783   6.288 -0.9442 -2.8958 -2.3043
11927TIP3    H257197   6.424   0.834   6.261 -1.7474 -0.2591 -1.7980
11928TIP3   OH257198   2.574   3.570  11.733 -0.2160 -0.3980  0.0211
11928TIP3    H157199   2.497   3.564  11.677  0.7527 -0.2340 -1.3674
11928TIP3    H257200   2.594   3.479  11.756 -1.7659 -0.3549  1.7842
11929TIP3   OH257201   6.393   4.645  12.067  0.1949  0.2981 -0.7126
11929TIP3    H157202   6.416   4.660  12.158  0.4378  0.4986 -0.8054
11929TIP3    H257203   6.476   4.624  12.024  0.5060  2.6909 -1.3872
11930TIP3   OH257204   1.835   1.427  12.134  0.0597  0.4556 -0.0886
11930TIP3    H157205   1.895   1.412  12.207  0.6191  2.7552  0.0178
11930TIP3    H257206   1.808   1.340  12.106  1.0356 -0.5374  1.8590
11931TIP3   OH257207   0.307   3.519   5.432 -0.0117 -0.0348 -0.2651
11931TIP3    H157208   0.274   3.429   5.444  1.8330 -0.8543 -0.9729
11931TIP3    H257209   0.252   3.555   5.363 -2.6698  0.4611  1.9360
11932TIP3   OH257210   6.480   2.489   5.843  0.4274  0.5590 -0.4119
11932TIP3    H157211   6.462   2.401   5.810  1.0763 -0.3246  1.4206
11932TIP3    H257212   6.502   2.541   5.766 -0.2466 -0.8097 -1.5584
11933TIP3   OH257213   3.415   1.341  13.625  0.0022  0.3984  0.2665
11933TIP3    H157214   3.479   1.375  13.562 -1.3886  1.6984 -0.5227
11933TIP3    H257215   3.451   1.257  13.653  1.3692  0.4468 -1.1907
11934TIP3   OH257216   3.214   5.043  13.598 -0.4637 -0.0084  0.2360
11934TIP3    H157217   3.211   4.948  13.591 -2.2450  0.0444 -0.0633
11934TIP3    H257218   3.193   5.061  13.690  0.2974  0.0967  0.3978
11935TIP3   OH257219   3.115   0.287  13.333  0.5566 -0.0462 -0.5890
11935TIP3    H157220   3.180   0.230  13.292  1.4443  0.3875  0.1742
11935TIP3    H257221   3.149   0.376  13.319  0.4063  0.1538  0.2735
11936TIP3   OH257222   5.257   1.285   0.958  0.1175  0.1844 -0.1243
11936TIP3    H157223   5.272   1.309   0.867  0.1391  2.2618  0.3708
11936TIP3    H257224   5.171   1.245   0.959  0.6107 -0.9750 -1.2115
11937TIP3   OH257225   6.364   2.986   4.274  0.2756 -0.0698  1.1406
11937TIP3    H157226   6.369   2.948   4.362 -0.6233  0.0196  1.2363
11937TIP3    H257227   6.407   2.921   4.218  1.1546  0.0214  1.6741
11938TIP3   OH257228   3.149   4.233  16.126  0.3163  0.4014  0.0000
11938TIP3    H157229   3.099   4.178  16.067  0.8115  0.4056 -0.4337
11938TIP3    H257230   3.229   4.183  16.144  0.0118  0.2336  0.9645
11939TIP3   OH257231   3.204   4.696   1.058 -0.0174 -0.0843  0.8194
11939TIP3    H157232   3.213   4.610   1.016  0.9794  0.0967  0.6346
11939TIP3    H257233   3.266   4.752   1.011 -0.1702  0.5690  1.3812
11940TIP3   OH257234   1.031   0.444   1.906  0.9986  0.3310 -0.1667
11940TIP3    H157235   1.112   0.414   1.947  1.0179  2.6700  1.7322
11940TIP3    H257236   1.057   0.516   1.848  0.5522 -0.6967 -1.7060
11941TIP3   OH257237   3.233   0.595   5.217 -0.0928  0.6856  0.7918
11941TIP3    H157238   3.290   0.672   5.214 -0.8252  1.2213  0.4037
11941TIP3    H257239   3.161   0.615   5.157  0.1696 -0.6797 -0.0323
11942TIP3   OH257240   1.176   5.179   3.083 -0.1556  0.4454 -0.0862
11942TIP3    H157241   1.145   5.146   3.168 -1.1922 -1.6218 -1.1827
11942TIP3    H257242   1.260   5.136   3.070 -0.2167  0.3898 -0.3045
11943TIP3   OH257243   3.440   1.336   5.374  0.9378  0.1856  0.4536
11943TIP3    H157244   3.426   1.406   5.438  1.3512  0.4523  0.2578
11943TIP3    H257245   3.407   1.372   5.291 -0.2566 -0.4216  0.6421
11944TIP3   OH257246   1.844   5.261   2.640  0.7834  0.5704  1.0338
11944TIP3    H157247   1.894   5.238   2.562  0.2531  1.9420  0.2592
11944TIP3    H257248   1.869   5.351   2.660  1.2952  0.0730  2.7730
11945TIP3   OH257249   6.215   0.368  13.253 -0.5263  0.0641 -0.3387
11945TIP3    H157250   6.287   0.349  13.193 -0.9780  0.7640 -1.1243
11945TIP3    H257251   6.136   0.353  13.201 -0.9165  2.4320 -0.5170
11946TIP3   OH257252   2.855   0.324   1.117 -0.4094 -0.3270  0.5024
11946TIP3    H157253   2.922   0.302   1.182  0.4638 -0.8786 -0.5388
11946TIP3    H257254   2.795   0.249   1.118 -0.1152 -0.5664  0.3220
11947TIP3   OH257255   3.590   5.618  14.731 -0.3138  0.4700 -0.1908
11947TIP3    H157256   3.585   5.700  14.782  0.1109 -0.5855  1.6562
11947TIP3    H257257   3.676   5.582  14.753 -0.4244 -0.3985 -1.1145
11948TIP3   OH257258   2.668   3.011  13.228  0.0507  0.1321 -0.1125
11948TIP3    H157259   2.676   2.991  13.321  2.0164 -0.7968 -0.4232
11948TIP3    H257260   2.605   2.947  13.195  0.6892 -0.7315  0.2908
11949TIP3   OH257261   5.057   2.016  13.971 -0.4577  0.2364  0.2247
11949TIP3    H157262   5.118   2.011  13.897  1.4959  2.5534  1.5381
11949TIP3    H257263   5.080   1.941  14.026 -1.7982 -1.3923 -1.3090
11950TIP3   OH257264   0.434   0.170  12.483  0.5860 -0.3558 -0.5335
11950TIP3    H157265   0.374   0.244  12.474 -0.2080 -1.0393 -1.0319
11950TIP3    H257266   0.435   0.129  12.397 -1.6973 -2.9263  0.4969
11951TIP3   OH257267   2.780   0.409  14.933 -0.4524 -0.1269  0.2901
11951TIP3    H157268   2.685   0.413  14.930 -0.4287  1.9992  0.7350
11951TIP3    H257269   2.799   0.354  15.009 -1.3423  0.1772  0.7439
11952TIP3   OH257270   2.671   5.983   1.840  0.5946  0.1764  0.3171
11952TIP3    H157271   2.717   6.064   1.819  1.8912 -0.6778 -0.2829
11952TIP3    H257272   2.618   5.965   1.763  2.0065 -0.6727 -0.4940
11953TIP3   OH257273   6.649   6.698   1.986  0.4881 -0.5792  0.6945
11953TIP3    H157274   6.667   6.706   1.893  0.8549 -0.2198  0.7929
11953TIP3    H257275   6.572   6.641   1.991  0.9528 -1.2594  0.2146
11954TIP3   OH257276   6.056   3.951   4.405 -0.4542  0.0547 -0.3645
11954TIP3    H157277   6.036   4.044   4.397  0.3644  0.1976 -0.9680
11954TIP3    H257278   6.057   3.919   4.314 -1.3517 -0.6840 -0.1202
11955TIP3   OH257279   2.113   3.791  16.796 -0.4056 -0.5953  0.4244
11955TIP3    H157280   2.166   3.753  16.866 -0.1025 -1.0179 -0.0268
11955TIP3    H257281   2.160   3.871  16.771 -0.4843 -0.4739  0.6685
11956TIP3   OH257282   5.313   1.497   2.352 -0.1875 -0.2886  0.2524
11956TIP3    H157283   5.258   1.515   2.428  0.4365 -1.1144  0.9117
11956TIP3    H257284   5.400   1.526   2.378 -0.0506 -0.1840 -0.3093
11957TIP3   OH257285   5.249   1.060  11.757  0.0013 -0.2605  0.1021
11957TIP3    H157286   5.177   1.003  11.730 -0.5133 -0.2159  1.2825
11957TIP3    H257287   5.266   1.034  11.848  1.6961 -0.4907 -0.2445
11958TIP3   OH257288   2.197   4.706   0.887 -0.1442  0.5562 -0.1871
11958TIP3    H157289   2.126   4.711   0.823 -1.7274 -1.2660  1.2998
11958TIP3    H257290   2.218   4.798   0.906 -3.7447  1.3262  0.9535
11959TIP3   OH257291   3.268   3.669   1.711  0.5472 -0.2834  0.2284
11959TIP3    H157292   3.325   3.737   1.747 -0.6785  0.7474  0.3030
11959TIP3    H257293   3.274   3.597   1.774  1.4199 -0.0255  0.4566
11960TIP3   OH257294   3.331   5.921  12.068  0.1693  0.0229 -0.1557
11960TIP3    H157295   3.260   5.858  12.082  1.4612 -1.2237  1.1197
11960TIP3    H257296   3.297   6.004  12.102 -1.2539 -0.1397 -1.0950
11961TIP3   OH257297   6.284   3.705   2.243 -1.2759 -0.2930  0.4981
11961TIP3    H157298   6.248   3.788   2.211 -1.4735 -0.6517 -0.2159
11961TIP3    H257299   6.361   3.732   2.294  0.0393  0.2410 -1.6112
11962TIP3   OH257300   6.296   3.432  11.414  0.3271  0.1698  0.1169
11962TIP3    H157301   6.292   3.405  11.323  3.7894 -1.0475  0.1755
11962TIP3    H257302   6.234   3.505  11.420  2.3081  2.6370 -4.1214
11963TIP3   OH257303   4.781   5.921  14.122  0.7826 -0.3206  0.6269
11963TIP3    H157304   4.857   5.974  14.099 -0.2229  0.3630 -1.3117
11963TIP3    H257305   4.806   5.831  14.103  0.5298  0.0759 -1.8195
11964TIP3   OH257306   5.671   5.858  15.057  0.2460  0.1242 -0.2028
11964TIP3    H157307   5.708   5.808  15.130 -0.8801 -0.1736  0.1950
11964TIP3    H257308   5.724   5.937  15.053  0.7933 -0.1947  0.4613
11965TIP3   OH257309   2.969   5.618  16.192  0.4146  0.5608  0.8757
11965TIP3    H157310   2.887   5.590  16.232  0.3013  2.1740  1.8365
11965TIP3    H257311   2.942   5.674  16.119  0.6533  0.3350  0.6133
11966TIP3   OH257312   2.546   4.378  15.226 -0.1604  0.4323  0.3032
11966TIP3    H157313   2.537   4.410  15.316  0.8068  0.3099  0.4469
11966TIP3    H257314   2.573   4.287  15.235 -1.4855 -0.0266 -0.1196
11967TIP3   OH257315   0.244   1.570   0.961  0.1000  0.6197  0.1122
11967TIP3    H157316   0.321   1.516   0.943  0.9000  1.9987 -0.8266
11967TIP3    H257317   0.220   1.548   1.051  0.5013 -1.1178 -0.1654
11968TIP3   OH257318   5.301   4.164  12.686 -0.2143 -0.6183  0.5457
11968TIP3    H157319   5.359   4.240  12.685  1.8266 -2.1120  0.0649
11968TIP3    H257320   5.275   4.155  12.777  1.7958 -0.9601  1.1218
11969TIP3   OH257321   3.939   1.529   2.126 -0.4264  0.3526  0.4496
11969TIP3    H157322   3.990   1.453   2.154  1.8473  2.2766  1.8459
11969TIP3    H257323   3.974   1.551   2.040 -0.2214  0.5687  0.5896
11970TIP3   OH257324   4.065   2.199   5.359  0.1825  0.6149  0.1287
11970TIP3    H157325   4.102   2.118   5.396 -1.3915 -0.3448 -0.3192
11970TIP3    H257326   4.125   2.268   5.388  1.2936 -0.6417  0.9389
11971TIP3   OH257327   5.805   5.814  16.552  0.0470 -0.4387 -0.0105
11971TIP3    H157328   5.719   5.809  16.510  0.6248 -2.9944 -1.0721
11971TIP3    H257329   5.786   5.813  16.646 -1.0936 -0.5216 -0.2272
11972TIP3   OH257330   2.070   3.189   5.857  0.1348 -0.5074 -0.5732
11972TIP3    H157331   2.112   3.179   5.943  0.9148  3.0876 -0.3543
11972TIP3    H257332   1.983   3.151   5.869  1.7092 -4.2951  0.2733
11973TIP3   OH257333   5.350   0.841  13.346 -0.4765 -0.2454  1.0791
11973TIP3    H157334   5.345   0.936  13.333 -0.1817 -0.3533  0.1102
11973TIP3    H257335   5.434   0.827  13.390  0.8716 -0.2820 -1.3523
11974TIP3   OH257336   6.279   3.097  14.307 -0.2860  0.0196  0.1771
11974TIP3    H157337   6.203   3.039  14.297 -0.4224  0.2187  0.0424
11974TIP3    H257338   6.348   3.055  14.256 -0.1666 -0.4005  0.6686
11975TIP3   OH257339   0.223   2.507  11.726 -0.2359  0.1502 -0.0011
11975TIP3    H157340   0.271   2.582  11.692  2.4426 -2.1062 -1.6567
11975TIP3    H257341   0.161   2.485  11.657  0.0139 -0.0056 -0.1794
11976TIP3   OH257342   0.985   3.881  16.856 -0.0876 -0.1182  0.1707
11976TIP3    H157343   0.943   3.933  16.787 -0.2857  1.3771  1.3664
11976TIP3    H257344   0.913   3.840  16.903 -0.0017 -0.2938  0.1532
11977TIP3   OH257345   6.540   5.451  12.862  0.5792  0.6170  0.2335
11977TIP3    H157346   6.505   5.539  12.850  0.5283  0.4780 -0.7210
11977TIP3    H257347   6.580   5.453  12.949  1.9651  2.0611 -0.3817
11978TIP3   OH257348   5.455   0.566   1.854 -0.0032 -0.0411  0.5308
11978TIP3    H157349   5.517   0.606   1.915  0.3400  1.1907 -0.6036
11978TIP3    H257350   5.453   0.474   1.880  1.6849  0.0458  1.1011
11979TIP3   OH257351   6.278   6.362   0.171 -0.0190 -0.3897 -0.1016
11979TIP3    H157352   6.323   6.278   0.167 -0.0074 -0.3913  0.0291
11979TIP3    H257353   6.344   6.423   0.204 -0.6203 -0.7840  2.0357
11980TIP3   OH257354   6.658   6.118   5.306 -0.1562  0.4165 -0.6904
11980TIP3    H157355   6.663   6.183   5.375 -2.7553 -0.1918  0.1811
11980TIP3    H257356   6.707   6.043   5.339 -0.3998  0.5538 -0.0110
11981TIP3   OH257357   4.298   0.438   1.817  0.1595 -0.2249  0.1201
11981TIP3    H157358   4.285   0.378   1.743  2.3765  1.4852 -1.7970
11981TIP3    H257359   4.209   0.461   1.844 -0.7411 -1.6269 -1.3868
11982TIP3   OH257360   0.205   4.528  13.502  0.3378  0.3800 -0.3139
11982TIP3    H157361   0.217   4.437  13.531 -0.7486  0.1657 -0.4987
11982TIP3    H257362   0.286   4.572  13.528  0.5462 -0.4536  0.5134
11983TIP3   OH257363   4.408   0.923  15.334  0.0092 -0.3742  0.2984
11983TIP3    H157364   4.408   1.003  15.387 -0.9926 -0.7680  0.9312
11983TIP3    H257365   4.487   0.876  15.361  0.1588  0.0137  0.5444
11984TIP3   OH257366   3.659   6.706   4.547  0.6874  0.0754 -0.2049
11984TIP3    H157367   3.704   6.636   4.596  0.4961 -0.2144 -0.4431
11984TIP3    H257368   3.727   6.744   4.491  1.0239  0.7145  0.6064
11985TIP3   OH257369   4.349   1.142  15.098  0.3727  0.1775 -0.0110
11985TIP3    H157370   4.352   1.164  15.192  0.3946  0.1709 -0.0097
11985TIP3    H257371   4.322   1.223  15.056 -0.9450 -0.1778  0.1130
11986TIP3   OH257372   3.225   5.748  16.216 -0.1895  0.2146 -0.1029
11986TIP3    H157373   3.139   5.710  16.198 -1.0362  1.2297  1.5921
11986TIP3    H257374   3.244   5.722  16.306  0.6876  1.0992 -0.0219
11987TIP3   OH257375   2.562   4.770  16.777  0.4045 -0.2184  0.0868
11987TIP3    H157376   2.558   4.774  16.681  2.1304 -0.6820 -0.0212
11987TIP3    H257377   2.492   4.709  16.801 -0.2151  0.0963 -0.8427
11988TIP3   OH257378   4.439   6.310   0.317 -0.1881 -0.3309  0.4676
11988TIP3    H157379   4.445   6.323   0.222 -1.0344 -0.2740  0.4150
11988TIP3    H257380   4.395   6.389   0.349  2.2966  0.8270  1.2393
11989TIP3   OH257381   6.369   5.403  14.162  0.0111 -0.0251  0.0914
11989TIP3    H157382   6.304   5.473  14.161  0.4739  0.4532  1.6243
11989TIP3    H257383   6.454   5.448  14.157  0.3257 -0.4307  1.4296
11990TIP3   OH257384   0.954   4.392   0.711  0.7153 -0.7050  0.3790
11990TIP3    H157385   0.874   4.439   0.688 -0.3783 -0.9347  3.2720
11990TIP3    H257386   1.012   4.406   0.637 -2.4026 -1.5961 -2.4533
11991TIP3   OH257387   5.352   5.253  15.466  0.1566  0.0485 -0.0127
11991TIP3    H157388   5.362   5.347  15.454 -0.9304  0.2064  0.2080
11991TIP3    H257389   5.375   5.215  15.381 -0.6990  0.6189 -0.5126
11992TIP3   OH257390   1.615   2.047  12.321  0.1226  0.0218 -0.2800
11992TIP3    H157391   1.618   1.964  12.274 -0.2385 -0.2296  0.1325
11992TIP3    H257392   1.590   2.111  12.255  0.4411 -0.1893 -0.6090
11993TIP3   OH257393   6.696   5.375  16.870 -0.4452  0.2688  0.0081
11993TIP3    H157394   6.676   5.300  16.927 -2.0979  0.2967 -0.5058
11993TIP3    H257395   6.639   5.363  16.794  0.2979  1.3125 -0.7387
11994TIP3   OH257396   1.553   3.275   5.038 -0.6474 -0.1623 -0.3164
11994TIP3    H157397   1.546   3.211   4.968 -1.3785  0.5116 -0.8873
11994TIP3    H257398   1.479   3.335   5.022 -1.0353 -0.1966  1.2219
11995TIP3   OH257399   2.952   6.303  12.193  0.1474  0.2865 -0.1053
11995TIP3    H157400   2.888   6.336  12.130 -0.4768 -0.6353  0.0271
11995TIP3    H257401   2.973   6.215  12.161  2.1238  0.9377 -0.7157
11996TIP3   OH257402   1.400   5.113   4.512  0.3835 -0.4995  0.7162
11996TIP3    H157403   1.388   5.057   4.588  0.8097  0.3294  1.4092
11996TIP3    H257404   1.363   5.198   4.538  1.4571  0.0890  0.3807
11997TIP3   OH257405   4.366   3.418   0.214  0.1915  0.0929 -0.3112
11997TIP3    H157406   4.380   3.511   0.194 -0.5784  0.7871  2.0467
11997TIP3    H257407   4.278   3.399   0.181 -0.2206  0.6154  0.4641
11998TIP3   OH257408   5.367   3.809  12.359 -0.1578  0.9753 -0.2333
11998TIP3    H157409   5.376   3.715  12.345 -1.9149  1.0045 -1.9970
11998TIP3    H257410   5.456   3.840  12.372  0.4193 -0.9691  0.7713
11999TIP3   OH257411   6.081   4.929   4.422 -0.4786 -0.2307  0.7564
11999TIP3    H157412   6.053   4.896   4.337 -0.1135  0.3476  0.4006
11999TIP3    H257413   6.145   4.865   4.453 -1.0588 -0.7577  0.8781
12000TIP3   OH257414   1.783   6.086  16.389 -0.0695  0.2355  0.2221
12000TIP3    H157415   1.858   6.030  16.407  2.0965  3.1945  1.3249
12000TIP3    H257416   1.794   6.112  16.298 -1.2812 -1.3160 -0.4040
12001TIP3   OH257417   6.693   3.455   0.885 -0.4343  0.3389 -0.1443
12001TIP3    H157418   6.775   3.503   0.898  0.0189 -0.5951  0.6069
12001TIP3    H257419   6.650   3.459   0.970  0.9572 -2.9464  0.8754
12002TIP3   OH257420   2.294   5.751   2.829  0.0073 -0.5676 -0.3384
12002TIP3    H157421   2.233   5.678   2.841 -0.7931  0.1825  0.2364
12002TIP3    H257422   2.328   5.738   2.740 -2.5359  0.0976 -1.5177
12003TIP3   OH257423   6.125   6.239   1.993  0.3082  0.1620 -0.3312
12003TIP3    H157424   6.208   6.197   1.971 -0.4799 -0.4642 -2.3056
12003TIP3    H257425   6.112   6.304   1.925 -0.6672  0.4852  0.1464
12004TIP3   OH257426   6.173   2.129   0.257 -0.1347 -0.2590  0.0928
12004TIP3    H157427   6.144   2.041   0.282  0.9081 -0.6207  0.0684
12004TIP3    H257428   6.267   2.120   0.243  0.5246  1.3832  2.6601
12005TIP3   OH257429   4.193   2.967  16.780  0.0728  0.1761  0.3197
12005TIP3    H157430   4.224   2.888  16.824  1.5678  0.1735 -0.6730
12005TIP3    H257431   4.112   2.940  16.737  0.1665 -0.6187  0.6229
12006TIP3   OH257432   0.074   2.020   6.012  0.5676 -0.4003  0.5711
12006TIP3    H157433   0.072   1.943   6.068 -0.7263  0.5405  1.9035
12006TIP3    H257434   0.026   1.994   5.933 -1.6404 -0.3975  1.8469
12007TIP3   OH257435   1.041   6.326   3.708 -0.3352  0.0478  0.0484
12007TIP3    H157436   0.983   6.344   3.634 -0.3643 -2.2700 -0.5678
12007TIP3    H257437   1.123   6.296   3.668  0.2179  0.2971  0.9499
12008TIP3   OH257438   4.330   2.153   5.477 -0.1311 -0.4090 -0.4975
12008TIP3    H157439   4.396   2.118   5.536  1.3294  0.5676 -1.4965
12008TIP3    H257440   4.343   2.105   5.395  0.2379  0.7042 -1.1038
12009TIP3   OH257441   2.502   5.252   2.372 -0.3763 -0.5316  0.3542
12009TIP3    H157442   2.437   5.197   2.417 -0.2827 -0.1695  0.9404
12009TIP3    H257443   2.584   5.232   2.417 -0.2866 -0.1400  0.3611
12010TIP3   OH257444   2.440   1.435   1.229 -0.0473  0.6397  0.0928
12010TIP3    H157445   2.356   1.395   1.251 -0.6600  1.0873 -1.3417
12010TIP3    H257446   2.488   1.367   1.183 -1.0687  1.4444 -2.2997
12011TIP3   OH257447   4.153   1.113   6.623  0.4345 -0.4840 -0.2895
12011TIP3    H157448   4.225   1.175   6.613  0.6320 -0.8692 -1.4996
12011TIP3    H257449   4.191   1.028   6.601 -0.1114 -0.8670  0.2128
12012TIP3   OH257450   1.917   0.359  14.203  0.4453  0.7075 -0.1234
12012TIP3    H157451   1.928   0.420  14.276  1.2939  1.2864 -0.7134
12012TIP3    H257452   1.864   0.288  14.239 -0.0394  1.4921  0.7544
12013TIP3   OH257453   2.252   2.455   1.329  0.3551 -0.1584  0.2458
12013TIP3    H157454   2.319   2.523   1.334  1.6952 -1.4523  0.2135
12013TIP3    H257455   2.233   2.447   1.236 -0.3538  0.6493  0.2992
12014TIP3   OH257456   1.577   6.502  15.547  0.0772  0.0875 -0.1331
12014TIP3    H157457   1.616   6.586  15.570 -0.3466  0.0181  0.8887
12014TIP3    H257458   1.500   6.524  15.495 -2.2285  0.6069  3.1660
12015TIP3   OH257459   3.804   2.983  11.464  0.2896  0.0023  0.1286
12015TIP3    H157460   3.808   3.070  11.502  1.2821  0.4341 -0.9074
12015TIP3    H257461   3.712   2.971  11.440 -0.4848 -0.4870  3.0200
12016TIP3   OH257462   3.574   3.412  12.400  0.0214  0.2731  0.7037
12016TIP3    H157463   3.482   3.433  12.387 -0.1531 -0.3022  0.9815
12016TIP3    H257464   3.621   3.474  12.345 -0.4757  1.3958  1.5075
12017TIP3   OH257465   4.448   6.179  12.361 -0.4805  0.4411 -0.2735
12017TIP3    H157466   4.474   6.219  12.278  2.3082 -0.0807  0.2458
12017TIP3    H257467   4.412   6.094  12.336 -0.4262  0.6228 -0.9950
12018TIP3   OH257468   1.324   0.943   6.010  0.4751  0.0861  0.2741
12018TIP3    H157469   1.349   0.981   6.094  0.0332  2.1366 -0.4612
12018TIP3    H257470   1.386   0.980   5.947  2.0543 -2.9265 -0.1163
12019TIP3   OH257471   5.196   1.905  14.956  0.5304 -0.1312 -0.1753
12019TIP3    H157472   5.125   1.929  14.897  0.9972  2.8083  0.2858
12019TIP3    H257473   5.155   1.902  15.043  0.9317  1.6575  0.1025
12020TIP3   OH257474   2.781   6.529   5.093  0.0968  0.2805 -0.2997
12020TIP3    H157475   2.704   6.517   5.036  0.2166  1.0959 -0.6493
12020TIP3    H257476   2.745   6.565   5.174  0.2613  2.4815 -1.1275
12021TIP3   OH257477   5.426   0.512   0.112  0.4932  0.3369 -0.3243
12021TIP3    H157478   5.521   0.521   0.117  0.7581 -0.2281 -2.7330
12021TIP3    H257479   5.411   0.477   0.024 -2.0383  1.9046 -0.6185
12022TIP3   OH257480   5.728   5.692   5.623  0.0066 -0.0120  0.3312
12022TIP3    H157481   5.805   5.700   5.678  1.0332  0.3742 -1.1062
12022TIP3    H257482   5.753   5.733   5.540 -1.1507 -1.3635 -0.7379
12023TIP3   OH257483   2.807   5.490   4.515  0.4387 -0.0366 -0.5215
12023TIP3    H157484   2.768   5.498   4.602 -0.9650 -1.2273 -1.0079
12023TIP3    H257485   2.877   5.425   4.526 -0.8140 -1.4421 -0.5857
12024TIP3   OH257486   0.294   6.493   4.032  0.1963 -0.3519  0.0251
12024TIP3    H157487   0.290   6.430   3.959  0.5588 -0.2131 -0.1190
12024TIP3    H257488   0.355   6.560   4.002 -0.2497  0.1130  0.1499
12025TIP3   OH257489   6.700   2.694   5.757  0.0126  0.0828 -0.3496
12025TIP3    H157490   6.731   2.605   5.742  1.4947  0.1155  2.1017
12025TIP3    H257491   6.718   2.740   5.675  2.7033 -0.9735 -0.4492
12026TIP3   OH257492   2.639   4.222   2.269  0.3912 -0.5646  0.4213
12026TIP3    H157493   2.654   4.241   2.177 -0.9352 -0.5765  0.1923
12026TIP3    H257494   2.546   4.239   2.283  0.9836  1.6514  2.2983
12027TIP3   OH257495   3.035   5.952   5.334  0.3694 -0.5954  0.5222
12027TIP3    H157496   3.104   5.942   5.269 -0.4386 -0.3739 -0.3847
12027TIP3    H257497   3.059   5.890   5.404  1.4415 -0.5571  0.2006
12028TIP3   OH257498   4.528   2.135   5.660 -0.7874  0.0954 -0.1710
12028TIP3    H157499   4.563   2.053   5.696 -0.4031  0.0164 -0.7162
12028TIP3    H257500   4.575   2.204   5.707 -1.3474  0.0121  0.5249
12029TIP3   OH257501   0.962   5.151   0.750  0.3832 -0.2166  0.1569
12029TIP3    H157502   1.028   5.131   0.684 -1.5054 -0.8497 -1.6377
12029TIP3    H257503   0.967   5.078   0.812  1.7579  0.0623  0.4028
12030TIP3   OH257504   5.681   2.257   4.430  0.7344  0.5251  0.4202
12030TIP3    H157505   5.593   2.269   4.393  0.5963  1.8008  1.1106
12030TIP3    H257506   5.740   2.294   4.365  0.5685  1.8217  0.9793
12031TIP3   OH257507   6.507   2.310   4.780 -0.3374  0.2116 -0.4592
12031TIP3    H157508   6.552   2.374   4.726  1.4192  0.1952  0.9043
12031TIP3    H257509   6.414   2.328   4.766  0.0983  1.7674 -1.5958
12032TIP3   OH257510   5.587   0.000  15.629 -0.2779 -0.1659  0.1189
12032TIP3    H157511   5.546   0.083  15.604  1.3501  0.4756 -0.5555
12032TIP3    H257512   5.585  -0.051  15.548 -2.1376 -1.2183  0.7598
12033TIP3   OH257513   4.890   5.684  14.217 -0.0903 -0.5207 -0.7241
12033TIP3    H157514   4.840   5.708  14.295  3.0804 -2.3374  2.1767
12033TIP3    H257515   4.862   5.595  14.196  0.9014 -1.0468  0.0929
12034TIP3   OH257516   1.331   3.638  12.571  0.4758 -0.2731 -0.2449
12034TIP3    H157517   1.419   3.676  12.576  0.0276  1.1848 -2.2865
12034TIP3    H257518   1.296   3.669  12.487 -2.3281 -0.0537  0.9041
12035TIP3   OH257519   6.171   2.423   0.830 -0.2111 -0.4560 -0.4267
12035TIP3    H157520   6.161   2.375   0.912  2.3220 -0.7986 -0.2418
12035TIP3    H257521   6.264   2.416   0.809 -0.5488  0.7612 -2.6506
12036TIP3   OH257522   1.248   3.576  11.155 -0.3257 -0.5186  0.2403
12036TIP3    H157523   1.278   3.530  11.077  2.0635 -0.0530  0.8005
12036TIP3    H257524   1.181   3.637  11.123 -0.8215 -1.7203 -1.0889
12037TIP3   OH257525   3.447   2.837   1.954  0.0994  0.7105 -0.0970
12037TIP3    H157526   3.449   2.926   1.991  0.3122  0.5746  0.2227
12037TIP3    H257527   3.374   2.839   1.892 -0.1124  1.0119  0.1561
12038TIP3   OH257528   2.708   4.010   2.440  0.4765 -0.3831  0.0028
12038TIP3    H157529   2.797   3.980   2.422  0.7112  0.3176 -0.0305
12038TIP3    H257530   2.695   4.084   2.381 -0.3105 -0.7850 -0.3495
12039TIP3   OH257531   6.319   3.274  10.683  1.1279  0.2791  0.3332
12039TIP3    H157532   6.249   3.279  10.749 -0.7015  0.7260 -1.5110
12039TIP3    H257533   6.274   3.244  10.604  3.4356 -1.2333 -0.4864
12040TIP3   OH257534   3.581   2.908  10.560  0.1549 -0.3033  0.4255
12040TIP3    H157535   3.666   2.943  10.534  0.6165 -1.5539  0.1479
12040TIP3    H257536   3.599   2.816  10.579 -0.9693 -0.3683  1.2450
12041TIP3   OH257537   1.493   3.208   4.040  0.8117 -0.0940 -0.5307
12041TIP3    H157538   1.458   3.134   3.990  1.7727 -0.1479 -1.1511
12041TIP3    H257539   1.463   3.285   3.993  1.7679 -0.1463 -1.2404
12042TIP3   OH257540   3.311   3.429   1.895 -0.0776  0.3219  0.5177
12042TIP3    H157541   3.396   3.384   1.896 -0.7952 -1.1644 -0.7167
12042TIP3    H257542   3.257   3.377   1.955 -1.0036 -0.7200 -1.1481
12043TIP3   OH257543   5.897   3.243  16.465  0.2097 -0.2037  0.4949
12043TIP3    H157544   5.958   3.177  16.432  0.8372 -0.3331  1.8127
12043TIP3    H257545   5.815   3.226  16.419  1.3499  0.4575 -1.8830
12044TIP3   OH257546   0.290   4.366   1.007 -0.0538 -0.3324 -0.2269
12044TIP3    H157547   0.378   4.352   1.040 -0.3817 -0.5996  0.5654
12044TIP3    H257548   0.252   4.431   1.067 -0.6283 -0.7558 -0.1230
12045TIP3   OH257549   3.789   6.182   0.079 -0.2012  0.6240  0.0669
12045TIP3    H157550   3.811   6.103   0.030 -0.8989 -0.5765  1.6155
12045TIP3    H257551   3.739   6.235   0.017  0.2322 -0.1581 -0.9762
12046TIP3   OH257552   3.925   4.594  15.770  0.6235  0.4522 -0.3101
12046TIP3    H157553   3.898   4.662  15.708 -3.8224  0.3500  1.1714
12046TIP3    H257554   3.911   4.512  15.724  0.6509  0.4322 -0.2826
12047TIP3   OH257555   5.854   4.945  15.133  0.2568  0.3658 -0.1363
12047TIP3    H157556   5.836   4.859  15.172  0.2781  0.6183  0.4428
12047TIP3    H257557   5.794   4.951  15.060 -0.1602  0.1002  0.1788
12048TIP3   OH257558   1.640   1.414   1.969 -0.1216  0.2109  0.1070
12048TIP3    H157559   1.556   1.407   1.924  0.6814 -0.2872 -1.3995
12048TIP3    H257560   1.656   1.326   2.004  0.5412 -0.1595 -1.0894
12049TIP3   OH257561   0.526   2.901  11.499 -0.0290  0.3646  0.2351
12049TIP3    H157562   0.582   2.954  11.442  0.5960 -0.7154 -0.1957
12049TIP3    H257563   0.465   2.859  11.439 -0.0779  0.0740  0.4876
12050TIP3   OH257564   4.978   6.430   5.883  0.2879 -0.4126 -0.1216
12050TIP3    H157565   4.917   6.503   5.889  0.7163 -0.0784  0.2082
12050TIP3    H257566   4.953   6.373   5.956 -0.3934 -0.8706 -0.7002
12051TIP3   OH257567   0.861   0.724   4.678 -0.4474 -0.2910  0.2087
12051TIP3    H157568   0.941   0.727   4.626  0.8289 -1.7559  1.9381
12051TIP3    H257569   0.890   0.698   4.766 -2.3408  3.0639  2.0294
12052TIP3   OH257570   2.932   4.085  11.954  0.3743  0.3840  0.0548
12052TIP3    H157571   2.943   4.173  11.920  0.4220  0.7519  0.9974
12052TIP3    H257572   2.910   4.032  11.878 -2.5525  1.7147 -0.1528
12053TIP3   OH257573   4.423   4.797  12.764 -0.1956 -0.0915 -0.2172
12053TIP3    H157574   4.364   4.811  12.838 -0.3938 -1.7393 -0.0223
12053TIP3    H257575   4.370   4.748  12.701  0.5293 -0.3262 -0.6487
12054TIP3   OH257576   0.230   5.595  15.209  0.3514 -0.1431 -0.1530
12054TIP3    H157577   0.156   5.536  15.195  0.7591 -1.3017  2.0558
12054TIP3    H257578   0.196   5.682  15.191 -1.4673 -0.6773  0.5116
12055TIP3   OH257579   5.832   2.757   2.881  0.0727  0.2555 -0.7291
12055TIP3    H157580   5.786   2.822   2.828 -1.2217  0.5831  0.7231
12055TIP3    H257581   5.773   2.683   2.886  0.1971  0.2030  0.1660
12056TIP3   OH257582   3.153   6.076  15.622 -0.0825  0.5744 -0.0945
12056TIP3    H157583   3.227   6.066  15.562  0.1249  2.0627 -0.1215
12056TIP3    H257584   3.191   6.118  15.700 -1.0986  2.7482 -0.6786
12057TIP3   OH257585   3.289   6.112   5.630  0.4211  0.2388  0.0461
12057TIP3    H157586   3.301   6.124   5.535 -0.2852  1.7678  0.1233
12057TIP3    H257587   3.231   6.036   5.637  0.9135 -0.2239 -0.7255
12058TIP3   OH257588   6.712   6.413  12.068  0.0362  0.0489 -0.4109
12058TIP3    H157589   6.660   6.357  12.126  0.3239 -0.3751 -0.5587
12058TIP3    H257590   6.758   6.352  12.011  1.2473  0.3809  0.1766
12059TIP3   OH257591   6.368   1.752   4.736 -0.5700 -0.5495 -0.0058
12059TIP3    H157592   6.460   1.751   4.760  0.0609 -0.9582 -2.2329
12059TIP3    H257593   6.351   1.841   4.706 -0.4513 -0.8700 -1.0740
12060TIP3   OH257594   3.241   3.348  15.917 -0.5295 -0.0308  0.8296
12060TIP3    H157595   3.317   3.325  15.863  0.3594  1.4041  1.4245
12060TIP3    H257596   3.278   3.364  16.004 -2.0149 -2.9304  2.1249
12061TIP3   OH257597   2.115   4.858  14.538 -0.0228  0.3060 -0.4452
12061TIP3    H157598   2.110   4.936  14.483 -0.0882 -0.0476 -0.9501
12061TIP3    H257599   2.035   4.810  14.518  1.3389 -1.3048 -2.3171
12062TIP3   OH257600   3.253   4.516  13.465  0.0059  0.3998 -0.2953
12062TIP3    H157601   3.302   4.503  13.547 -1.5696 -0.2388  0.6043
12062TIP3    H257602   3.237   4.611  13.462  1.4061  0.6422 -0.6973
12063TIP3   OH257603   5.587   1.088  15.768  0.7492  0.3541 -0.0408
12063TIP3    H157604   5.568   1.178  15.795  0.4662  0.1790  0.3417
12063TIP3    H257605   5.669   1.067  15.813  1.1906  0.6596 -0.6806
12064TIP3   OH257606   0.546   0.572   6.509  0.1622 -0.6695 -0.1130
12064TIP3    H157607   0.457   0.586   6.541  0.3484  0.3222  0.0032
12064TIP3    H257608   0.563   0.646   6.452  1.0746 -0.6124  0.2118
12065TIP3   OH257609   0.965   4.844  17.066 -0.1912 -0.1299 -0.1199
12065TIP3    H157610   0.976   4.763  17.116 -2.3885 -0.7092 -0.4756
12065TIP3    H257611   0.870   4.854  17.058 -0.0330  3.0754  0.8510
12066TIP3   OH257612   2.778   1.536  14.804 -0.1000 -0.4870 -0.3493
12066TIP3    H157613   2.869   1.512  14.786  0.2967  1.4326 -1.1097
12066TIP3    H257614   2.769   1.529  14.899  0.8214 -0.7209 -0.2745
12067TIP3   OH257615   1.626   6.289   5.008 -0.5561 -0.1582 -0.2375
12067TIP3    H157616   1.541   6.321   5.039 -0.6920 -1.1266  0.4128
12067TIP3    H257617   1.616   6.194   5.002  0.5881 -0.3297  0.1998
12068TIP3   OH257618   0.619   5.077  15.769 -0.2381 -0.0522  0.0270
12068TIP3    H157619   0.654   5.148  15.822 -1.4506  1.3946 -1.0512
12068TIP3    H257620   0.592   5.011  15.833 -0.6993  1.1895  1.1549
12069TIP3   OH257621   1.044   3.031  15.455 -0.2320  0.6407  0.0838
12069TIP3    H157622   0.981   3.034  15.527 -1.5428  0.1513 -0.9924
12069TIP3    H257623   1.083   3.118  15.454 -0.0624  0.6003  1.4793
12070TIP3   OH257624   1.295   6.647  16.556  0.3373 -0.1938  0.3379
12070TIP3    H157625   1.240   6.580  16.515 -0.5568 -0.5284  2.0295
12070TIP3    H257626   1.332   6.605  16.633  2.0628  0.4043 -0.0980
12071TIP3   OH257627   2.406   3.873  16.150  0.0609  0.2224 -0.0361
12071TIP3    H157628   2.465   3.881  16.225 -0.1270  1.4160  0.0003
12071TIP3    H257629   2.409   3.959  16.108 -2.2293  0.5634  0.3898
12072TIP3   OH257630   4.194   4.179   5.981 -0.5227  0.1581  0.1865
12072TIP3    H157631   4.245   4.134   6.048  0.5240  0.3843 -0.4364
12072TIP3    H257632   4.105   4.185   6.017 -0.2939 -0.9516  0.9515
12073TIP3   OH257633   0.161   2.683  15.620  0.2372 -0.4936 -0.1114
12073TIP3    H157634   0.138   2.605  15.672 -1.0552 -1.0690 -1.4795
12073TIP3    H257635   0.129   2.756  15.673 -0.6177 -1.0371  0.1531
12074TIP3   OH257636   1.019   0.331   4.904  0.0503 -0.0303 -0.3131
12074TIP3    H157637   1.060   0.282   4.833  0.1249 -0.6036  0.1151
12074TIP3    H257638   1.054   0.419   4.896 -1.5953  0.4950 -2.3182
12075TIP3   OH257639   6.692   1.562  12.009 -0.2367  0.3131 -0.4280
12075TIP3    H157640   6.617   1.605  12.052  0.5835  1.2516  0.1029
12075TIP3    H257641   6.662   1.547  11.920 -0.8440  1.2999 -0.4156
12076TIP3   OH257642   5.158   0.174   2.400  0.2171 -0.8320 -0.1778
12076TIP3    H157643   5.180   0.083   2.378  0.7356 -0.5165 -1.0217
12076TIP3    H257644   5.085   0.167   2.461  0.6799 -1.8375  0.2866
12077TIP3   OH257645   0.068   6.602  17.199  0.3105 -0.2658  0.0548
12077TIP3    H157646   0.050   6.649  17.281 -0.4899 -0.3274 -0.0788
12077TIP3    H257647   0.159   6.624  17.179  0.2977  0.3198  0.5902
12078TIP3   OH257648   0.992   5.903  12.626 -0.1397 -0.5991 -0.5207
12078TIP3    H157649   0.901   5.883  12.606 -0.0301 -0.9347 -0.6905
12078TIP3    H257650   1.041   5.876  12.548  0.1759 -0.9984 -0.1936
12079TIP3   OH257651   3.265   1.190  11.195  0.1637 -0.1881  0.0169
12079TIP3    H157652   3.292   1.228  11.112  0.2705 -0.3517 -0.0249
12079TIP3    H257653   3.298   1.100  11.192 -2.5754 -1.2394 -1.0988
12080TIP3   OH257654   4.211   5.291   4.528  0.6188  0.1811 -0.1007
12080TIP3    H157655   4.131   5.293   4.476  0.9643  1.3616 -0.6069
12080TIP3    H257656   4.281   5.286   4.464  1.0188  1.0604  0.2534
12081TIP3   OH257657   6.060   0.381  11.836  0.3809 -0.3660 -0.2471
12081TIP3    H157658   6.147   0.362  11.872  0.1752 -1.5994 -0.3741
12081TIP3    H257659   5.999   0.358  11.906  0.0932 -0.7520 -0.6161
12082TIP3   OH257660   2.177   5.055  12.047 -0.2302  0.5066  0.0043
12082TIP3    H157661   2.220   5.124  11.995 -0.7801  1.6025  0.9699
12082TIP3    H257662   2.086   5.056  12.019 -0.0401 -0.5713 -0.7266
12083TIP3   OH257663   3.860   1.889   1.818  0.2328 -0.7178  0.3620
12083TIP3    H157664   3.898   1.971   1.784 -0.0115 -0.9671 -0.5488
12083TIP3    H257665   3.802   1.917   1.888 -0.6411  0.0075 -0.6107
12084TIP3   OH257666   1.726   4.420   1.431 -0.1273  0.2768 -0.2566
12084TIP3    H157667   1.670   4.496   1.448 -0.0393  0.3154 -0.1413
12084TIP3    H257668   1.690   4.382   1.351 -1.7981 -1.0714  1.0556
12085TIP3   OH257669   2.127   5.308   1.894  0.1881  0.4470  0.2459
12085TIP3    H157670   2.189   5.364   1.941  1.3604 -0.3432 -0.3049
12085TIP3    H257671   2.182   5.241   1.854 -0.8051  0.8720 -1.9476
12086TIP3   OH257672   2.761   6.382   4.678  0.2198  0.3852  0.2864
12086TIP3    H157673   2.745   6.393   4.585 -0.9560  2.0518  0.6256
12086TIP3    H257674   2.856   6.377   4.687  0.4920  2.4759 -0.8352
12087TIP3   OH257675   4.679   3.913   1.058  0.0201  0.1798 -0.1471
12087TIP3    H157676   4.673   3.959   0.974  1.6868  3.8549  1.5390
12087TIP3    H257677   4.589   3.892   1.080 -0.8034  2.1496 -1.3670
12088TIP3   OH257678   0.692   3.951   0.225 -0.8895  0.0725 -0.1397
12088TIP3    H157679   0.682   3.864   0.186  0.2853  0.0287 -0.3656
12088TIP3    H257680   0.608   3.967   0.268 -2.0676 -0.0944 -2.2336
12089TIP3   OH257681   6.622   2.975   6.404 -0.0739 -0.0706 -0.7304
12089TIP3    H157682   6.655   2.922   6.476 -1.1449 -0.5788 -0.5973
12089TIP3    H257683   6.698   3.025   6.374  1.1274 -2.1543 -1.3065
12090TIP3   OH257684   0.062   2.357   4.184  0.8610  0.2969 -0.7480
12090TIP3    H157685  -0.012   2.373   4.124 -0.4142 -3.9980 -0.6826
12090TIP3    H257686   0.136   2.338   4.126 -0.0921 -2.7154 -1.1666
12091TIP3   OH257687   4.474   3.150  11.709  0.2483 -0.1741  1.0033
12091TIP3    H157688   4.454   3.088  11.638  0.8757  0.1641  0.5260
12091TIP3    H257689   4.555   3.116  11.748  1.2780  1.0038 -0.0465
12092TIP3   OH257690   5.259   0.934  16.986  0.4879 -0.5695  0.8187
12092TIP3    H157691   5.247   0.845  17.019  1.2859 -0.1735  2.2970
12092TIP3    H257692   5.349   0.956  17.010  0.6423  0.2820 -0.4444
12093TIP3   OH257693   4.156   4.121   4.697  0.2920 -0.0715 -0.2271
12093TIP3    H157694   4.145   4.056   4.628  1.2096  2.0451 -2.5361
12093TIP3    H257695   4.152   4.071   4.779 -2.0566 -2.5690 -1.6958
12094TIP3   OH257696   4.379   4.454  11.563  0.3307 -0.1627  0.0496
12094TIP3    H157697   4.372   4.469  11.657 -0.4535 -0.3049  0.0168
12094TIP3    H257698   4.469   4.481  11.541  0.4223  0.1462  0.7818
12095TIP3   OH257699   3.531   3.948   4.824  0.1638  0.0325 -1.0609
12095TIP3    H157700   3.495   4.033   4.800 -0.7261 -0.5250 -1.7143
12095TIP3    H257701   3.589   3.968   4.898 -1.4459  0.9547  0.0248
12096TIP3   OH257702   2.406   1.358   2.454  0.0607  0.0507  0.5523
12096TIP3    H157703   2.412   1.291   2.522 -2.3187 -1.5173 -0.6131
12096TIP3    H257704   2.408   1.309   2.371 -1.5022  1.3906 -0.3495
12097TIP3   OH257705   1.827   3.902   3.299 -0.4467 -0.1864  0.0456
12097TIP3    H157706   1.909   3.852   3.291  0.0598  0.7043 -0.5040
12097TIP3    H257707   1.762   3.837   3.324  0.3774 -0.9656  0.2306
12098TIP3   OH257708   2.473   0.949   1.018 -0.0280 -0.3325  0.1941
12098TIP3    H157709   2.481   0.994   0.934 -0.2802 -0.2011  0.2391
12098TIP3    H257710   2.383   0.917   1.020  0.4602 -1.8420 -0.3305
12099TIP3   OH257711   2.061   6.641  13.815  0.3492 -0.5411  0.2865
12099TIP3    H157712   2.093   6.610  13.899 -2.0319  1.1566  1.9487
12099TIP3    H257713   1.965   6.645  13.825 -0.0189 -0.0923 -2.4430
12100TIP3   OH257714   1.634   0.959  11.476 -0.8682  0.8829  0.1691
12100TIP3    H157715   1.619   0.867  11.456 -0.8510  0.7916  0.5856
12100TIP3    H257716   1.705   0.959  11.540  0.5044  1.2773 -1.2951
12101TIP3   OH257717   6.517   0.835   4.952  0.0964  0.2690 -0.3068
12101TIP3    H157718   6.553   0.918   4.984 -2.2395  0.0768  3.2896
12101TIP3    H257719   6.428   0.857   4.925 -0.4066 -0.9718  0.2858
12102TIP3   OH257720   5.048   0.462  12.209  0.2334  0.1020  0.3582
12102TIP3    H157721   5.026   0.522  12.138  1.8045  1.4373  0.9476
12102TIP3    H257722   5.084   0.385  12.165 -2.0885 -0.6243 -0.4243
12103TIP3   OH257723   4.021   6.727  11.670  0.3232 -0.0967  0.1692
12103TIP3    H157724   4.115   6.713  11.662  0.5944  0.6680  1.6253
12103TIP3    H257725   4.008   6.754  11.761 -1.3784 -0.6918  0.1494
12104TIP3   OH257726   3.044   2.859   5.395 -0.1483 -0.3294  0.1445
12104TIP3    H157727   3.017   2.933   5.341 -0.6878 -0.3995  0.3107
12104TIP3    H257728   2.962   2.822   5.429  0.2008  0.4206  1.9428
12105TIP3   OH257729   0.134   4.300  17.020  0.0935 -0.3125  0.1331
12105TIP3    H157730   0.223   4.330  17.038  0.4106 -0.9503 -0.3334
12105TIP3    H257731   0.126   4.218  17.069  0.3626 -1.1543 -1.1872
12106TIP3   OH257732   2.939   0.127   1.837 -0.0365  0.2871 -0.0961
12106TIP3    H157733   2.992   0.199   1.871  0.5082 -0.1373 -0.0184
12106TIP3    H257734   2.941   0.061   1.907  0.6450 -0.3713 -0.7062
12107TIP3   OH257735   5.880   4.707   4.136 -0.1170 -0.0529  0.8395
12107TIP3    H157736   5.845   4.796   4.128  0.7928  0.2664  0.1421
12107TIP3    H257737   5.880   4.689   4.230 -0.5327  0.5984  0.9661
12108TIP3   OH257738   3.056   6.623  12.997  0.1377  0.0607  0.7517
12108TIP3    H157739   3.005   6.554  12.954  0.5669  0.0945  0.1735
12108TIP3    H257740   3.123   6.576  13.047  2.0147  0.0510 -1.6085
12109TIP3   OH257741   0.501   3.195  15.123 -0.0925  0.6417 -0.1565
12109TIP3    H157742   0.499   3.177  15.217 -0.9012 -0.2139 -0.3256
12109TIP3    H257743   0.414   3.172  15.092  0.9092 -1.6088 -1.5628
12110TIP3   OH257744   2.947   1.248  15.011 -0.1186 -0.3529  0.1277
12110TIP3    H157745   2.858   1.214  15.018  0.3395 -1.9789 -1.3308
12110TIP3    H257746   3.003   1.170  15.013  1.2880  0.6357  1.0387
12111TIP3   OH257747   3.747   2.894  10.786  0.6012  0.3190 -0.6074
12111TIP3    H157748   3.661   2.855  10.773 -0.3674  1.8213  0.9193
12111TIP3    H257749   3.741   2.980  10.745  1.0895  0.7729  0.2619
12112TIP3   OH257750   3.273   3.653   4.435 -0.3866  0.6731 -0.0113
12112TIP3    H157751   3.181   3.629   4.442 -0.1131 -0.5936 -0.4527
12112TIP3    H257752   3.278   3.742   4.469 -1.6156  0.4227  0.8658
12113TIP3   OH257753   4.219   4.178  17.020  0.6282  0.6113  0.0256
12113TIP3    H157754   4.241   4.167  17.113  2.2576  1.6071 -0.2118
12113TIP3    H257755   4.292   4.137  16.973  0.0129  0.4648 -0.8294
12114TIP3   OH257756   5.459   1.653  15.256  0.5716 -0.0144 -0.0814
12114TIP3    H157757   5.484   1.665  15.348 -1.1340  0.0001  0.4227
12114TIP3    H257758   5.372   1.613  15.261  0.2580  0.4210 -1.6995
12115TIP3   OH257759   6.054   4.320  16.570 -0.6182 -0.2177  0.2146
12115TIP3    H157760   6.056   4.236  16.616 -1.8025 -0.5276 -0.2530
12115TIP3    H257761   5.998   4.304  16.494  1.3769  0.2429 -1.4316
12116TIP3   OH257762   6.324   0.863   3.703  0.0977  0.1916  0.1184
12116TIP3    H157763   6.320   0.810   3.624  0.8373 -0.2455  0.3604
12116TIP3    H257764   6.268   0.817   3.766  0.1353  0.1057  0.0896
12117TIP3   OH257765   6.756   0.464   1.484 -0.1195  0.0497 -0.0330
12117TIP3    H157766   6.690   0.397   1.468 -0.6467  0.2757  1.1077
12117TIP3    H257767   6.723   0.514   1.559  1.2334  0.2961  0.4370
12118TIP3   OH257768   6.302   1.741  12.856  0.8263  0.8243 -0.5178
12118TIP3    H157769   6.230   1.776  12.803  0.8070  0.7103 -0.5684
12118TIP3    H257770   6.315   1.806  12.925  0.8878  1.0019 -0.6939
12119TIP3   OH257771   6.271   3.655  13.301  0.2420  0.0508 -0.0124
12119TIP3    H157772   6.315   3.635  13.219  3.1220 -0.9919  1.6427
12119TIP3    H257773   6.215   3.579  13.318  0.3856 -0.1718 -0.5263
12120TIP3   OH257774   5.898   0.269   5.552 -0.0667 -0.2048 -0.1580
12120TIP3    H157775   5.969   0.208   5.573  0.5360  0.6290  0.3184
12120TIP3    H257776   5.916   0.345   5.608 -0.1744  0.8469 -1.5120
12121TIP3   OH257777   3.466   3.111  12.062 -0.2236  0.0356  0.0958
12121TIP3    H157778   3.412   3.033  12.058  0.5522 -0.4713 -1.0273
12121TIP3    H257779   3.486   3.121  12.155 -1.6676 -0.1393  0.4472
12122TIP3   OH257780   0.992   4.863   2.008  0.0462 -0.1060 -0.0780
12122TIP3    H157781   0.898   4.848   2.013  0.1428 -0.9974 -0.7342
12122TIP3    H257782   1.005   4.946   2.054 -0.8696 -0.6690  1.2582
12123TIP3   OH257783   2.289   0.282   0.878 -0.6681 -0.0331 -0.4779
12123TIP3    H157784   2.208   0.306   0.831 -0.0050 -1.2650 -2.3546
12123TIP3    H257785   2.299   0.352   0.943 -1.2701  2.2518 -2.6418
12124TIP3   OH257786   2.102   0.184   1.732 -0.1040 -0.0732 -0.1689
12124TIP3    H157787   2.037   0.247   1.762  1.1851  2.1446 -1.7301
12124TIP3    H257788   2.171   0.238   1.693  0.9141 -2.4827 -1.9395
12125TIP3   OH257789   0.086   3.033   1.298  0.0613  0.4375  0.1792
12125TIP3    H157790   0.047   2.945   1.301 -0.8034  0.8253  1.1149
12125TIP3    H257791   0.180   3.017   1.296 -0.0108 -0.5421  1.8000
12126TIP3   OH257792   1.519   4.724  16.676 -0.5927 -0.4012 -0.0788
12126TIP3    H157793   1.495   4.712  16.768  1.0135 -0.8478  0.3156
12126TIP3    H257794   1.556   4.640  16.650  1.7186  0.5956 -0.2209
12127TIP3   OH257795   5.686   1.788  14.011 -0.5239 -0.4598 -1.0539
12127TIP3    H157796   5.596   1.798  13.983 -1.4460 -1.2416  1.3205
12127TIP3    H257797   5.685   1.710  14.067  1.2286  0.5016  0.4322
12128TIP3   OH257798   3.544   6.730   5.159 -0.1311  0.0606  0.0657
12128TIP3    H157799   3.489   6.732   5.238  0.1724 -0.3044  0.2870
12128TIP3    H257800   3.482   6.711   5.089 -0.0666 -2.3643  0.5518
12129TIP3   OH257801   6.404   3.812  16.600  0.0919 -0.5814  0.0020
12129TIP3    H157802   6.340   3.853  16.542  2.4399  0.9677 -1.6818
12129TIP3    H257803   6.404   3.867  16.678 -0.6095 -0.6326  0.0505
12130TIP3   OH257804   4.307   2.383   3.886 -0.3811  0.6532 -0.2402
12130TIP3    H157805   4.376   2.367   3.950 -1.9234  1.6305  1.7877
12130TIP3    H257806   4.279   2.295   3.859  0.1570  0.2119  0.6092
12131TIP3   OH257807   0.387   0.254   1.228 -0.0704 -0.5142  0.0197
12131TIP3    H157808   0.330   0.293   1.294  0.1957 -0.1406  0.0301
12131TIP3    H257809   0.361   0.297   1.146  0.5363  0.0256  0.1047
12132TIP3   OH257810   3.509   3.312   4.992  0.5448 -0.4942 -0.1889
12132TIP3    H157811   3.487   3.312   4.899 -1.5450 -1.2857  0.2374
12132TIP3    H257812   3.574   3.243   5.002  1.1387 -0.0798 -1.1197
12133TIP3   OH257813   4.302   4.616  13.506  0.8422 -0.2570  0.0603
12133TIP3    H157814   4.347   4.538  13.473  0.3528  0.3998 -2.3490
12133TIP3    H257815   4.209   4.595  13.497  0.6995  0.7341 -1.1071
12134TIP3   OH257816   4.852   6.745  11.156 -0.1316  0.1634 -0.2833
12134TIP3    H157817   4.810   6.809  11.098 -0.0682 -0.3048 -0.8541
12134TIP3    H257818   4.862   6.667  11.101 -0.2417 -0.3462  0.4182
12135TIP3   OH257819   5.056   1.326   4.727 -0.4754  0.1590 -0.2738
12135TIP3    H157820   5.071   1.290   4.814 -1.3745 -2.0120 -0.9468
12135TIP3    H257821   4.961   1.335   4.720 -0.3714  1.0117 -0.7919
12136TIP3   OH257822   4.566   0.745   4.611 -0.6952 -0.1447 -0.1765
12136TIP3    H157823   4.615   0.765   4.531 -2.7094  0.2252 -1.4052
12136TIP3    H257824   4.549   0.831   4.651 -2.7090  0.0434 -1.3048
12137TIP3   OH257825   3.178   3.153  11.550  0.3399 -0.2361  0.5556
12137TIP3    H157826   3.237   3.131  11.621  1.5258  0.5549 -0.1612
12137TIP3    H257827   3.095   3.175  11.594  0.3160 -2.0496  1.5209
12138TIP3   OH257828   1.313   0.973  12.652  0.1373  0.0476 -0.3315
12138TIP3    H157829   1.392   0.919  12.655  1.3038  1.5007 -2.3708
12138TIP3    H257830   1.241   0.910  12.647  1.1938 -1.2973  0.7057
12139TIP3   OH257831   1.349   3.723   2.768  0.2806 -0.3859  0.0340
12139TIP3    H157832   1.426   3.776   2.744 -1.3415  2.0264 -0.2567
12139TIP3    H257833   1.275   3.781   2.750 -1.6525 -2.7809 -0.1259
12140TIP3   OH257834   5.848   6.521  17.099 -0.3763  0.4849 -0.3479
12140TIP3    H157835   5.819   6.435  17.130 -0.0434  1.3653  2.6561
12140TIP3    H257836   5.852   6.511  17.004  0.2170 -2.9962 -0.0942
12141TIP3   OH257837   1.398   6.125   5.338 -0.3950 -0.0943  0.2773
12141TIP3    H157838   1.372   6.180   5.412  1.9539  0.0432  1.0891
12141TIP3    H257839   1.428   6.044   5.379  1.6178  0.2456 -0.3993
12142TIP3   OH257840   4.239   1.235  17.179 -0.0868 -0.2321 -0.2892
12142TIP3    H157841   4.332   1.256  17.191 -0.5143  1.3912  0.3886
12142TIP3    H257842   4.211   1.200  17.263 -0.4636  0.8288  0.0417
12143TIP3   OH257843   3.164   2.711   0.941  0.1126  0.2336 -0.0134
12143TIP3    H157844   3.153   2.663   0.859  0.4950  0.9072 -0.4680
12143TIP3    H257845   3.088   2.687   0.993 -0.0758 -0.2921 -0.5211
12144TIP3   OH257846   2.809   0.000  13.029  1.1093 -0.1146  0.4861
12144TIP3    H157847   2.884  -0.056  13.050  0.8210  0.0143  2.0196
12144TIP3    H257848   2.817   0.018  12.936  2.3500 -1.0319  0.3948
12145TIP3   OH257849   6.714   3.307  17.135 -0.6166 -0.2148  0.1042
12145TIP3    H157850   6.673   3.388  17.105 -0.0910 -0.0183 -0.1096
12145TIP3    H257851   6.642   3.248  17.154 -0.9880  0.1198 -0.2614
12146TIP3   OH257852   1.982   4.780   0.726  0.1628  0.0345  0.7868
12146TIP3    H157853   1.923   4.706   0.738 -0.3019 -0.0501 -1.5496
12146TIP3    H257854   1.926   4.857   0.734  0.9874  0.3957  5.3222
12147TIP3   OH257855   3.737   0.062  15.476 -0.0235  0.2919 -0.1017
12147TIP3    H157856   3.701   0.134  15.424 -2.2762  0.8010  1.9451
12147TIP3    H257857   3.674  -0.010  15.465  0.5117 -0.2632  0.3546
12148TIP3   OH257858   4.031   6.523  15.425 -0.8282 -0.1797 -0.8324
12148TIP3    H157859   4.057   6.593  15.484 -0.5977 -0.0043 -1.1381
12148TIP3    H257860   4.093   6.528  15.352 -0.5081 -1.0129 -0.6296
12149TIP3   OH257861   5.455   1.044   2.596  0.3278 -0.4318  0.1405
12149TIP3    H157862   5.383   1.005   2.645 -0.8390 -0.2679 -1.4068
12149TIP3    H257863   5.414   1.109   2.539  1.9441  1.3233  0.8445
12150TIP3   OH257864   1.725   2.742  12.249 -0.1657  0.4254 -0.2262
12150TIP3    H157865   1.762   2.661  12.283 -1.6588  0.2295  1.0259
12150TIP3    H257866   1.770   2.812  12.297 -0.4651  0.2473  0.3168
12151TIP3   OH257867   0.046   3.800   5.974  0.0158 -0.0882  0.8888
12151TIP3    H157868   0.094   3.882   5.960  0.3045 -0.5192 -0.8042
12151TIP3    H257869  -0.027   3.804   5.912  0.3484 -1.3450  0.3868
12152TIP3   OH257870   2.949   4.369  11.918 -0.0799  0.3262 -0.1828
12152TIP3    H157871   2.874   4.374  11.859  0.8634  2.8546 -1.2599
12152TIP3    H257872   3.025   4.386  11.863  1.0738  0.2510  1.3156
12153TIP3   OH257873   3.681   3.916   1.819 -0.2105 -0.4855 -0.1621
12153TIP3    H157874   3.718   3.834   1.850  0.6789 -0.6628 -1.5991
12153TIP3    H257875   3.752   3.980   1.829 -0.1800 -0.3725 -1.0171
12154TIP3   OH257876   3.766   5.314   4.247  0.6001 -0.3178 -0.6050
12154TIP3    H157877   3.701   5.373   4.207 -1.1104 -2.5470 -1.3253
12154TIP3    H257878   3.718   5.269   4.316  2.4083  0.4397  1.2559
12155TIP3   OH257879   5.638   3.640   1.845  0.1536  0.0882 -0.5322
12155TIP3    H157880   5.633   3.734   1.861 -1.9245 -0.1243  0.3747
12155TIP3    H257881   5.612   3.600   1.928  1.7720 -1.3500 -0.6489
12156TIP3   OH257882   5.545   2.180  15.624  0.0524  0.6370  0.1363
12156TIP3    H157883   5.477   2.246  15.637  2.1650  3.3155 -1.2000
12156TIP3    H257884   5.612   2.225  15.573  0.5564 -3.3413 -3.2936
12157TIP3   OH257885   4.857   5.854  13.808 -0.2995  0.4295 -0.0885
12157TIP3    H157886   4.849   5.760  13.791  0.2836  0.5619 -1.1733
12157TIP3    H257887   4.898   5.889  13.729 -1.1914  1.7129 -0.0076
12158TIP3   OH257888   2.986   6.498   0.908 -0.0866  0.2082  0.3785
12158TIP3    H157889   3.072   6.488   0.867 -0.1373  1.2293  0.0093
12158TIP3    H257890   2.924   6.465   0.843  0.1334 -2.7255  1.5146
12159TIP3   OH257891   1.847   3.064  15.142 -0.5628  0.5092  0.2072
12159TIP3    H157892   1.919   3.032  15.197  1.0339  1.5236 -1.1984
12159TIP3    H257893   1.878   3.148  15.109 -2.2578  0.7940 -0.7536
12160TIP3   OH257894   5.822   0.640   4.865 -0.2626  0.3648 -0.0990
12160TIP3    H157895   5.820   0.718   4.920  1.8446 -1.3385  2.6415
12160TIP3    H257896   5.789   0.570   4.921  2.4319 -1.5616 -0.7501
12161TIP3   OH257897   6.649   4.116  11.423 -0.0361 -0.6389 -0.0228
12161TIP3    H157898   6.727   4.118  11.478  0.5749 -2.5302 -0.7386
12161TIP3    H257899   6.600   4.194  11.448  1.1693 -0.3989  1.7744
12162TIP3   OH257900   2.249   2.368   3.238  0.1900  0.0135 -0.0790
12162TIP3    H157901   2.212   2.414   3.312 -1.5604 -0.2695 -0.7207
12162TIP3    H257902   2.323   2.319   3.274 -0.4423  0.1069  1.4165
12163TIP3   OH257903   0.234   1.827  11.886  0.1611 -0.1934  0.0990
12163TIP3    H157904   0.289   1.881  11.942  1.1904  1.6830 -2.5164
12163TIP3    H257905   0.158   1.882  11.866  0.2467 -0.4537 -1.0105
12164TIP3   OH257906   0.748   2.547   1.761 -0.6026  0.4598 -0.4742
12164TIP3    H157907   0.660   2.510   1.765 -0.3736 -0.0024  0.8759
12164TIP3    H257908   0.749   2.614   1.830  0.5630 -0.6498  0.6606
12165TIP3   OH257909   3.635   3.276   5.606  0.0499 -0.4303  0.3482
12165TIP3    H157910   3.644   3.275   5.702  0.8518  0.0561  0.2912
12165TIP3    H257911   3.554   3.325   5.590 -1.1271 -2.1293  0.8122
12166TIP3   OH257912   4.581   0.358   3.686  0.2626 -0.0199  0.3275
12166TIP3    H157913   4.553   0.389   3.772  0.2291  0.9879 -0.0242
12166TIP3    H257914   4.623   0.434   3.646  1.0331 -0.7252 -0.2231
12167TIP3   OH257915   1.652   1.530  14.197 -0.9673 -0.0772 -0.4806
12167TIP3    H157916   1.703   1.608  14.175 -0.9994  0.4199  1.0719
12167TIP3    H257917   1.709   1.457  14.174 -0.1984  0.4416 -0.2724
12168TIP3   OH257918   3.047   5.014  16.101 -0.1527 -0.1576  0.5027
12168TIP3    H157919   3.093   5.019  16.185 -1.1109 -1.7275  1.1559
12168TIP3    H257920   3.099   4.953  16.049  1.3671  2.0419 -0.7232
12169TIP3   OH257921   2.596   0.771   1.235 -0.2917  0.1668 -0.0111
12169TIP3    H157922   2.561   0.683   1.248  0.9899 -0.5651 -1.2416
12169TIP3    H257923   2.544   0.807   1.163 -0.0820 -0.0283 -0.2644
12170TIP3   OH257924   0.603   0.909  13.623  0.1546  0.1826 -0.4989
12170TIP3    H157925   0.534   0.968  13.655  0.0156  0.4077 -1.1964
12170TIP3    H257926   0.675   0.921  13.685 -0.5953 -0.4258  0.5371
12171TIP3   OH257927   3.335   3.218   3.794  0.3392  0.2422  0.8123
12171TIP3    H157928   3.310   3.126   3.787 -0.1742  0.4998 -1.9809
12171TIP3    H257929   3.307   3.244   3.882 -2.3758 -1.4776  0.5801
12172TIP3   OH257930   1.609   1.449   1.266 -0.7766  0.1411 -0.1133
12172TIP3    H157931   1.610   1.518   1.201  1.5313  1.0460  0.8029
12172TIP3    H257932   1.688   1.398   1.250 -2.1289 -2.0411 -0.4213
12173TIP3   OH257933   5.681   4.992  15.754  0.3421  0.3191 -0.5771
12173TIP3    H157934   5.647   5.081  15.767  1.3965  0.6556 -0.0132
12173TIP3    H257935   5.652   4.967  15.666  0.0262  1.2186 -0.7335
12174TIP3   OH257936   0.679   6.673   2.253 -0.4141  0.1362 -0.2002
12174TIP3    H157937   0.762   6.674   2.207 -0.9238  0.0651 -1.1355
12174TIP3    H257938   0.699   6.629   2.336  0.6534  0.8740 -0.0386
12175TIP3   OH257939   6.502   0.592   6.486  0.3783  0.0081  0.3161
12175TIP3    H157940   6.488   0.506   6.445  1.6513  0.4769 -1.1880
12175TIP3    H257941   6.465   0.655   6.425  0.5660  0.6125  0.8138
12176TIP3   OH257942   3.219   3.438  12.655 -0.7285 -0.7030 -0.4579
12176TIP3    H157943   3.163   3.500  12.607 -2.1925 -0.0873  1.8983
12176TIP3    H257944   3.247   3.486  12.733 -1.7655 -2.8695  1.3596
12177TIP3   OH257945   0.857   1.602   1.479  0.0494 -0.1261  0.4665
12177TIP3    H157946   0.832   1.573   1.567 -2.1209 -0.2897 -0.1445
12177TIP3    H257947   0.953   1.603   1.481  0.1905 -3.0109  1.9177
12178TIP3   OH257948   2.489   0.115  14.964 -0.1233  0.1977 -0.1383
12178TIP3    H157949   2.494   0.202  15.003  1.3758 -1.2265  3.2429
12178TIP3    H257950   2.535   0.124  14.880  0.2592  2.5489  0.2403
12179TIP3   OH257951   6.234   1.282  13.229 -0.0541  0.1644  0.4226
12179TIP3    H157952   6.211   1.343  13.159 -1.3038 -0.9598 -0.1952
12179TIP3    H257953   6.321   1.310  13.258 -0.1228  1.5369 -0.5842
12180TIP3   OH257954   4.342   4.123   5.043  0.3102  0.7054  0.3677
12180TIP3    H157955   4.397   4.048   5.065  0.1061  0.2842 -0.5079
12180TIP3    H257956   4.366   4.144   4.953 -0.6985  0.7379  0.0949
12181TIP3   OH257957   6.706   3.074   1.571 -0.1318 -0.0559 -0.2795
12181TIP3    H157958   6.753   3.028   1.641 -1.5242 -1.5994 -0.3117
12181TIP3    H257959   6.765   3.070   1.496 -0.0100 -1.3912 -0.1375
12182TIP3   OH257960   3.367   4.119   1.869  0.8094  0.2824 -0.5966
12182TIP3    H157961   3.408   4.125   1.956 -0.0663 -0.2747 -0.1311
12182TIP3    H257962   3.273   4.115   1.887  0.6531 -0.8590 -1.5154
12183TIP3   OH257963   1.397   2.307   2.707 -0.1845  0.6315  0.2756
12183TIP3    H157964   1.462   2.342   2.646 -1.6210  1.9441 -0.5880
12183TIP3    H257965   1.315   2.305   2.656 -0.5535 -2.5455  0.7840
12184TIP3   OH257966   0.118   1.449   1.876 -0.5787 -0.0155 -0.8727
12184TIP3    H157967   0.079   1.361   1.878  2.8994 -1.7276 -0.6557
12184TIP3    H257968   0.169   1.454   1.957  0.8082  1.4221 -1.7798
12185TIP3   OH257969   6.139   3.076  16.392 -0.5292 -0.4483 -0.0223
12185TIP3    H157970   6.222   3.115  16.367  0.0586  0.1028  2.5210
12185TIP3    H257971   6.155   3.039  16.479 -3.0646  0.1451  0.7875
12186TIP3   OH257972   3.558   3.307   3.671 -0.0878 -0.2015 -0.1937
12186TIP3    H157973   3.543   3.291   3.578 -0.1682  0.8975 -0.3846
12186TIP3    H257974   3.483   3.265   3.715 -0.1388 -0.5735 -0.6291
12187TIP3   OH257975   5.060   3.895   2.212  0.1243  0.0007  0.0458
12187TIP3    H157976   4.973   3.860   2.189 -0.5969  2.0431 -0.5673
12187TIP3    H257977   5.042   3.975   2.260  1.6545  0.9061 -0.8001
12188TIP3   OH257978   2.745   5.975   5.401 -0.0931  0.1991 -0.0222
12188TIP3    H157979   2.698   6.053   5.371  0.0279 -0.5575 -2.3477
12188TIP3    H257980   2.838   6.000   5.397 -0.0963  0.2895  0.3719
12189TIP3   OH257981   5.823   0.663   1.018  0.0970  0.4221  0.6169
12189TIP3    H157982   5.913   0.687   1.040 -0.5470  3.6262  0.2583
12189TIP3    H257983   5.770   0.699   1.089 -1.0396  0.1277 -0.0540
12190TIP3   OH257984   0.646   0.608   0.243 -0.5562 -0.5598 -0.4220
12190TIP3    H157985   0.578   0.636   0.182 -1.1230 -2.4416 -0.7144
12190TIP3    H257986   0.622   0.519   0.267  1.2118 -0.8821  0.3445
12191TIP3   OH257987   6.005   6.401  13.310  0.1353 -0.1628 -0.1602
12191TIP3    H157988   6.068   6.371  13.375  0.0785  0.8168  0.3756
12191TIP3    H257989   6.052   6.469  13.261 -0.5730  0.7822  0.4319
12192TIP3   OH257990   6.325   5.704   2.882  0.6412  0.2852 -0.3277
12192TIP3    H157991   6.356   5.654   2.806  2.3798  1.6879 -0.5946
12192TIP3    H257992   6.405   5.742   2.920 -0.0409 -1.0086  2.7185
12193TIP3   OH257993   1.418   0.364   0.253  0.3371  0.4473  0.5196
12193TIP3    H157994   1.438   0.351   0.160  2.0412 -0.3297  0.9456
12193TIP3    H257995   1.323   0.357   0.258  0.3533 -2.2949 -0.8011
12194TIP3   OH257996   2.991   3.623  13.115 -0.1613  0.6379 -0.1069
12194TIP3    H157997   3.055   3.554  13.130 -0.9864 -0.2010 -0.3400
12194TIP3    H257998   3.019   3.667  13.035  0.5334  0.7797  0.2068
12195TIP3   OH257999   6.323   2.507  13.236  0.1321 -0.5040 -0.0736
12195TIP3    H158000   6.416   2.492  13.218 -0.1442 -0.7691 -1.3718
12195TIP3    H258001   6.323   2.574  13.304  1.2778 -0.6774  0.1169
12196TIP3   OH258002   4.924   0.724   3.278 -0.0813 -0.4435 -0.3442
12196TIP3    H158003   4.894   0.645   3.323 -0.3148 -0.5222 -0.6369
12196TIP3    H258004   4.884   0.719   3.191 -1.4646  0.7990  0.1654
12197TIP3   OH258005   1.060   5.633   1.670 -0.0841  0.0332  0.2361
12197TIP3    H158006   1.087   5.655   1.580  0.4946 -0.9248  0.1560
12197TIP3    H258007   1.141   5.635   1.720 -0.3769  0.3598  0.6953
12198TIP3   OH258008   3.218   6.482   1.210  0.2669  0.3718 -0.1036
12198TIP3    H158009   3.265   6.520   1.283  0.6584  1.5578 -0.9517
12198TIP3    H258010   3.286   6.460   1.146  0.0913 -1.9656  0.3967
12199TIP3   OH258011   5.608   1.121  13.048 -0.4790  0.2420 -0.0417
12199TIP3    H158012   5.703   1.117  13.052 -0.5495 -0.4809  1.3530
12199TIP3    H258013   5.579   1.089  13.133 -1.9856  0.0193 -0.6139
12200TIP3   OH258014   3.802   0.828   4.546 -0.2338  0.2448  0.3315
12200TIP3    H158015   3.876   0.863   4.497 -0.1577  0.7538  0.7956
12200TIP3    H258016   3.777   0.749   4.499 -0.6953  1.1522 -1.0024
12201TIP3   OH258017   0.309   0.426  12.543  0.2939  0.2078 -0.0852
12201TIP3    H158018   0.307   0.435  12.638 -0.5577 -1.0445  0.0480
12201TIP3    H258019   0.339   0.511  12.511  0.6707  0.6195  1.3001
12202TIP3   OH258020   2.741   2.018   6.538  0.2131 -0.0351  0.1032
12202TIP3    H158021   2.732   2.068   6.619  1.7555 -1.5344  1.2640
12202TIP3    H258022   2.828   2.040   6.505 -0.3914  0.5487 -1.1847
12203TIP3   OH258023   4.300   5.047   5.252  0.3353  0.0916  0.8694
12203TIP3    H158024   4.291   4.966   5.300 -2.1770 -0.1975  0.0834
12203TIP3    H258025   4.215   5.091   5.262 -0.0331  0.4303 -2.4236
12204TIP3   OH258026   1.084   0.728  15.872 -0.2148  0.0298  0.3248
12204TIP3    H158027   1.047   0.812  15.845  0.6257  0.5744  0.8125
12204TIP3    H258028   1.019   0.663  15.845  0.6889  0.4550 -3.4304
12205TIP3   OH258029   3.091   1.660   2.549  0.1272  0.4676 -0.0670
12205TIP3    H158030   3.114   1.748   2.577  3.2083 -0.3582  0.3945
12205TIP3    H258031   3.000   1.648   2.577 -0.0128  3.0838  0.8053
12206TIP3   OH258032   5.436   2.318   5.212 -0.4887  0.4055 -0.6782
12206TIP3    H158033   5.410   2.254   5.146  1.5166 -0.4869 -0.6628
12206TIP3    H258034   5.423   2.403   5.170  0.4687 -0.1335 -2.1489
12207TIP3   OH258035   2.575   3.509  14.580  0.4296  0.1703  0.4082
12207TIP3    H158036   2.546   3.535  14.668 -1.3526  0.2899 -0.1859
12207TIP3    H258037   2.583   3.413  14.586  1.9020  0.2966  1.1128
12208TIP3   OH258038   5.944   0.146   2.834  0.3003 -0.6292  0.1270
12208TIP3    H158039   5.976   0.066   2.794 -1.9260 -2.0491  0.9610
12208TIP3    H258040   5.869   0.172   2.780  1.0522  1.0024 -0.2037
12209TIP3   OH258041   3.704   3.146  16.827  0.4451 -0.4932  0.4604
12209TIP3    H158042   3.773   3.204  16.794  1.7558 -1.7312  0.8895
12209TIP3    H258043   3.703   3.073  16.765 -2.1401  0.5606 -0.8565
12210TIP3   OH258044   4.553   0.067  12.780  0.7362  0.3064  0.1236
12210TIP3    H158045   4.459   0.082  12.793  0.7016  1.1835 -1.0226
12210TIP3    H258046   4.595   0.141  12.825  0.8243  0.5740 -0.3963
12211TIP3   OH258047   5.416   1.892  11.621 -0.5266 -0.0615  0.4758
12211TIP3    H158048   5.405   1.830  11.693 -1.3821  0.5306  0.8665
12211TIP3    H258049   5.366   1.854  11.549 -2.3294  0.8955  1.1785
12212TIP3   OH258050   1.676   3.168   2.163  0.0955  0.7307  0.4359
12212TIP3    H158051   1.760   3.135   2.195 -0.3610  0.2263  1.1507
12212TIP3    H258052   1.696   3.253   2.124  1.2055 -0.1087 -0.9058
12213TIP3   OH258053   5.653   1.058   2.244  0.0042 -0.4556  0.0956
12213TIP3    H158054   5.561   1.061   2.217  0.1913 -0.5317 -0.5735
12213TIP3    H258055   5.702   1.070   2.163  0.6037 -2.2511  0.1539
12214TIP3   OH258056   5.847   2.915   4.412 -0.7079 -0.4968 -0.5120
12214TIP3    H158057   5.922   2.871   4.372 -0.4653 -3.2384  2.5449
12214TIP3    H258058   5.885   2.995   4.451  0.1629 -0.7035 -0.9092
12215TIP3   OH258059   2.196   1.673   4.769  0.6230  0.6619  0.0131
12215TIP3    H158060   2.213   1.641   4.680 -0.3982  0.7851 -0.2430
12215TIP3    H258061   2.278   1.658   4.816  1.8617  2.4198 -1.4616
12216TIP3   OH258062   5.435   0.398  12.377  0.0071  0.4840 -0.0330
12216TIP3    H158063   5.380   0.326  12.406  1.6860 -0.2326  1.5494
12216TIP3    H258064   5.444   0.385  12.283  1.4040 -2.2812  0.3776
12217TIP3   OH258065   6.376   4.340   5.549 -0.2795  0.2344  0.1215
12217TIP3    H158066   6.294   4.328   5.501  1.3174 -0.4095 -2.6265
12217TIP3    H258067   6.369   4.429   5.585 -1.6545  0.7085 -1.1902
12218TIP3   OH258068   0.461   0.071   0.229 -0.3224  0.1167 -0.4142
12218TIP3    H158069   0.423  -0.001   0.280 -0.6622  1.1105  0.7920
12218TIP3    H258070   0.391   0.097   0.169 -0.6160  0.1740 -0.0566
12219TIP3   OH258071   4.970   6.645   1.195 -0.2501 -0.1870 -0.0115
12219TIP3    H158072   4.893   6.691   1.228 -0.1208  0.0426 -0.0302
12219TIP3    H258073   4.981   6.571   1.255 -2.1214 -1.8444 -1.5872
12220TIP3   OH258074   6.224   5.997   0.332  0.0956 -0.2095 -0.2268
12220TIP3    H158075   6.227   6.008   0.237  1.1201 -1.0850 -0.3114
12220TIP3    H258076   6.294   6.054   0.365  0.4888 -0.7681 -0.0896
12221TIP3   OH258077   5.646   5.230   1.662 -0.2565  0.2218 -0.5096
12221TIP3    H158078   5.584   5.292   1.700  1.2528  1.3506  0.2358
12221TIP3    H258079   5.673   5.175   1.735  1.5009  1.4040 -0.2104
12222TIP3   OH258080   0.054   3.338  11.905  0.3964 -0.0301  0.6012
12222TIP3    H158081   0.038   3.245  11.919  1.0780 -0.1010  0.9252
12222TIP3    H258082  -0.026   3.381  11.938 -0.6900 -0.5862 -1.1670
12223TIP3   OH258083   1.441   0.864   3.423 -0.1418  0.5385  0.3519
12223TIP3    H158084   1.364   0.919   3.431  0.7113  1.7045  0.9112
12223TIP3    H258085   1.411   0.776   3.444 -1.4089  0.8792  0.0418
12224TIP3   OH258086   4.843   5.293  13.156 -0.2106  0.2056 -0.4556
12224TIP3    H158087   4.844   5.237  13.078 -0.7725 -0.3260 -0.0919
12224TIP3    H258088   4.760   5.341  13.149  0.3540  1.1333 -0.8562
12225TIP3   OH258089   4.214   4.257   6.368  0.3719 -0.8093  0.0960
12225TIP3    H158090   4.207   4.281   6.460  0.8459 -0.1632 -0.0297
12225TIP3    H258091   4.124   4.237   6.341 -0.0802  0.9524  0.1779
12226TIP3   OH258092   2.717   6.564   4.187  0.3681 -0.2555  0.2592
12226TIP3    H158093   2.674   6.648   4.198  0.9605  0.2511 -1.1257
12226TIP3    H258094   2.807   6.585   4.162  1.0430 -1.2982  1.6515
12227TIP3   OH258095   3.818   0.911  10.763 -0.4882  0.4016  0.3662
12227TIP3    H158096   3.882   0.909  10.692  0.5703 -1.3958  1.2690
12227TIP3    H258097   3.787   1.001  10.767  0.1237  0.7454 -1.7290
12228TIP3   OH258098   3.174   2.048   0.456 -0.5576 -0.4274 -0.1941
12228TIP3    H158099   3.104   1.990   0.483  0.7272 -1.4375  1.1156
12228TIP3    H258100   3.192   2.024   0.365 -0.9665 -1.1179 -0.0965
12229TIP3   OH258101   4.758   5.891  12.587  0.1514 -0.2103 -0.0672
12229TIP3    H158102   4.671   5.880  12.625 -0.2933  1.1125 -0.6527
12229TIP3    H258103   4.749   5.964  12.527  1.5280 -0.4588 -0.6103
12230TIP3   OH258104   2.281   1.866   3.380  0.0674  0.7301  0.0169
12230TIP3    H158105   2.221   1.900   3.446 -0.4843  1.8293 -1.0090
12230TIP3    H258106   2.366   1.867   3.422 -0.3225  1.1195  0.8152
12231TIP3   OH258107   3.800   5.386   1.311 -0.3018 -0.1626  0.5028
12231TIP3    H158108   3.716   5.432   1.317  0.1903  0.7230  0.9062
12231TIP3    H258109   3.806   5.335   1.391 -1.5013 -2.1270 -0.5970
12232TIP3   OH258110   0.212   4.635   5.620  0.2276 -0.0217 -0.2702
12232TIP3    H158111   0.199   4.558   5.564  1.2448 -0.5746  0.2027
12232TIP3    H258112   0.307   4.648   5.620  0.2798 -0.1374  1.4160
12233TIP3   OH258113   2.954   6.362   5.501 -0.0781 -0.2587  0.4932
12233TIP3    H158114   2.974   6.301   5.430 -0.0693 -0.5586  0.7504
12233TIP3    H258115   2.935   6.445   5.457  0.9283 -0.1757  0.1845
12234TIP3   OH258116   1.027   4.347   0.430  0.1285 -0.2238  0.2213
12234TIP3    H158117   1.077   4.393   0.363 -1.0799  2.5397  1.0439
12234TIP3    H258118   0.936   4.355   0.402 -0.2348 -0.7788  1.1735
12235TIP3   OH258119   0.040   0.252  15.620  0.0135  0.4134  0.4493
12235TIP3    H158120   0.015   0.176  15.568 -1.1095  1.2303 -0.2484
12235TIP3    H258121  -0.005   0.241  15.704  2.2228 -1.1627  1.5458
12236TIP3   OH258122   3.103   2.258   0.817 -0.0149 -0.4867 -0.4387
12236TIP3    H158123   3.087   2.165   0.804 -1.7374 -0.0281 -1.9704
12236TIP3    H258124   3.193   2.271   0.787 -0.0733 -1.5067 -1.0883
12237TIP3   OH258125   1.939   4.352  12.181  0.3348 -0.1028  0.1588
12237TIP3    H158126   1.988   4.272  12.163  0.1523 -0.1976  0.0852
12237TIP3    H258127   1.981   4.389  12.260  1.1603  0.3324 -0.4604
12238TIP3   OH258128   5.435   0.482   3.037  0.2221 -0.4113 -0.1945
12238TIP3    H158129   5.340   0.475   3.048  0.2818 -0.1272  0.5818
12238TIP3    H258130   5.447   0.515   2.948 -0.4522  0.4277  0.0145
12239TIP3   OH258131   2.927   3.087   5.701 -0.8959  0.5126 -0.6096
12239TIP3    H158132   2.865   3.152   5.734 -1.8239  0.1666 -1.6153
12239TIP3    H258133   2.874   3.027   5.648 -0.3139 -1.8170  1.2504
12240TIP3   OH258134   0.869   3.578  14.840 -0.8375 -0.2623  0.8268
12240TIP3    H158135   0.963   3.575  14.820 -1.0371  0.1963 -0.2430
12240TIP3    H258136   0.858   3.661  14.886 -0.4496 -1.1221  2.5623
12241TIP3   OH258137   6.243   2.540   4.292 -0.4020  0.5345  0.9919
12241TIP3    H158138   6.235   2.600   4.366  1.4976  0.0027  1.6760
12241TIP3    H258139   6.270   2.595   4.219 -0.7969  0.8284  1.0655
12242TIP3   OH258140   1.896   1.675   5.474  0.1613 -0.0374  0.1499
12242TIP3    H158141   1.968   1.699   5.415  0.4179 -1.5949 -0.2157
12242TIP3    H258142   1.854   1.759   5.494  2.2467  0.9805  0.6380
12243TIP3   OH258143   2.239   2.696  16.574  0.0778  0.1961  0.0635
12243TIP3    H158144   2.144   2.690  16.584  0.1050  1.2441  1.3507
12243TIP3    H258145   2.252   2.778  16.526  0.3155 -0.3410 -0.8019
12244TIP3   OH258146   2.267   6.089   3.854  0.1819 -0.2880  0.1360
12244TIP3    H158147   2.274   5.996   3.875 -1.4887 -0.9059 -1.6873
12244TIP3    H258148   2.346   6.109   3.805  0.3616 -0.8730  0.1860
12245TIP3   OH258149   0.624   6.308   0.738 -0.1206  0.2293 -0.7784
12245TIP3    H158150   0.622   6.298   0.833  2.0636  1.7918 -0.5004
12245TIP3    H258151   0.693   6.248   0.709 -0.6430 -0.0913 -1.3769
12246TIP3   OH258152   6.353   5.615  13.624 -0.6562 -0.1226  0.4590
12246TIP3    H158153   6.430   5.580  13.579 -0.0594  0.4925  0.9702
12246TIP3    H258154   6.354   5.572  13.710 -1.6014 -1.0466  0.0297
12247TIP3   OH258155   5.179   6.682   2.338 -0.1699  0.6933 -0.5420
12247TIP3    H158156   5.187   6.677   2.243  0.0991  1.4872 -0.5753
12247TIP3    H258157   5.120   6.611   2.362 -0.1900  0.4527 -1.2972
12248TIP3   OH258158   0.494   6.546   0.717 -0.4200 -0.1283 -0.6216
12248TIP3    H158159   0.543   6.464   0.718 -0.0221  0.1138  0.1373
12248TIP3    H258160   0.495   6.576   0.807  0.6057  1.4127 -1.1103
12249TIP3   OH258161   1.280   5.630  12.413 -0.5811  0.5756  0.4440
12249TIP3    H158162   1.270   5.720  12.382  1.1580  0.3435 -0.9619
12249TIP3    H258163   1.334   5.638  12.492 -0.6882  0.7797  0.4983
12250TIP3   OH258164   4.948   1.148  11.603  0.0887  0.0493  0.3991
12250TIP3    H158165   5.004   1.211  11.557  2.5735 -2.0240  0.3260
12250TIP3    H258166   4.962   1.167  11.696 -1.7178  1.6020  0.4030
12251TIP3   OH258167   4.286   6.706  13.039 -0.0101  0.4637  0.0048
12251TIP3    H158168   4.199   6.683  13.005 -0.5943  0.9977  1.0814
12251TIP3    H258169   4.342   6.632  13.014 -0.5188  0.5787 -1.6075
12252TIP3   OH258170   4.532   4.998   5.027 -0.0396  0.1176  0.0032
12252TIP3    H158171   4.457   4.999   5.087  0.3645  0.1139  0.5135
12252TIP3    H258172   4.602   4.954   5.076 -0.2384 -1.5474 -1.1442
12253TIP3   OH258173   0.063   2.452   5.436  0.6173  0.2196  0.0985
12253TIP3    H158174  -0.001   2.456   5.507  0.6412  0.2026  0.1210
12253TIP3    H258175   0.144   2.425   5.479 -0.1680 -3.6150 -0.4111
12254TIP3   OH258176   1.269   4.958   3.742  0.7154  0.5324  0.9963
12254TIP3    H158177   1.250   5.037   3.792  0.6691  0.3513  1.2692
12254TIP3    H258178   1.262   4.985   3.650  0.4511  0.7826  1.0886
12255TIP3   OH258179   5.241   1.187  16.650 -0.1140 -0.2294 -0.1209
12255TIP3    H158180   5.230   1.095  16.675 -0.5321 -0.5250 -1.3107
12255TIP3    H258181   5.266   1.183  16.558  0.5497  0.8360  0.0017
12256TIP3   OH258182   0.453   2.115  11.801  0.6930  0.2502  0.0134
12256TIP3    H158183   0.454   2.208  11.779  0.8434 -0.0516 -1.3421
12256TIP3    H258184   0.519   2.076  11.745 -0.5839 -0.9329 -0.7382
12257TIP3   OH258185   1.423   2.365   0.300 -0.6178  0.1602  0.2302
12257TIP3    H158186   1.459   2.326   0.380 -2.8184 -1.3522  0.5686
12257TIP3    H258187   1.355   2.424   0.332 -1.1955 -0.1035 -0.5118
12258TIP3   OH258188   0.745   0.063  11.451 -0.1987 -0.4609  0.2518
12258TIP3    H158189   0.743   0.014  11.533  1.2126 -1.0350 -0.0068
12258TIP3    H258190   0.701   0.006  11.388 -2.0201  0.3415  0.7523
12259TIP3   OH258191   0.357   3.570  17.267  0.0997  0.7258 -0.1608
12259TIP3    H158192   0.345   3.655  17.223  0.7982  1.1588  0.4609
12259TIP3    H258193   0.283   3.565  17.328 -0.9940  0.0281 -1.4791
12260TIP3   OH258194   6.667   2.071  11.657  0.7408 -0.5569 -0.2158
12260TIP3    H158195   6.702   1.982  11.651  0.9068 -0.8978  3.3156
12260TIP3    H258196   6.744   2.128  11.648  1.3777 -1.0358  1.7594
12261TIP3   OH258197   1.863   5.523   5.524 -0.6529 -0.3524  0.2433
12261TIP3    H158198   1.951   5.559   5.538 -1.1221  1.0918 -0.3984
12261TIP3    H258199   1.822   5.582   5.461 -1.9445 -1.2627  0.1851
12262TIP3   OH258200   1.908   3.552  14.920 -0.1888 -0.3147 -0.6264
12262TIP3    H158201   1.985   3.595  14.959 -0.0311  0.0589 -1.3343
12262TIP3    H258202   1.844   3.622  14.910 -0.3693 -0.4873 -0.6924
12263TIP3   OH258203   0.610   1.030   4.269  0.0328 -0.3918 -0.0352
12263TIP3    H158204   0.678   1.041   4.203 -0.0473 -3.4157 -0.7726
12263TIP3    H258205   0.597   0.935   4.275 -4.1981 -0.0437 -0.0656
12264TIP3   OH258206   3.366   2.104   4.438 -0.5948 -0.1196 -0.0982
12264TIP3    H158207   3.297   2.171   4.438 -1.3505 -0.8799 -1.2818
12264TIP3    H258208   3.319   2.021   4.445  0.2983 -0.5826  0.5635
12265TIP3   OH258209   5.684   6.670  11.561  0.2599 -0.0592 -0.1146
12265TIP3    H158210   5.745   6.689  11.490 -1.7982 -0.3691 -2.0863
12265TIP3    H258211   5.673   6.575  11.558  0.1017 -0.0705  0.6018
12266TIP3   OH258212   1.314   4.055  13.596  0.1974  0.0844  0.1441
12266TIP3    H158213   1.245   4.036  13.533 -1.5744 -0.3857  2.1304
12266TIP3    H258214   1.289   4.139  13.635  0.9884  0.1288  0.5797
12267TIP3   OH258215   2.463   0.388  11.233  0.4954 -0.2204 -0.1384
12267TIP3    H158216   2.496   0.463  11.182  1.3902 -0.3435  0.2328
12267TIP3    H258217   2.527   0.319  11.217  0.6520 -0.3389  0.9284
12268TIP3   OH258218   6.447   6.588  15.051  0.2327 -0.2444 -0.1241
12268TIP3    H158219   6.426   6.586  14.957 -0.8828 -0.2739  0.1138
12268TIP3    H258220   6.470   6.679  15.069 -2.5619  0.5094  0.1655
12269TIP3   OH258221   3.863   0.142  12.253 -0.2819  0.6751 -0.5194
12269TIP3    H158222   3.956   0.163  12.251  0.1430 -1.1094 -1.4445
12269TIP3    H258223   3.857   0.054  12.215 -2.1199 -0.0769  1.2988
12270TIP3   OH258224   6.418   1.276   5.320 -0.5888  0.2616 -0.3011
12270TIP3    H158225   6.374   1.204   5.366  0.8424 -1.7954 -1.9821
12270TIP3    H258226   6.480   1.311   5.383 -2.0847  0.8622  0.9160
12271TIP3   OH258227   1.693   5.558  14.222  0.4159 -0.2855  0.1228
12271TIP3    H158228   1.606   5.520  14.238 -0.0120 -0.0238 -1.4225
12271TIP3    H258229   1.738   5.552  14.307 -0.8153 -1.1726  0.7421
12272TIP3   OH258230   4.706   3.916   4.645  0.3223 -0.3154 -0.0813
12272TIP3    H158231   4.693   3.842   4.704  1.5766 -0.0498  0.5573
12272TIP3    H258232   4.781   3.963   4.680 -0.2233  1.0788 -0.6799
12273TIP3   OH258233   1.730   0.239   1.319  0.0249 -0.5476  0.0857
12273TIP3    H158234   1.678   0.295   1.376  0.9680  1.2512 -0.7282
12273TIP3    H258235   1.802   0.208   1.374 -0.1883 -0.4822  0.4022
12274TIP3   OH258236   6.072   0.004  15.646  0.1555 -0.0763 -0.0592
12274TIP3    H158237   6.069   0.094  15.678 -1.0093  0.6522 -2.0434
12274TIP3    H258238   6.002  -0.040  15.692 -0.2947  0.4613 -0.2210
12275TIP3   OH258239   2.322   6.286  14.717 -0.5762  0.4997  0.1754
12275TIP3    H158240   2.389   6.219  14.703  0.6017  2.0088 -2.0615
12275TIP3    H258241   2.283   6.300  14.631  1.0955  4.4636 -0.1957
12276TIP3   OH258242   2.996   3.927  12.533 -0.0969 -0.7239  0.8878
12276TIP3    H158243   2.938   3.963  12.600 -0.3174  1.2636 -0.3091
12276TIP3    H258244   2.938   3.884  12.471 -0.3234  1.0536 -0.1810
12277TIP3   OH258245   0.791   1.906   5.055 -0.1121 -0.2433 -0.2296
12277TIP3    H158246   0.699   1.909   5.030 -0.2112 -1.1717 -0.0159
12277TIP3    H258247   0.802   1.979   5.116 -0.3281  0.8155 -1.4322
12278TIP3   OH258248   5.215   0.372  13.874  0.2860  0.1228 -0.1373
12278TIP3    H158249   5.236   0.390  13.966 -0.1909  1.7884 -0.3111
12278TIP3    H258250   5.226   0.278  13.865  1.0284  0.0139  1.4515
12279TIP3   OH258251   2.109   3.650   0.551 -0.4006 -0.5566 -0.4281
12279TIP3    H158252   2.058   3.580   0.592 -1.4163  0.4735  0.1141
12279TIP3    H258253   2.153   3.694   0.624  1.1304 -1.2903 -0.8670
12280TIP3   OH258254   4.021   5.529   3.654  0.3329 -0.0061  0.0632
12280TIP3    H158255   4.112   5.502   3.663 -0.1815 -1.6659  0.6488
12280TIP3    H258256   4.018   5.578   3.572  2.1067  1.7986  0.9772
12281TIP3   OH258257   0.380   6.536  12.002 -0.7032 -0.0490  0.3183
12281TIP3    H158258   0.440   6.592  11.953 -1.2280 -0.5700 -0.9750
12281TIP3    H258259   0.319   6.596  12.044 -0.2350  0.4104  0.3506
12282TIP3   OH258260   1.096   5.954   5.508  0.1604 -0.1219 -0.0990
12282TIP3    H158261   1.178   5.906   5.513 -1.3695 -3.1887 -1.7764
12282TIP3    H258262   1.100   5.999   5.423 -0.4272 -1.4175 -0.8286
12283TIP3   OH258263   5.241   2.865  15.031 -0.2740  0.7805  0.9649
12283TIP3    H158264   5.318   2.810  15.016 -1.1405 -0.2121  0.0106
12283TIP3    H258265   5.201   2.830  15.110  0.3976  1.5011  1.6478
12284TIP3   OH258266   2.167   1.944   5.572  0.1330 -0.1906 -0.5812
12284TIP3    H158267   2.081   1.917   5.538  0.0238 -2.1063  0.9894
12284TIP3    H258268   2.228   1.882   5.532  0.3075 -0.9290  0.7700
12285TIP3   OH258269   3.406   2.640   1.517 -0.0939  1.0617 -0.3445
12285TIP3    H158270   3.326   2.638   1.569 -1.1321  0.5932 -1.8633
12285TIP3    H258271   3.379   2.682   1.434  1.3906  1.4597 -0.6563
12286TIP3   OH258272   0.466   4.307   4.810  0.6717  0.2933 -0.1852
12286TIP3    H158273   0.478   4.251   4.887  1.7783  0.7068 -0.0357
12286TIP3    H258274   0.528   4.380   4.823 -0.5129  1.3954 -0.5181
12287TIP3   OH258275   3.105   3.241   5.095 -0.0886 -0.1374 -0.3330
12287TIP3    H158276   3.044   3.250   5.022 -0.2053  1.0453 -0.1247
12287TIP3    H258277   3.135   3.331   5.111  0.4438 -0.4765  0.6337
12288TIP3   OH258278   6.765   6.222  14.794 -0.3656  0.4923 -0.1016
12288TIP3    H158279   6.828   6.249  14.728  0.1796  1.0121  0.6127
12288TIP3    H258280   6.810   6.236  14.877 -1.7429  1.7929  0.4756
12289TIP3   OH258281   5.665   2.624   4.236 -0.0078 -0.1934 -0.0183
12289TIP3    H158282   5.714   2.542   4.235 -1.3254 -0.9981 -0.8681
12289TIP3    H258283   5.617   2.625   4.153 -0.3685  1.2185  0.1786
12290TIP3   OH258284   6.479   0.967   1.050  0.1945  0.3636  0.5377
12290TIP3    H158285   6.551   0.958   0.988 -2.3455  1.6901 -2.9649
12290TIP3    H258286   6.472   1.062   1.065 -1.6276  0.4212 -0.3975
12291TIP3   OH258287   6.446   4.137   4.939  0.0847 -0.5327  0.0654
12291TIP3    H158288   6.381   4.207   4.947  0.7018 -0.1424  2.9347
12291TIP3    H258289   6.530   4.180   4.954  0.7133 -1.5219 -0.5372
12292TIP3   OH258290   1.786   3.283  14.199 -0.1370 -0.1654  0.0296
12292TIP3    H158291   1.851   3.335  14.246  0.5205 -1.4860  0.6430
12292TIP3    H258292   1.825   3.196  14.192 -0.7982 -0.3759 -1.7783
12293TIP3   OH258293   2.180   4.521  13.967  0.1219  0.1506  0.3969
12293TIP3    H158294   2.208   4.608  13.941 -0.8704  1.0799  2.2072
12293TIP3    H258295   2.143   4.483  13.888  1.7442  0.8329 -0.7475
12294TIP3   OH258296   6.278   5.366   2.389  0.1000 -0.3658  0.0671
12294TIP3    H158297   6.288   5.457   2.416  2.4717 -0.7290  0.7344
12294TIP3    H258298   6.295   5.366   2.295 -0.7734 -0.0104 -0.0892
12295TIP3   OH258299   3.502   2.057  11.653  0.9164 -0.0697  0.1710
12295TIP3    H158300   3.409   2.048  11.675  1.2257  0.0079  1.6588
12295TIP3    H258301   3.522   1.982  11.598  0.2542 -0.8097  0.9196
12296TIP3   OH258302   1.652   0.930   0.552  0.4440 -0.1862  0.5175
12296TIP3    H158303   1.646   0.876   0.631 -0.3622 -1.1584 -0.1740
12296TIP3    H258304   1.746   0.948   0.542  0.5519  0.0204  1.7185
12297TIP3   OH258305   5.531   3.895   1.659  0.0491 -0.7033 -0.3539
12297TIP3    H158306   5.519   3.812   1.613  1.3826 -0.6022 -0.9287
12297TIP3    H258307   5.468   3.954   1.619 -0.7571 -1.3528 -0.0963
12298TIP3   OH258308   0.485   1.835  13.532 -0.1293  0.2338 -0.1756
12298TIP3    H158309   0.534   1.907  13.572 -2.8498  1.8620  0.4826
12298TIP3    H258310   0.428   1.803  13.603  1.1357 -2.8238 -0.3653
12299TIP3   OH258311   1.324   0.697   0.576 -0.1889  0.0495 -0.1055
12299TIP3    H158312   1.306   0.710   0.483  0.7123  0.3066 -0.2504
12299TIP3    H258313   1.254   0.745   0.621 -0.0633  0.7588 -0.6474
12300TIP3   OH258314   6.510   4.038   3.086 -0.0062  0.1728  0.4692
12300TIP3    H158315   6.558   3.963   3.121  1.5387  0.5687 -0.6582
12300TIP3    H258316   6.469   4.005   3.006  1.3610  0.6808 -0.4821
12301TIP3   OH258317   1.260   3.468  16.369  0.0550  0.4894  0.0368
12301TIP3    H158318   1.173   3.491  16.402 -0.0351  0.1685  0.0282
12301TIP3    H258319   1.247   3.385  16.324  0.0466  1.2575 -1.4208
12302TIP3   OH258320   2.029   1.199  14.270  0.1435 -0.1689 -0.0431
12302TIP3    H158321   2.005   1.145  14.195 -2.1341  0.8454 -0.1258
12302TIP3    H258322   2.028   1.139  14.344  0.2065 -0.7328 -0.4931
12303TIP3   OH258323   4.872   3.501   1.525 -0.4517 -0.1554 -0.3199
12303TIP3    H158324   4.947   3.445   1.549 -0.4335  0.0751  0.1757
12303TIP3    H258325   4.857   3.483   1.432  0.3485 -0.0548 -0.4754
12304TIP3   OH258326   5.577   1.614  16.336 -0.2366  0.0726 -0.0735
12304TIP3    H158327   5.635   1.607  16.411 -1.7268 -1.2166  1.0091
12304TIP3    H258328   5.516   1.685  16.359 -0.0864  0.3489 -0.5107
12305TIP3   OH258329   4.267   1.003  15.974 -0.2669  0.0589  0.2188
12305TIP3    H158330   4.335   0.939  15.999 -0.8668 -0.3373  0.9003
12305TIP3    H258331   4.267   1.067  16.045 -0.4860  0.1508  0.1372
12306TIP3   OH258332   6.615   0.371   5.642 -0.4133  0.2485  0.2611
12306TIP3    H158333   6.534   0.396   5.686 -0.6794 -0.1817  0.0214
12306TIP3    H258334   6.648   0.298   5.694  0.1502  0.8153  0.7210
12307TIP3   OH258335   0.013   0.169   2.711  0.1060  0.1146  0.0998
12307TIP3    H158336  -0.023   0.179   2.623  1.0960  2.3491 -0.0960
12307TIP3    H258337  -0.047   0.219   2.767  0.0440 -0.4662  0.5637
12308TIP3   OH258338   2.865   0.145   0.023  0.3543 -0.3516 -0.2745
12308TIP3    H158339   2.819   0.227   0.006 -0.6312 -0.3126  2.0795
12308TIP3    H258340   2.936   0.169   0.083  0.2053 -1.1707  0.2515
12309TIP3   OH258341   1.548   6.598  15.872 -0.2091  0.4632  0.3105
12309TIP3    H158342   1.593   6.648  15.804  1.6254 -0.2949  0.9160
12309TIP3    H258343   1.597   6.614  15.952  0.5898 -2.3464  0.5025
12310TIP3   OH258344   1.392   1.851  16.825 -0.5348  0.1214 -0.0761
12310TIP3    H158345   1.433   1.910  16.761 -0.4060  0.6302  0.4600
12310TIP3    H258346   1.435   1.874  16.908 -0.2971 -0.9184  0.0977
12311TIP3   OH258347   2.891   5.971  12.351 -0.1016  0.5100  0.5817
12311TIP3    H158348   2.974   5.940  12.388  1.0415 -0.0809 -2.1461
12311TIP3    H258349   2.907   5.970  12.256 -2.8333  1.6373  0.0360
12312TIP3   OH258350   1.211   0.829   0.804  0.1531  0.3767  0.2282
12312TIP3    H158351   1.193   0.885   0.729 -0.9246 -1.6150 -1.0792
12312TIP3    H258352   1.302   0.848   0.827  0.6594  0.6917 -1.8743
12313TIP3   OH258353   1.622   4.315  16.250 -0.6538 -0.0410  0.3911
12313TIP3    H158354   1.540   4.267  16.234 -0.5068 -0.1599 -0.0095
12313TIP3    H258355   1.656   4.334  16.163  1.4804 -2.9696  0.4316
12314TIP3   OH258356   1.418   5.565  17.168  0.0561 -0.1943 -0.1900
12314TIP3    H158357   1.498   5.617  17.179  1.8557 -2.8258  0.1123
12314TIP3    H258358   1.438   5.506  17.096 -1.2113 -1.6442  0.5993
12315TIP3   OH258359   6.457   4.909  10.921 -0.5222  0.0918  0.3007
12315TIP3    H158360   6.493   4.947  11.001  1.3767 -1.7999  0.4258
12315TIP3    H258361   6.412   4.830  10.950 -0.4460 -0.2175 -0.4157
12316TIP3   OH258362   5.818   6.339  14.958 -0.0640 -0.1154 -0.0627
12316TIP3    H158363   5.892   6.393  14.928  0.4309 -0.4699  0.4762
12316TIP3    H258364   5.742   6.395  14.949  0.0013 -0.3025 -2.2478
12317TIP3   OH258365   0.355   1.655  11.707 -0.2579  0.3617  0.8431
12317TIP3    H158366   0.309   1.650  11.623 -0.0675  1.3114  0.6759
12317TIP3    H258367   0.294   1.700  11.765 -0.4579 -0.4464  1.2727
12318TIP3   OH258368   6.555   5.864   3.838  0.6889 -0.0059 -0.3529
12318TIP3    H158369   6.558   5.897   3.748 -0.1248 -1.2274 -0.8496
12318TIP3    H258370   6.548   5.943   3.892  1.2342  0.7463 -1.3501
12319TIP3   OH258371   3.914   1.505  11.700 -0.0922 -0.0790 -0.1424
12319TIP3    H158372   3.853   1.434  11.721 -0.4909  0.3215  0.0800
12319TIP3    H258373   3.995   1.461  11.675 -0.0246 -0.5959  0.9290
12320TIP3   OH258374   2.111   5.925   3.311 -0.0614  1.2729  0.8337
12320TIP3    H158375   2.158   5.885   3.383 -1.5558  0.1996  1.2508
12320TIP3    H258376   2.173   5.925   3.238  0.6942  0.2571  1.4648
12321TIP3   OH258377   2.151   3.374  16.470  0.0033  0.5701  0.1829
12321TIP3    H158378   2.064   3.408  16.451 -0.0033 -0.1684 -1.2363
12321TIP3    H258379   2.195   3.445  16.517 -1.4315  0.8470  1.1747
12322TIP3   OH258380   3.966   2.676   0.961  0.2832 -0.2887 -0.0384
12322TIP3    H158381   3.900   2.745   0.956  0.5312 -0.0895 -0.7772
12322TIP3    H258382   4.049   2.720   0.941  0.4715 -0.7563 -0.3256
12323TIP3   OH258383   5.509   2.046   3.893 -0.0040 -0.5618  0.6257
12323TIP3    H158384   5.460   2.088   3.822 -0.6256 -0.2192  1.2411
12323TIP3    H258385   5.584   2.005   3.850  0.3892  0.8028 -0.0642
12324TIP3   OH258386   3.815   3.582   1.688  0.0644  0.9013 -0.5740
12324TIP3    H158387   3.852   3.656   1.640  1.1178  0.5039 -0.3951
12324TIP3    H258388   3.851   3.505   1.644  0.1877  0.5220  0.1864
12325TIP3   OH258389   6.446   3.419  13.306 -0.3023  0.4559 -0.2566
12325TIP3    H158390   6.352   3.421  13.320 -0.4807  0.7476 -1.4160
12325TIP3    H258391   6.462   3.480  13.234  0.6730 -0.1459 -0.5857
12326TIP3   OH258392   1.049   6.766  14.908 -0.0013 -0.2607  0.4778
12326TIP3    H158393   1.016   6.685  14.869  0.4735 -1.1163  1.8272
12326TIP3    H258394   1.061   6.746  15.000  0.2154  1.3286  0.8245
12327TIP3   OH258395   4.765   6.297   0.275  0.5657 -0.9385 -0.3515
12327TIP3    H158396   4.754   6.354   0.200  1.8488 -2.7067 -1.9884
12327TIP3    H258397   4.719   6.216   0.252 -1.9079 -0.4497  2.2257
12328TIP3   OH258398   5.310   3.585  11.896 -0.0519  0.0052  0.4312
12328TIP3    H158399   5.279   3.641  11.967 -0.5382 -1.9132  1.8077
12328TIP3    H258400   5.248   3.601  11.824 -1.0708  0.1625  1.3136
12329TIP3   OH258401   2.698   2.566  14.959 -0.1005 -0.3955 -0.1738
12329TIP3    H158402   2.737   2.506  14.895  1.3343 -0.5688  0.8123
12329TIP3    H258403   2.765   2.632  14.973 -0.7474  0.1227  0.5226
12330TIP3   OH258404   6.711   0.472  13.436 -0.5341 -0.4544  1.1285
12330TIP3    H158405   6.632   0.461  13.490 -0.4661 -1.7132  0.9851
12330TIP3    H258406   6.780   0.430  13.486 -0.0950 -0.0218  0.8923
12331TIP3   OH258407   5.260   5.137   3.958 -0.2217  0.3627 -0.8021
12331TIP3    H158408   5.198   5.209   3.960  0.1473  0.6622  0.0316
12331TIP3    H258409   5.217   5.067   4.007 -0.0768  0.4305 -0.5760
12332TIP3   OH258410   2.485   3.976   1.918 -0.0616  0.4245  0.2922
12332TIP3    H158411   2.502   3.899   1.973  0.0614  0.3611  0.1647
12332TIP3    H258412   2.412   4.020   1.961 -0.4655 -0.0330  0.0909
12333TIP3   OH258413   0.724   4.479   4.453  0.0721 -0.6082 -0.1216
12333TIP3    H158414   0.790   4.508   4.390  0.1787  2.4579  1.2181
12333TIP3    H258415   0.773   4.424   4.514  0.2409 -2.5093 -1.8709
12334TIP3   OH258416   4.482   4.833   3.496 -0.2486  0.3163 -0.5977
12334TIP3    H158417   4.465   4.744   3.526  1.7394  0.2853  0.5973
12334TIP3    H258418   4.433   4.889   3.556 -0.6119  0.0658 -0.6598
12335TIP3   OH258419   3.092   3.795  15.918  0.6814 -0.0724 -0.0789
12335TIP3    H158420   3.003   3.760  15.910 -0.4134  2.7697 -1.5519
12335TIP3    H258421   3.098   3.826  16.008 -0.1713  0.4916 -0.2043
12336TIP3   OH258422   3.467   4.335  11.933 -0.5717  0.0730  1.0058
12336TIP3    H158423   3.396   4.319  11.871 -0.5996 -0.2781  1.1219
12336TIP3    H258424   3.450   4.273  12.004 -1.0116  1.0345  1.7603
12337TIP3   OH258425   3.823   6.656  10.991 -0.6732  0.3902 -0.0085
12337TIP3    H158426   3.902   6.611  11.020 -0.5637  0.3753 -0.3265
12337TIP3    H258427   3.752   6.617  11.043 -0.3119  1.3184  1.2313
12338TIP3   OH258428   2.188   0.851   1.024  0.3271 -0.0062 -0.0224
12338TIP3    H158429   2.159   0.785   0.960  1.4161  0.5811 -1.1438
12338TIP3    H258430   2.131   0.926   1.008  2.2920  1.1531 -2.2380
12339TIP3   OH258431   0.026   1.150  13.265 -0.9482  0.4966 -0.3392
12339TIP3    H158432   0.087   1.145  13.192 -0.2329  0.0525  0.2749
12339TIP3    H258433  -0.008   1.240  13.262 -0.0265  0.8458 -0.4983
12340TIP3   OH258434   5.270   1.254   3.936  0.9895  0.2410 -0.3572
12340TIP3    H158435   5.179   1.227   3.949  1.6497 -0.7929  3.4067
12340TIP3    H258436   5.268   1.349   3.938  0.0894  0.2261  1.5398
12341TIP3   OH258437   5.650   2.470   4.956 -0.1540  0.1699  0.1629
12341TIP3    H158438   5.581   2.455   4.891 -0.4147 -0.8684  0.6605
12341TIP3    H258439   5.606   2.517   5.027  0.4420  2.5769 -0.9680
12342TIP3   OH258440   1.885   1.125   0.262  0.0449 -0.1968 -0.1526
12342TIP3    H158441   1.915   1.098   0.349  0.7823 -0.1917 -0.3952
12342TIP3    H258442   1.848   1.046   0.224 -0.6239 -0.1088  0.3047
12343TIP3   OH258443   6.041   0.493   5.668 -0.7749  0.7694 -0.1704
12343TIP3    H158444   6.118   0.465   5.619 -0.8322  0.7401 -0.2451
12343TIP3    H258445   6.058   0.466   5.758 -1.4612 -0.8580 -0.4806
12344TIP3   OH258446   1.576   1.483  12.211 -0.2574 -0.0578  0.6718
12344TIP3    H158447   1.653   1.447  12.166 -0.1443 -0.7150  1.3652
12344TIP3    H258448   1.602   1.486  12.303 -0.9272  0.0776  0.8574
12345TIP3   OH258449   4.829   6.558   2.198  0.1723  0.5168 -0.2729
12345TIP3    H158450   4.874   6.636   2.164 -0.2275  1.7850  1.9042
12345TIP3    H258451   4.784   6.522   2.122  0.8157  2.0979 -1.4799
12346TIP3   OH258452   1.203   1.515   2.468 -0.3809  0.3988  0.5491
12346TIP3    H158453   1.227   1.449   2.403 -2.3923 -0.3046  0.4482
12346TIP3    H258454   1.207   1.598   2.421  0.2287  0.1342  0.1245
12347TIP3   OH258455   3.157   1.454  11.522 -0.0310  0.2226  0.4567
12347TIP3    H158456   3.199   1.425  11.603  0.0923 -1.6757 -0.2380
12347TIP3    H258457   3.151   1.375  11.469 -2.4757  0.8922 -0.3657
12348TIP3   OH258458   5.128   1.601   0.048  0.5790 -0.6429 -0.1548
12348TIP3    H158459   5.179   1.672   0.011 -0.9575  0.8261  0.4114
12348TIP3    H258460   5.055   1.589  -0.014 -0.3180 -0.2534  0.7963
12349TIP3   OH258461   1.337   5.074   1.699 -0.3830  0.3969  0.0501
12349TIP3    H158462   1.378   5.138   1.641 -0.9283  0.6968 -0.0186
12349TIP3    H258463   1.370   4.989   1.670  0.7521  0.6799  0.4794
12350TIP3   OH258464   3.596   3.676  16.818 -0.0667  0.0437  0.0384
12350TIP3    H158465   3.572   3.598  16.768 -1.5125  0.5063 -0.0224
12350TIP3    H258466   3.581   3.749  16.758  0.6437  0.4241  0.3122
12351TIP3   OH258467   5.119   2.328  17.104  0.3826  0.7864 -0.0302
12351TIP3    H158468   5.096   2.421  17.114  0.3607  0.7347  0.4259
12351TIP3    H258469   5.123   2.315  17.009 -1.0251  0.9037 -0.1226
12352TIP3   OH258470   5.026   1.084   6.661 -0.3410 -0.1803 -0.5891
12352TIP3    H158471   4.968   1.160   6.652  0.0921  0.0660 -1.4522
12352TIP3    H258472   5.102   1.106   6.606  0.2222 -0.8262 -0.0765
12353TIP3   OH258473   1.608   2.701  16.766  0.1437  0.2745 -0.2592
12353TIP3    H158474   1.666   2.772  16.738 -0.3869 -0.2370 -2.9120
12353TIP3    H258475   1.571   2.667  16.685 -0.2258 -2.5447  0.9803
12354TIP3   OH258476   2.604   5.570   3.274 -0.6998 -0.2488 -0.0835
12354TIP3    H158477   2.665   5.499   3.290 -0.4868 -0.3551 -1.2539
12354TIP3    H258478   2.522   5.527   3.249 -0.9008 -0.0971  0.3144
12355TIP3   OH258479   0.032   0.085  13.590 -0.1154 -0.1445 -0.2117
12355TIP3    H158480   0.035   0.170  13.634 -0.9572  0.5886 -1.5356
12355TIP3    H258481  -0.012   0.027  13.653  1.8562 -0.0531  1.3599
12356TIP3   OH258482   3.913   5.868  16.922 -0.2670  0.4796  0.1715
12356TIP3    H158483   3.838   5.809  16.918  0.3829 -0.3722  0.0179
12356TIP3    H258484   3.925   5.899  16.832 -0.6728  0.9313  0.2731
12357TIP3   OH258485   4.576   0.235  13.291  0.2940 -0.4930 -0.3803
12357TIP3    H158486   4.507   0.260  13.353  0.5032 -0.3789 -0.1913
12357TIP3    H258487   4.657   0.262  13.334  0.5135 -1.3374 -0.2559
12358TIP3   OH258488   3.918   1.675   1.467 -0.2466  0.1947  0.7511
12358TIP3    H158489   4.010   1.653   1.481 -0.4152 -2.7899 -1.7492
12358TIP3    H258490   3.917   1.724   1.385 -0.9395 -0.0565  0.6061
12359TIP3   OH258491   0.355   0.533  16.371 -0.1447 -0.5372 -0.0115
12359TIP3    H158492   0.303   0.458  16.344 -0.1801 -0.5241  0.0194
12359TIP3    H258493   0.440   0.519  16.329  0.5236 -1.6446  1.6102
12360TIP3   OH258494   0.960   1.972  17.005 -0.4989  0.3904  0.0585
12360TIP3    H158495   1.017   1.997  17.078  0.4143  0.2464 -0.5833
12360TIP3    H258496   0.940   2.055  16.962 -2.2680  0.6641  1.3078
12361TIP3   OH258497   4.060   5.708   5.267 -0.0389 -0.1320 -0.1718
12361TIP3    H158498   4.105   5.625   5.270  0.7723  0.2075 -1.8573
12361TIP3    H258499   4.032   5.724   5.357  1.3964 -1.3315  0.5184
12362TIP3   OH258500   0.191   1.595  11.470  0.2080  0.4080 -0.1334
12362TIP3    H158501   0.239   1.524  11.428  0.8340  1.0906 -0.5933
12362TIP3    H258502   0.230   1.675  11.436 -2.1645  1.0420 -1.6015
12363TIP3   OH258503   1.235   4.508  16.740  0.4203  0.5370  0.0105
12363TIP3    H158504   1.282   4.477  16.662  1.1880  1.8919 -0.1011
12363TIP3    H258505   1.235   4.433  16.800  1.6208  0.1032 -0.4964
12364TIP3   OH258506   2.374   5.589  11.807 -0.4096  0.5373 -0.4825
12364TIP3    H158507   2.458   5.590  11.760  0.8775  0.5836  1.6881
12364TIP3    H258508   2.392   5.539  11.887 -2.8116 -0.5009 -0.5118
12365TIP3   OH258509   5.140   5.450   6.247  0.3483  0.1575 -0.6407
12365TIP3    H158510   5.094   5.393   6.309 -0.9890  0.0945 -1.6502
12365TIP3    H258511   5.154   5.394   6.170 -0.1773  0.9376 -1.3063
12366TIP3   OH258512   2.850   3.171   3.947  0.0496  0.1221  0.1945
12366TIP3    H158513   2.909   3.097   3.934  0.5176  0.5942 -0.4166
12366TIP3    H258514   2.839   3.209   3.860 -1.0658  0.1174  0.3200
12367TIP3   OH258515   4.979   1.226  11.876 -0.6915  0.0306  0.0111
12367TIP3    H158516   4.887   1.241  11.895 -0.4908 -0.0770  1.1230
12367TIP3    H258517   5.026   1.289  11.931 -0.0218 -1.5373  1.3289
12368TIP3   OH258518   6.010   3.868  13.104 -0.1191 -0.1551  0.1942
12368TIP3    H158519   5.958   3.788  13.109 -0.7467  0.2780  1.3267
12368TIP3    H258520   6.072   3.861  13.176  0.1447  0.1507 -0.0017
12369TIP3   OH258521   6.144   2.735  12.387  0.2765 -0.3157  0.7034
12369TIP3    H158522   6.071   2.793  12.369  0.0855 -0.5047  0.8686
12369TIP3    H258523   6.205   2.750  12.315  0.0107 -0.2622  0.4891
12370TIP3   OH258524   4.293   0.134   2.641  0.3469 -0.0279 -0.0108
12370TIP3    H158525   4.304   0.100   2.552 -0.9125  2.0305 -1.0393
12370TIP3    H258526   4.213   0.093   2.673 -0.0061  0.3320 -0.4188
12371TIP3   OH258527   4.161   3.290  15.853  0.0933 -0.0483  0.1056
12371TIP3    H158528   4.125   3.209  15.890  0.0376  0.3213  0.8837
12371TIP3    H258529   4.115   3.360  15.899 -0.1567  0.4332 -0.8632
12372TIP3   OH258530   5.311   4.107   4.608 -0.2629  0.4156  0.5734
12372TIP3    H158531   5.232   4.135   4.563  0.7790  1.4757 -0.6579
12372TIP3    H258532   5.318   4.166   4.683 -1.5963 -0.8797  1.7919
12373TIP3   OH258533   0.122   5.615  12.009 -0.3982 -0.5767 -0.1637
12373TIP3    H158534   0.094   5.533  11.968  1.0671 -0.5938 -1.2257
12373TIP3    H258535   0.158   5.588  12.093 -1.3873 -0.8125  0.1996
12374TIP3   OH258536   4.956   4.531  15.056  0.2580 -0.1111 -0.0224
12374TIP3    H158537   4.971   4.588  14.981 -0.3614  0.1703  0.0627
12374TIP3    H258538   4.932   4.447  15.017 -0.2454  0.0846 -0.1453
12375TIP3   OH258539   6.452   2.397  17.375 -0.6496 -0.5942 -0.0546
12375TIP3    H158540   6.467   2.305  17.353 -0.5773 -1.1144  2.0318
12375TIP3    H258541   6.357   2.408  17.374 -0.6476 -0.5584 -0.6925
12376TIP3   OH258542   1.009   1.090   5.320  0.1591  0.3407  0.6824
12376TIP3    H158543   1.026   1.182   5.299  2.1270 -0.1206  0.0135
12376TIP3    H258544   1.071   1.070   5.390  1.3524 -1.0215 -0.6944
12377TIP3   OH258545   0.360   2.806   1.840  0.2094 -0.5422 -0.5054
12377TIP3    H158546   0.392   2.896   1.833  0.2085 -0.5371 -0.4443
12377TIP3    H258547   0.421   2.764   1.902 -0.4623 -0.2746  0.3612
12378TIP3   OH258548   0.548   4.339  13.898 -0.4160  0.1684  0.0661
12378TIP3    H158549   0.638   4.365  13.880  0.0663 -0.2119  1.7943
12378TIP3    H258550   0.555   4.251  13.935 -1.3405  0.7042  1.6155
12379TIP3   OH258551   1.459   1.181   4.913 -0.4283  1.0443  0.3521
12379TIP3    H158552   1.461   1.212   4.822 -1.1672  1.2273  0.3861
12379TIP3    H258553   1.474   1.259   4.966  2.2448  0.6003  0.3818
12380TIP3   OH258554   0.341   3.362  14.746  0.0690  0.4919  0.2463
12380TIP3    H158555   0.355   3.457  14.749  0.4416  0.4230  0.8157
12380TIP3    H258556   0.404   3.331  14.681  1.3142  0.4152  1.4366
12381TIP3   OH258557   1.730   5.604  12.497 -0.3505 -0.3105 -0.3817
12381TIP3    H158558   1.733   5.508  12.495 -3.7077 -0.5610 -0.3771
12381TIP3    H258559   1.641   5.625  12.470 -0.2230  2.7610  1.1288
12382TIP3   OH258560   0.557   3.624   5.370 -0.4181  0.2130  0.4246
12382TIP3    H158561   0.472   3.582   5.384 -0.5915  0.7022  0.8993
12382TIP3    H258562   0.597   3.627   5.457 -0.3145  0.8192  0.3634
12383TIP3   OH258563   1.263   5.427  15.538 -0.1938  0.1521 -0.6367
12383TIP3    H158564   1.237   5.486  15.608  0.7367  0.4067 -0.5003
12383TIP3    H258565   1.265   5.340  15.579  4.1093  0.7108  0.7655
12384TIP3   OH258566   4.873   3.199  15.745 -0.0995 -0.5323  0.3975
12384TIP3    H158567   4.819   3.124  15.770  0.8532 -1.1366  0.6540
12384TIP3    H258568   4.963   3.167  15.747  0.5665  1.1904  2.7287
12385TIP3   OH258569   5.958   3.931   4.652 -0.4843 -0.3074 -0.3659
12385TIP3    H158570   5.981   3.935   4.559  0.2883 -0.9769 -0.2173
12385TIP3    H258571   6.005   4.004   4.692  0.4548 -0.9594 -0.2569
12386TIP3   OH258572   6.373   4.167   1.717  0.2413 -0.3095  0.1357
12386TIP3    H158573   6.340   4.085   1.756  2.5546 -2.3131 -1.7912
12386TIP3    H258574   6.466   4.150   1.702  1.1577  3.2579  0.8822
12387TIP3   OH258575   2.701   0.937   0.614  0.1924  0.0930 -0.4721
12387TIP3    H158576   2.708   0.891   0.531 -0.4510  0.5049 -0.7625
12387TIP3    H258577   2.734   0.875   0.679  0.4136 -0.3436 -0.9968
12388TIP3   OH258578   2.823   1.459  15.632 -0.0672 -0.1288  0.8282
12388TIP3    H158579   2.753   1.430  15.572 -0.3307 -0.1948  1.1642
12388TIP3    H258580   2.790   1.541  15.668  0.5683  0.4840  0.0688
12389TIP3   OH258581   2.291   0.726   4.468 -0.0773  0.0382 -0.4829
12389TIP3    H158582   2.349   0.800   4.486  0.1085 -0.0257 -0.8169
12389TIP3    H258583   2.249   0.708   4.552 -0.8278  1.1246 -0.6097
12390TIP3   OH258584   2.493   0.971   5.110 -0.0867 -0.3791  0.3119
12390TIP3    H158585   2.423   0.952   5.173 -1.2011 -1.2358 -1.1204
12390TIP3    H258586   2.506   1.066   5.116 -1.3800 -0.1992  0.6263
12391TIP3   OH258587   0.059   2.774   0.104  0.2029  0.0668 -0.4976
12391TIP3    H158588   0.072   2.798   0.195 -1.9457  1.5470 -0.4871
12391TIP3    H258589   0.125   2.824   0.056 -0.9075  2.1708  0.0048
12392TIP3   OH258590   6.339   1.017   0.751 -0.4801  0.4822 -0.1851
12392TIP3    H158591   6.395   1.006   0.675  1.4596 -0.2546  1.2788
12392TIP3    H258592   6.322   0.928   0.781 -2.2760  0.6971 -0.4358
12393TIP3   OH258593   1.133   2.144   4.211  0.2571 -0.3945  0.3101
12393TIP3    H158594   1.115   2.160   4.303  0.3085 -2.0576  0.6383
12393TIP3    H258595   1.051   2.111   4.175 -0.1011  1.2967 -0.5433
12394TIP3   OH258596   3.997   6.465  15.055 -0.1762 -0.4618  0.3309
12394TIP3    H158597   3.975   6.536  14.994 -1.7558 -1.4723 -0.3133
12394TIP3    H258598   4.032   6.510  15.131 -1.3106  1.0503  0.0097
12395TIP3   OH258599   4.601   6.319   5.878  0.3522 -0.4076  0.5376
12395TIP3    H158600   4.690   6.320   5.915  1.4554  3.3067 -1.6454
12395TIP3    H258601   4.555   6.388   5.925  0.3021  1.0963 -1.5745
12396TIP3   OH258602   6.637   3.355   5.532 -0.0785  0.1746  0.1653
12396TIP3    H158603   6.575   3.315   5.594  1.6517  0.8776  2.4990
12396TIP3    H258604   6.689   3.281   5.500 -1.6670 -0.3495 -1.4332
12397TIP3   OH258605   5.252   1.554   2.091  0.6614 -0.5979  0.3188
12397TIP3    H158606   5.261   1.539   2.185  0.1670  1.5763  0.7664
12397TIP3    H258607   5.157   1.548   2.075  0.7211 -0.7083 -0.0014
12398TIP3   OH258608   1.505   5.294  11.536  0.1153  0.3632 -0.1049
12398TIP3    H158609   1.589   5.303  11.581  1.2776 -1.3785 -1.8075
12398TIP3    H258610   1.442   5.278  11.607  0.5293  4.6017  1.5473
12399TIP3   OH258611   0.977   1.305  15.713 -0.2467 -0.6408 -0.2852
12399TIP3    H158612   0.909   1.267  15.658  0.7445 -0.5807 -1.6233
12399TIP3    H258613   0.980   1.397  15.688 -1.0024 -0.1704  1.2128
12400TIP3   OH258614   2.005   5.117   4.759  0.1225  0.2105  0.4307
12400TIP3    H158615   1.937   5.119   4.825 -0.9242 -0.6225 -0.5667
12400TIP3    H258616   2.015   5.024   4.738  0.1813  0.4755 -0.8009
12401TIP3   OH258617   5.394   6.460   0.403 -0.7700 -0.5913  0.0651
12401TIP3    H158618   5.405   6.390   0.467  0.3596 -0.3668  0.1435
12401TIP3    H258619   5.366   6.536   0.454  0.0168 -0.4437  0.2912
12402TIP3   OH258620   5.021   0.281  11.908 -0.5933  0.1139  0.3697
12402TIP3    H158621   5.077   0.204  11.923 -0.0897  0.4072  0.0438
12402TIP3    H258622   4.933   0.252  11.933 -0.2926 -0.3455  0.9291
12403TIP3   OH258623   2.540   4.164  11.663 -0.1931 -0.4356 -0.1603
12403TIP3    H158624   2.532   4.170  11.567  0.8134  0.3399 -0.2118
12403TIP3    H258625   2.475   4.225  11.696  0.9839  1.0137 -0.4208
12404TIP3   OH258626   5.840   1.745  12.249  0.2595  0.2273  0.0836
12404TIP3    H158627   5.888   1.786  12.177  1.3142  0.1754  0.7390
12404TIP3    H258628   5.856   1.651  12.238  1.0814  0.2662  0.8190
12405TIP3   OH258629   2.352   0.897   1.862 -0.2659  0.1880 -0.0755
12405TIP3    H158630   2.326   0.905   1.770 -0.0684 -2.7728 -0.4900
12405TIP3    H258631   2.418   0.828   1.862  1.4069  1.6489  2.0565
12406TIP3   OH258632   3.021   3.838   5.785  0.2649 -0.5018 -0.1341
12406TIP3    H158633   3.052   3.764   5.837  0.5940 -0.1553  0.1691
12406TIP3    H258634   3.036   3.812   5.694  0.9158 -0.5744 -0.0103
12407TIP3   OH258635   2.074   2.563   3.022  0.0459  0.6212  0.4500
12407TIP3    H158636   2.089   2.577   3.115  1.6383 -0.1752  0.3528
12407TIP3    H258637   2.160   2.540   2.987 -0.7648 -0.4306 -0.9781
12408TIP3   OH258638   2.585   4.525  13.629 -0.1225 -0.3551  0.2992
12408TIP3    H158639   2.535   4.453  13.667  0.4016  0.4525  2.6526
12408TIP3    H258640   2.675   4.510  13.658 -0.1900  1.8076  1.8574
12409TIP3   OH258641   3.184   4.260  12.459  0.3454  0.9524 -0.6539
12409TIP3    H158642   3.217   4.171  12.447  1.8016  1.3704 -0.0193
12409TIP3    H258643   3.113   4.268  12.396 -0.5366 -1.0050  0.0143
12410TIP3   OH258644   3.693   0.702  15.463 -0.3079  0.3376  0.3422
12410TIP3    H158645   3.675   0.668  15.551 -0.5289  1.5572  0.7859
12410TIP3    H258646   3.613   0.683  15.414 -0.5442  0.4858  0.6670
12411TIP3   OH258647   6.384   3.417  15.937  0.4727 -0.5852 -0.0234
12411TIP3    H158648   6.421   3.459  16.014 -0.8083  0.7311 -0.0927
12411TIP3    H258649   6.353   3.332  15.969  1.4569 -0.7576  0.5152
12412TIP3   OH258650   3.802   6.370   3.745 -0.1132  0.2068  0.7431
12412TIP3    H158651   3.774   6.459   3.765  2.9399  1.0702  1.8199
12412TIP3    H258652   3.898   6.375   3.744  0.1904 -3.1361  1.1815
12413TIP3   OH258653   6.054   1.687   2.339 -0.3309 -0.6083 -0.4835
12413TIP3    H158654   5.986   1.630   2.375 -1.7969  1.5610  0.4576
12413TIP3    H258655   6.107   1.711   2.415 -0.0236 -0.3677 -0.7734
12414TIP3   OH258656   3.705   4.458  13.117  0.0603  0.4724  0.5027
12414TIP3    H158657   3.704   4.508  13.199 -1.1853  1.2881  0.0233
12414TIP3    H258658   3.619   4.415  13.115  0.7521 -0.9843  0.4573
12415TIP3   OH258659   4.528   5.690  16.414  0.0680  0.0947  0.2221
12415TIP3    H158660   4.529   5.786  16.425  1.0145  0.1393 -0.1484
12415TIP3    H258661   4.437   5.669  16.393 -0.3422  0.8050  1.2325
12416TIP3   OH258662   4.769   2.484   3.946  0.5039 -0.1233 -0.5412
12416TIP3    H158663   4.801   2.433   3.872 -0.5819  1.0472 -1.8757
12416TIP3    H258664   4.798   2.574   3.927 -0.1500  0.2610  0.2323
12417TIP3   OH258665   5.899   5.878   3.537 -0.6360  1.0742  0.2102
12417TIP3    H158666   5.856   5.806   3.582 -0.7592  1.9395  1.5346
12417TIP3    H258667   5.890   5.952   3.597  0.7029  1.8445 -0.4982
12418TIP3   OH258668   3.692   5.541  14.400  0.6158  0.5466  0.4610
12418TIP3    H158669   3.726   5.614  14.452  0.0515  1.5172 -0.4695
12418TIP3    H258670   3.664   5.582  14.318  0.8428 -0.8222 -0.3343
12419TIP3   OH258671   0.304   4.078  14.244 -0.7521  0.0718 -0.1259
12419TIP3    H158672   0.355   4.057  14.165 -0.6931  0.4573 -0.1931
12419TIP3    H258673   0.363   4.133  14.296 -1.7269  2.0822 -1.0374
12420TIP3   OH258674   6.103   6.651   3.680 -0.3498  0.0789  0.2689
12420TIP3    H158675   6.109   6.741   3.648 -0.4401 -0.1379 -0.3666
12420TIP3    H258676   6.179   6.641   3.738 -1.0136  0.9351  1.2978
12421TIP3   OH258677   1.971   1.397   3.969  0.7292  0.4078 -0.4840
12421TIP3    H158678   1.933   1.453   4.037 -1.4445 -0.0833 -1.2248
12421TIP3    H258679   2.052   1.363   4.009 -0.2120  0.5425  1.6822
12422TIP3   OH258680   0.799   5.077  16.432  0.0298 -0.0776 -0.3892
12422TIP3    H158681   0.855   5.059  16.507 -2.1323 -1.4219  1.0068
12422TIP3    H258682   0.814   5.004  16.372 -0.2286 -0.4573  0.0024
12423TIP3   OH258683   1.526   4.165  12.809  0.4179 -0.5098 -0.3141
12423TIP3    H158684   1.468   4.109  12.758  0.5799 -1.0485  0.0777
12423TIP3    H258685   1.613   4.124  12.800  0.4243 -0.6917  0.4842
12424TIP3   OH258686   0.934   3.639   0.720 -0.3771  0.4073 -0.1302
12424TIP3    H158687   0.891   3.657   0.804  0.9382  0.5362  0.5540
12424TIP3    H258688   0.983   3.719   0.701  0.1431  0.0044 -0.5059
12425TIP3   OH258689   5.194   6.667   2.056 -0.1880 -0.2594  0.3340
12425TIP3    H158690   5.252   6.605   2.013 -2.0979 -0.9941 -1.3274
12425TIP3    H258691   5.127   6.687   1.991 -2.0895  0.1498  2.2986
12426TIP3   OH258692   1.012   0.969   3.671 -0.2333  0.0942  0.5250
12426TIP3    H158693   0.987   1.037   3.608 -0.8635  0.2479  0.9366
12426TIP3    H258694   1.079   1.010   3.726  0.0723  0.0695  0.1761
12427TIP3   OH258695   0.117   3.732  15.797 -0.0343  0.3082  0.0520
12427TIP3    H158696   0.105   3.823  15.822 -0.7707  0.2783 -0.1629
12427TIP3    H258697   0.104   3.731  15.702 -1.0872 -0.1741  0.1851
12428TIP3   OH258698   5.930   6.317   2.556  0.6395 -0.0091 -0.4275
12428TIP3    H158699   5.927   6.350   2.646  0.2692 -0.3136 -0.3255
12428TIP3    H258700   5.950   6.394   2.503  0.4821  0.2463 -0.1206
12429TIP3   OH258701   4.512   1.260   3.442  0.2624  0.3368  0.1609
12429TIP3    H158702   4.494   1.235   3.352 -0.6576 -1.4754  0.7947
12429TIP3    H258703   4.601   1.228   3.459  0.1917  0.1112  0.0993
12430TIP3   OH258704   1.712   4.657   2.768  0.5137 -0.4190  0.0548
12430TIP3    H158705   1.802   4.626   2.771  0.9725  0.8964  2.4759
12430TIP3    H258706   1.715   4.735   2.713  0.8448 -0.3427  0.1808
12431TIP3   OH258707   3.804   2.738  14.040  0.3577  0.1642 -0.0538
12431TIP3    H158708   3.801   2.773  14.129  0.1483 -3.5423  1.5720
12431TIP3    H258709   3.712   2.725  14.016  0.4530 -0.6668  0.0128
12432TIP3   OH258710   0.497   6.702  12.630 -0.8709 -0.2172  0.2562
12432TIP3    H158711   0.483   6.780  12.576 -0.0611  0.6551  1.2610
12432TIP3    H258712   0.590   6.682  12.621 -0.9034 -0.5807  0.6568
12433TIP3   OH258713   3.086   3.682  12.619  0.5901 -0.1673  0.4667
12433TIP3    H158714   3.109   3.775  12.619  2.6433 -0.6131  0.6419
12433TIP3    H258715   2.996   3.678  12.649  0.0952  1.8449 -0.6139
12434TIP3   OH258716   5.463   0.156   1.731 -0.1855 -1.0402 -0.6899
12434TIP3    H158717   5.438   0.094   1.799  1.6238 -0.1832  0.8619
12434TIP3    H258718   5.500   0.102   1.661 -2.6637 -1.9831 -1.3590
12435TIP3   OH258719   4.083   1.320  16.362 -0.0079  0.2863  0.2139
12435TIP3    H158720   4.003   1.347  16.406  0.2885  1.3328  0.1278
12435TIP3    H258721   4.104   1.393  16.304  0.6405 -0.2707 -0.2674
12436TIP3   OH258722   0.109   1.365   5.625  0.1296  0.6337 -0.1556
12436TIP3    H158723   0.190   1.315   5.615 -0.4008 -0.7784  1.9606
12436TIP3    H258724   0.049   1.328   5.560  0.3526 -0.1852  0.0997
12437TIP3   OH258725   4.452   2.334  13.695 -0.2398  0.2608 -0.3083
12437TIP3    H158726   4.505   2.279  13.752 -0.6362 -0.1157 -0.2983
12437TIP3    H258727   4.506   2.347  13.617 -0.5773 -1.0882 -0.7931
12438TIP3   OH258728   1.304   4.498   4.528  0.4316  0.3206  0.4698
12438TIP3    H158729   1.388   4.477   4.486  0.5720  0.3889  0.7192
12438TIP3    H258730   1.241   4.440   4.485  0.4180  0.9897 -0.4575
12439TIP3   OH258731   5.061   2.723  16.221 -0.0118  0.3709  0.3450
12439TIP3    H158732   5.086   2.712  16.312  1.0729  0.2079  0.0439
12439TIP3    H258733   5.047   2.817  16.211  1.3312  0.5846  0.3362
12440TIP3   OH258734   6.165   2.405   2.701 -0.2201  0.0426  0.3333
12440TIP3    H158735   6.092   2.389   2.761  0.3694  0.2509  1.1278
12440TIP3    H258736   6.240   2.363   2.743  0.0831 -0.3492 -0.5797
12441TIP3   OH258737   4.311   0.507  16.005 -0.0028 -0.0783 -0.1123
12441TIP3    H158738   4.368   0.520  15.929 -0.2235  0.8107 -0.1396
12441TIP3    H258739   4.313   0.412  16.021  0.0971 -0.2694 -1.1861
12442TIP3   OH258740   0.297   6.096  11.560 -0.2943  0.6743  0.1107
12442TIP3    H158741   0.255   6.133  11.638 -3.0836  0.8204 -1.3086
12442TIP3    H258742   0.357   6.164  11.531  0.2540  0.9132  1.6821
12443TIP3   OH258743   5.309   0.678   5.551  0.0961 -0.4882  0.7394
12443TIP3    H158744   5.275   0.766   5.536 -0.3327 -1.0881 -2.4445
12443TIP3    H258745   5.344   0.681   5.640 -1.9573  2.1900  1.5952
12444TIP3   OH258746   3.738   3.672   5.737  0.0211  1.0814 -0.2265
12444TIP3    H158747   3.832   3.657   5.737  0.1743  1.9847 -0.2878
12444TIP3    H258748   3.717   3.695   5.827 -0.2560  0.2703 -0.0732
12445TIP3   OH258749   5.924   2.928  12.756 -0.0104 -0.2837 -0.4059
12445TIP3    H158750   5.852   2.919  12.818 -0.8505  0.1019 -1.2934
12445TIP3    H258751   5.891   2.889  12.675  1.5627 -2.0279 -0.2781
12446TIP3   OH258752   2.558   6.200  15.349  0.4910 -0.2779  0.1091
12446TIP3    H158753   2.478   6.238  15.313  1.3671  2.2631  0.5912
12446TIP3    H258754   2.609   6.175  15.272  0.7695  1.6101 -0.3676
12447TIP3   OH258755   2.168   4.390  12.710 -0.2186  0.1320 -0.7486
12447TIP3    H158756   2.134   4.478  12.697 -0.9411  0.3159  1.8803
12447TIP3    H258757   2.224   4.374  12.634 -0.8136  2.4739 -1.7401
12448TIP3   OH258758   3.503   1.733   1.936 -0.0644 -0.0291 -0.1863
12448TIP3    H158759   3.482   1.728   1.843 -1.3594 -2.6308  0.1635
12448TIP3    H258760   3.508   1.641   1.965 -0.1819  0.6946  2.4045
12449TIP3   OH258761   5.308   6.305   2.035  0.3018  0.7015 -0.3738
12449TIP3    H158762   5.390   6.352   2.052  0.3785  0.9360 -1.2960
12449TIP3    H258763   5.292   6.320   1.942 -1.2601  1.4058 -0.0162
12450TIP3   OH258764   4.641   1.943  12.177  0.2643 -0.5021 -0.1609
12450TIP3    H158765   4.588   2.011  12.136  1.2991 -0.0562 -0.7911
12450TIP3    H258766   4.728   1.956  12.141  1.2180 -0.1309  2.1231
12451TIP3   OH258767   1.171   5.574  16.290  0.0769 -0.0486  0.5222
12451TIP3    H158768   1.206   5.648  16.340 -1.0238  1.2256 -0.4816
12451TIP3    H258769   1.094   5.546  16.339  0.0632 -0.0296  0.5106
12452TIP3   OH258770   6.594   4.568  10.947 -0.1976  0.6114  0.2743
12452TIP3    H158771   6.652   4.537  10.877 -0.1597  1.0689  0.1012
12452TIP3    H258772   6.643   4.637  10.991 -0.8883  1.5151 -0.3404
12453TIP3   OH258773   1.392   2.505   0.973 -0.3146 -0.5356  0.4768
12453TIP3    H158774   1.390   2.410   0.979 -1.5081 -0.4781  1.1618
12453TIP3    H258775   1.422   2.534   1.059  0.0322 -0.2848  0.2760
12454TIP3   OH258776   5.698   1.640   0.978  1.2397 -0.4489 -0.1662
12454TIP3    H158777   5.614   1.640   1.023  0.2859 -1.1232 -1.8291
12454TIP3    H258778   5.726   1.731   0.979  1.4001 -0.4768  1.9561
12455TIP3   OH258779   3.320   2.757  12.834  0.4778  0.6682  0.0626
12455TIP3    H158780   3.338   2.787  12.745 -0.0123  0.7018 -0.0289
12455TIP3    H258781   3.391   2.696  12.853  0.5268  0.5731 -0.3976
12456TIP3   OH258782   4.935   6.007   1.606 -0.0634 -0.2286 -0.0300
12456TIP3    H158783   5.013   5.957   1.583  0.2777  0.6573 -0.8891
12456TIP3    H258784   4.866   5.974   1.548 -0.1726 -0.5640  0.2833
12457TIP3   OH258785   5.378   6.077   4.525 -0.5157 -0.6252 -0.2294
12457TIP3    H158786   5.305   6.022   4.495 -1.2376  1.2974 -2.3560
12457TIP3    H258787   5.339   6.164   4.536  0.8162 -0.2224  1.8771
12458TIP3   OH258788   5.863   1.446  16.491 -0.0489  0.2840  0.1930
12458TIP3    H158789   5.801   1.437  16.563  0.0423 -0.4488  0.1831
12458TIP3    H258790   5.891   1.537  16.495 -2.3269  1.1011 -0.7719
12459TIP3   OH258791   1.052   1.247   4.008  0.0572  0.1042 -0.2801
12459TIP3    H158792   1.113   1.176   4.027 -1.3427 -0.5924  1.9598
12459TIP3    H258793   1.101   1.327   4.026  1.1162 -0.3217 -1.1660
12460TIP3   OH258794   1.823   6.420   5.424  0.1284  0.3727  0.2885
12460TIP3    H158795   1.786   6.350   5.371  1.4314 -1.3122  1.5009
12460TIP3    H258796   1.752   6.446   5.483 -0.2234 -0.2919  0.1667
12461TIP3   OH258797   6.635   6.082  11.579  0.3151 -0.0619 -0.2889
12461TIP3    H158798   6.629   6.127  11.495  0.8548 -0.0181 -0.3099
12461TIP3    H258799   6.716   6.031  11.573 -0.5213 -1.4253 -0.4453
12462TIP3   OH258800   1.602   2.120  14.800 -0.1824  0.3905 -0.1940
12462TIP3    H158801   1.563   2.051  14.747 -0.5815  0.9438 -0.6459
12462TIP3    H258802   1.680   2.147  14.751 -2.0296  2.8567 -2.1185
12463TIP3   OH258803   5.087   5.481  11.022  0.1280 -0.6414 -0.8510
12463TIP3    H158804   5.065   5.388  11.024  1.2968 -0.9252  0.1652
12463TIP3    H258805   5.015   5.522  10.974  0.5516 -2.3126 -3.0651
12464TIP3   OH258806   1.859   4.160  11.827  0.0674 -0.2002  0.3464
12464TIP3    H158807   1.947   4.144  11.793 -0.0163  0.4552 -0.2212
12464TIP3    H258808   1.818   4.214  11.759 -1.5817 -2.4470 -0.5801
12465TIP3   OH258809   1.458   0.626  11.088 -0.1064  0.3305 -0.5080
12465TIP3    H158810   1.554   0.634  11.093 -0.0537  0.0585 -1.0525
12465TIP3    H258811   1.432   0.695  11.027 -0.1416 -0.3376 -1.2618
12466TIP3   OH258812   6.342   3.255  16.529 -0.0753  0.0877 -0.4197
12466TIP3    H158813   6.335   3.350  16.520  1.1833  0.4093  1.3480
12466TIP3    H258814   6.288   3.235  16.605 -0.4306 -0.6372 -0.8606
12467TIP3   OH258815   5.313   2.234   4.671  0.9795 -0.8533  0.1564
12467TIP3    H158816   5.392   2.286   4.654 -0.4482  1.3519 -0.1631
12467TIP3    H258817   5.278   2.214   4.584 -0.0418  0.2268  0.2990
12468TIP3   OH258818   0.441   1.822   4.266  0.2046 -0.4915  0.0728
12468TIP3    H158819   0.478   1.877   4.334  0.2095  0.7316 -0.8899
12468TIP3    H258820   0.380   1.764   4.313  2.7444 -2.1233  1.5903
12469TIP3   OH258821   5.929   2.397  14.148 -0.3341 -0.5049 -0.1051
12469TIP3    H158822   5.870   2.387  14.073  0.6610 -1.0295 -0.8426
12469TIP3    H258823   5.960   2.487  14.141  0.0409 -0.6641 -0.5487
12470TIP3   OH258824   0.561   4.947   5.545  0.0766 -0.3843  0.2699
12470TIP3    H158825   0.517   4.964   5.628 -1.1137  0.6277 -0.5263
12470TIP3    H258826   0.652   4.974   5.559 -0.5487  1.7220  0.6859
12471TIP3   OH258827   2.021   6.640   0.085  0.2715 -0.8845  0.3475
12471TIP3    H158828   2.045   6.560   0.131  0.2712 -0.7136  0.6426
12471TIP3    H258829   2.093   6.701   0.103  0.6423 -1.0541 -0.4828
12472TIP3   OH258830   5.484   6.774  15.885  0.3817 -0.2452 -0.3736
12472TIP3    H158831   5.418   6.706  15.873  1.5501 -1.4179 -0.3720
12472TIP3    H258832   5.526   6.782  15.799 -1.3004  2.2299 -1.0705
12473TIP3   OH258833   2.109   4.838  13.383  0.5311 -0.4847 -0.4897
12473TIP3    H158834   2.177   4.771  13.393  1.6426  0.7266  0.6012
12473TIP3    H258835   2.079   4.855  13.472 -1.8970 -1.6080 -1.0298
12474TIP3   OH258836   4.979   5.693  14.655 -0.1686  0.0332 -0.6860
12474TIP3    H158837   4.947   5.760  14.715  0.4407  0.6869 -1.0690
12474TIP3    H258838   5.070   5.679  14.681 -0.6254 -1.5628  0.1839
12475TIP3   OH258839   2.790   2.455   5.955  0.0676  0.0166  0.1867
12475TIP3    H158840   2.842   2.471   5.876 -2.4472 -1.2773 -1.8617
12475TIP3    H258841   2.807   2.531   6.010  2.4389  0.6503 -1.2685
12476TIP3   OH258842   5.183   5.171  11.246  0.3639  0.2556 -0.7635
12476TIP3    H158843   5.091   5.146  11.242  0.6013 -0.4634 -2.4471
12476TIP3    H258844   5.181   5.266  11.260 -0.6350  0.3243 -1.3097
12477TIP3   OH258845   2.608   3.344  17.367  0.1317 -0.4122 -0.5792
12477TIP3    H158846   2.564   3.423  17.335  0.3225 -0.2293 -0.3934
12477TIP3    H258847   2.537   3.285  17.392 -0.0106 -0.2482 -0.5958
12478TIP3   OH258848   4.249   0.918  14.875  0.3632 -0.5914  0.1108
12478TIP3    H158849   4.204   0.838  14.847  1.2050 -0.2807 -2.3366
12478TIP3    H258850   4.313   0.935  14.806  0.1266  2.2951  0.4919
12479TIP3   OH258851   4.733   5.438   2.984 -0.0693  0.0639 -0.8331
12479TIP3    H158852   4.741   5.344   3.001 -0.3195  0.2639  0.5336
12479TIP3    H258853   4.764   5.479   3.065 -0.7783  1.1398 -1.0938
12480TIP3   OH258854   6.047   5.857   2.557 -0.0818  0.1483 -0.0155
12480TIP3    H158855   6.066   5.862   2.651 -0.2847 -1.1627  0.1063
12480TIP3    H258856   6.073   5.943   2.524  2.8656 -0.3725  0.7120
12481TIP3   OH258857   2.697   6.316   2.467  0.5702 -0.1298 -0.4965
12481TIP3    H158858   2.764   6.307   2.534 -0.2687  1.4278  0.6084
12481TIP3    H258859   2.632   6.249   2.488  0.7609 -0.2512 -0.3015
12482TIP3   OH258860   4.896   0.047  17.150 -0.0908 -0.1970  0.3188
12482TIP3    H158861   4.868   0.089  17.231  0.6952 -0.3085  0.6489
12482TIP3    H258862   4.967   0.103  17.117 -1.3449  0.6694 -1.0468
12483TIP3   OH258863   2.908   4.253   5.095  0.7939  0.6648 -0.3076
12483TIP3    H158864   2.824   4.263   5.050 -0.1561 -2.0244  0.7041
12483TIP3    H258865   2.913   4.330   5.152  0.0736  1.9579 -1.8776
12484TIP3   OH258866   4.810   6.240   3.926  0.0830  0.6268 -0.2812
12484TIP3    H158867   4.881   6.198   3.974 -0.3061 -0.0281 -0.2586
12484TIP3    H258868   4.842   6.246   3.836 -0.3773 -1.0416 -0.5992
12485TIP3   OH258869   4.089   6.464  16.767  0.1606 -0.0120 -0.4568
12485TIP3    H158870   4.163   6.496  16.818  0.1702  1.2174 -1.1794
12485TIP3    H258871   4.022   6.442  16.832 -0.0462  2.0666  0.1072
12486TIP3   OH258872   4.702   2.096  16.332  0.2816 -0.1058 -0.5018
12486TIP3    H158873   4.626   2.133  16.377  0.8333  1.0277 -0.4695
12486TIP3    H258874   4.692   2.001  16.341 -0.6965  0.0559  0.2023
12487TIP3   OH258875   3.783   5.490   4.648 -0.2254 -0.7785  0.1744
12487TIP3    H158876   3.849   5.437   4.692 -2.4559 -3.3264  0.7302
12487TIP3    H258877   3.831   5.540   4.583  2.3066 -1.9691  1.0253
12488TIP3   OH258878   2.124   3.894   2.644 -0.0030  0.2336  0.2280
12488TIP3    H158879   2.131   3.860   2.733  3.9953  0.7475  0.3050
12488TIP3    H258880   2.135   3.816   2.588 -0.2704  0.2053  0.2130
12489TIP3   OH258881   1.544   2.840   5.021 -0.2979  0.8207 -0.1758
12489TIP3    H158882   1.520   2.871   5.108 -0.1303 -0.1464  0.2240
12489TIP3    H258883   1.463   2.805   4.985 -0.0458 -0.1345  0.1777
12490TIP3   OH258884   3.106   4.016  16.930  0.3532  0.6507 -0.5096
12490TIP3    H158885   3.113   3.993  17.023 -0.7425  1.2908 -0.2490
12490TIP3    H258886   3.017   3.991  16.906  0.1723  1.7570 -1.0297
12491TIP3   OH258887   0.305   5.038   1.756  0.3574  0.1921 -0.3849
12491TIP3    H158888   0.238   4.980   1.719 -0.8871  1.0957  0.3400
12491TIP3    H258889   0.266   5.126   1.749  1.4969  0.7502  0.0361
12492TIP3   OH258890   6.683   5.308  15.583  0.2053 -0.1057  0.0248
12492TIP3    H158891   6.695   5.263  15.666  0.5913  1.6888  1.0052
12492TIP3    H258892   6.594   5.344  15.588  0.2456  0.0466 -0.3250
12493TIP3   OH258893   1.118   4.987   4.244 -0.1083  0.4859  0.1031
12493TIP3    H158894   1.200   5.033   4.258  0.5241 -0.1924 -1.2071
12493TIP3    H258895   1.133   4.900   4.281 -0.3132  0.4259  0.0465
12494TIP3   OH258896   3.856   1.617  14.816  0.0330  0.1488  0.0561
12494TIP3    H158897   3.884   1.594  14.727 -0.3284 -0.5206  0.1046
12494TIP3    H258898   3.936   1.615  14.867  0.7601  3.4177 -0.7768
12495TIP3   OH258899   3.380   1.896  15.603 -0.5018  0.2273  0.2629
12495TIP3    H158900   3.328   1.846  15.666 -1.0342 -0.1150 -0.4331
12495TIP3    H258901   3.341   1.875  15.518  0.0624  0.8573 -0.1600
12496TIP3   OH258902   3.453   3.157   1.421 -0.3997  0.1398 -0.3311
12496TIP3    H158903   3.476   3.128   1.333 -0.4384  0.8036 -0.5607
12496TIP3    H258904   3.434   3.250   1.412 -1.8733 -0.1021  0.1042
12497TIP3   OH258905   0.161   3.569  12.196  0.0078  0.7845  0.2655
12497TIP3    H158906   0.089   3.508  12.210 -0.3931  1.2205  0.1221
12497TIP3    H258907   0.134   3.621  12.121  0.2026  1.3516  0.5836
12498TIP3   OH258908   5.280   3.061  15.498 -0.1353  0.1181 -0.4021
12498TIP3    H158909   5.196   3.069  15.543  0.4057  1.0033  0.5184
12498TIP3    H258910   5.301   2.968  15.502 -0.5406  0.0486  0.3800
12499TIP3   OH258911   3.003   6.438   1.678  0.0038 -0.1365  0.0594
12499TIP3    H158912   3.026   6.529   1.662 -1.6161 -0.0174 -2.1407
12499TIP3    H258913   3.074   6.387   1.639  0.7927  0.1557  1.0820
12500TIP3   OH258914   4.974   0.751   4.233 -0.6134  0.0996 -0.4583
12500TIP3    H158915   4.886   0.748   4.269 -1.2189 -2.3655 -1.8877
12500TIP3    H258916   4.982   0.839   4.195 -1.4776  1.2211  1.8088
12501TIP3   OH258917   0.474   1.409   0.832  0.2024  0.3698 -0.3665
12501TIP3    H158918   0.407   1.401   0.765 -0.0507 -1.6896  0.0709
12501TIP3    H258919   0.486   1.320   0.865  2.3059  0.8751  0.3905
12502TIP3   OH258920   1.384   5.419   3.913  0.4887  0.3759 -0.3797
12502TIP3    H158921   1.444   5.464   3.854  3.9181 -0.3482  2.2591
12502TIP3    H258922   1.390   5.467   3.995 -1.2489 -0.8009  0.5075
12503TIP3   OH258923   6.132   2.588   1.704 -0.8013 -0.0590  0.3798
12503TIP3    H158924   6.219   2.565   1.738 -0.4232  2.6618  1.5656
12503TIP3    H258925   6.148   2.662   1.646 -2.0918 -1.3124 -1.6872
12504TIP3   OH258926   4.884   3.182  14.108  0.2907 -0.0261  0.7437
12504TIP3    H158927   4.957   3.120  14.102 -0.3934 -0.8053  0.2905
12504TIP3    H258928   4.813   3.140  14.058  0.3785  1.9482 -1.2037
12505TIP3   OH258929   4.211   2.377  13.320  0.1923  0.1996  0.4124
12505TIP3    H158930   4.248   2.292  13.345  1.0577  0.9170  1.7103
12505TIP3    H258931   4.116   2.362  13.316  0.3339 -0.8243  0.6043
12506TIP3   OH258932   4.662   4.363  15.685 -0.0357 -0.4990 -0.5539
12506TIP3    H158933   4.674   4.294  15.620  1.4514 -0.5000 -0.2999
12506TIP3    H258934   4.607   4.428  15.640 -0.0145 -1.0435 -1.3916
12507TIP3   OH258935   6.745   1.813  11.678 -0.4809  0.5675  0.5000
12507TIP3    H158936   6.826   1.849  11.641  0.3176 -0.5540  1.1174
12507TIP3    H258937   6.773   1.766  11.756 -1.6419 -0.4844  0.3062
12508TIP3   OH258938   0.814   2.465  12.056  0.1875 -0.2020  0.7858
12508TIP3    H158939   0.771   2.429  12.133 -1.6402 -1.1639 -0.5967
12508TIP3    H258940   0.905   2.436  12.063 -0.3322 -1.6770  1.7393
12509TIP3   OH258941   1.796   3.549   5.444 -0.4209  0.1682  0.0526
12509TIP3    H158942   1.738   3.531   5.518 -1.7910 -0.0428 -1.0348
12509TIP3    H258943   1.848   3.624   5.473 -1.5134  0.6204  0.9271
12510TIP3   OH258944   3.378   1.929   2.075 -0.6647  0.1511 -0.0455
12510TIP3    H158945   3.429   1.864   2.027  0.7469 -0.4918  2.1769
12510TIP3    H258946   3.443   1.981   2.122 -1.8535  2.1791 -0.5112
12511TIP3   OH258947   5.616   4.054   2.982  0.0381  0.4420  0.4224
12511TIP3    H158948   5.709   4.068   3.001 -0.0986  1.2238  0.5577
12511TIP3    H258949   5.586   3.996   3.052  0.6672 -0.7558 -0.2593
12512TIP3   OH258950   5.763   0.948  15.543  0.3825 -0.2030 -0.2423
12512TIP3    H158951   5.709   0.953  15.621  0.4341 -1.4216 -0.1177
12512TIP3    H258952   5.806   1.034  15.538  2.0194 -0.7703  2.2513
12513TIP3   OH258953   3.931   6.051  10.958  0.4713 -0.5171 -0.3842
12513TIP3    H158954   3.858   6.024  10.901 -2.1284 -0.4978  2.6688
12513TIP3    H258955   3.962   6.132  10.919 -2.8071  0.7942 -0.6081
12514TIP3   OH258956   0.035   4.384  13.270 -0.1553  0.4269  0.4396
12514TIP3    H158957   0.079   4.451  13.322 -0.2519  0.4722  0.4629
12514TIP3    H258958  -0.030   4.346  13.330  1.7780 -1.6627  1.3793
12515TIP3   OH258959   1.332   3.701  16.495 -0.4048 -1.0677 -0.0627
12515TIP3    H158960   1.295   3.620  16.460  1.4553 -2.4011  0.9211
12515TIP3    H258961   1.304   3.703  16.587  0.0713 -0.9217  0.0817
12516TIP3   OH258962   0.416   3.782  13.040  0.2089 -0.0341 -0.2120
12516TIP3    H158963   0.375   3.708  12.994  0.6613  0.8432 -2.1553
12516TIP3    H258964   0.501   3.749  13.068  0.4285 -0.2652 -1.1109
12517TIP3   OH258965   4.693   6.195  15.764  0.0751 -0.4434  0.1675
12517TIP3    H158966   4.602   6.218  15.743  0.5387  0.2808 -1.1637
12517TIP3    H258967   4.705   6.108  15.727  0.5647  0.3840 -1.7013
12518TIP3   OH258968   0.663   0.619  16.781  0.3445 -0.0326  0.2136
12518TIP3    H158969   0.692   0.580  16.699  1.0357 -1.1795  0.9654
12518TIP3    H258970   0.577   0.580  16.797  0.7212 -0.7443  0.5984
12519TIP3   OH258971   1.469   5.392   2.478  0.2200  0.5073  0.0264
12519TIP3    H158972   1.501   5.463   2.421 -0.9807 -0.1649 -1.5747
12519TIP3    H258973   1.460   5.317   2.419  0.6991 -0.7662  1.5285
12520TIP3   OH258974   0.878   1.297  11.316  0.2551 -0.0103  0.1284
12520TIP3    H158975   0.816   1.254  11.258 -1.4489 -0.1978  2.0026
12520TIP3    H258976   0.841   1.384  11.332 -0.5084 -0.7001  2.5829
12521TIP3   OH258977   6.125   5.514  14.663  0.2462 -0.4458 -0.7696
12521TIP3    H158978   6.097   5.424  14.683 -0.1744  0.2901  2.5724
12521TIP3    H258979   6.075   5.568  14.724  1.5816  1.9518 -1.6843
12522TIP3   OH258980   1.473   5.317   2.748  0.5388 -0.1848  1.0529
12522TIP3    H158981   1.426   5.248   2.701 -1.1474  1.1321  0.7083
12522TIP3    H258982   1.522   5.364   2.680 -1.3987  1.3232  0.6117
12523TIP3   OH258983   0.346   2.497  11.236 -0.1847  0.2980  0.6652
12523TIP3    H158984   0.299   2.417  11.213 -0.3677  0.5207  0.2420
12523TIP3    H258985   0.429   2.467  11.273 -0.6634 -0.0985  1.4190
12524TIP3   OH258986   5.421   1.713   3.747  0.1416 -0.3647  0.2262
12524TIP3    H158987   5.445   1.804   3.766  1.4177 -0.4818 -0.7237
12524TIP3    H258988   5.407   1.711   3.652 -0.2189 -1.0907  0.2904
12525TIP3   OH258989   0.268   3.745   2.042 -0.0710  0.2276  0.8264
12525TIP3    H158990   0.186   3.766   2.087 -1.2947 -2.0144 -0.2355
12525TIP3    H258991   0.273   3.808   1.971 -0.6783  0.6030  1.1092
12526TIP3   OH258992   0.755   1.032   0.100  0.1967 -0.1792  0.3671
12526TIP3    H158993   0.760   0.980   0.019 -0.2385 -1.4401  1.1152
12526TIP3    H258994   0.728   1.119   0.071  0.6745 -0.4284 -0.9070
12527TIP3   OH258995   3.622   2.462  12.561 -0.0221 -0.3104 -0.1665
12527TIP3    H158996   3.693   2.521  12.587 -0.7771 -0.1795  1.7300
12527TIP3    H258997   3.584   2.503  12.483 -0.7825  1.9793  1.3068
12528TIP3   OH258998   6.256   4.832  11.876 -0.5566 -0.2031 -0.2162
12528TIP3    H158999   6.287   4.764  11.936  0.6714 -1.3564 -2.0545
12528TIP3    H259000   6.267   4.914  11.923  0.4689 -1.0604  1.0779
12529TIP3   OH259001   2.469   2.671   5.915  0.0721  0.2024 -0.3957
12529TIP3    H159002   2.395   2.623   5.877  1.1027 -1.4559 -0.4025
12529TIP3    H259003   2.439   2.694   6.003 -0.4358 -0.5549 -0.3576
12530TIP3   OH259004   6.700   0.892  15.039 -0.3927  0.0122 -0.1338
12530TIP3    H159005   6.645   0.815  15.052 -1.6929  0.9187 -0.1511
12530TIP3    H259006   6.680   0.950  15.112  1.9885 -0.4209  0.9477
12531TIP3   OH259007   3.870   3.829   0.380 -0.1019 -0.2717  0.0426
12531TIP3    H159008   3.783   3.850   0.415 -0.8058 -1.3025 -1.0230
12531TIP3    H259009   3.856   3.753   0.324  1.4495 -0.2872 -0.3729
12532TIP3   OH259010   2.264   6.423  16.968 -0.1513  0.4129  0.4516
12532TIP3    H159011   2.340   6.366  16.977  0.2513  0.7280 -0.7606
12532TIP3    H259012   2.296   6.510  16.992  0.7856  1.1565 -2.8731
12533TIP3   OH259013   0.006   3.468   3.521  0.4371  0.4654  0.8028
12533TIP3    H159014   0.096   3.500   3.512  0.6446 -0.4655 -0.9033
12533TIP3    H259015   0.007   3.382   3.478 -1.0353 -0.0312  1.6964
12534TIP3   OH259016   3.322   4.106  16.795  0.5262  0.3365  0.1015
12534TIP3    H159017   3.389   4.050  16.834 -0.2250 -1.3230 -0.8987
12534TIP3    H259018   3.239   4.073  16.830  0.1723  3.0488  2.2092
12535TIP3   OH259019   5.197   6.221  16.148  0.1808 -0.5625 -0.4721
12535TIP3    H159020   5.116   6.232  16.198  1.4761  1.2547  1.3649
12535TIP3    H259021   5.220   6.129  16.160  0.0783 -0.3493  1.7768
12536TIP3   OH259022   2.032   0.625  17.329  0.6380 -0.0732  0.7004
12536TIP3    H159023   2.008   0.624  17.237  0.0678 -0.0076  0.8423
12536TIP3    H259024   2.021   0.534  17.358  0.3727 -0.0064  0.8125
12537TIP3   OH259025   4.718   4.613  16.441  0.0193  0.0324 -0.4229
12537TIP3    H159026   4.679   4.666  16.511 -0.6789 -1.0639  0.0298
12537TIP3    H259027   4.793   4.665  16.411  0.4212  0.4468  1.2305
12538TIP3   OH259028   1.348   5.531   1.753 -0.0880 -0.1695 -0.4469
12538TIP3    H159029   1.346   5.438   1.732  1.8533 -0.0817 -1.2635
12538TIP3    H259030   1.411   5.538   1.825  0.6793  0.6096 -1.1649
12539TIP3   OH259031   5.801   3.874   0.601  0.5666 -0.7062 -0.1235
12539TIP3    H159032   5.759   3.959   0.616  1.6100 -0.0249 -0.9165
12539TIP3    H259033   5.733   3.810   0.622 -0.0420  0.2990  1.1412
12540TIP3   OH259034   6.315   0.678  13.053  0.1656 -0.5822  0.1576
12540TIP3    H159035   6.390   0.685  12.994 -0.0191 -0.4701 -0.0639
12540TIP3    H259036   6.353   0.669  13.140  0.4597 -1.5332 -0.0536
12541TIP3   OH259037   5.111   0.935  14.037  0.1310  0.0318  0.5456
12541TIP3    H159038   5.052   0.879  13.987 -0.0473  0.7637 -0.0809
12541TIP3    H259039   5.063   0.953  14.118  0.7514 -1.8039  1.3745
12542TIP3   OH259040   1.274   3.951   6.532  0.1814  0.2252 -0.2346
12542TIP3    H159041   1.199   3.895   6.553  1.3685 -1.3340 -0.0480
12542TIP3    H259042   1.326   3.952   6.611  0.0197  1.9458 -0.1022
12543TIP3   OH259043   4.956   0.230   0.462  0.1805  0.4975 -0.3605
12543TIP3    H159044   5.041   0.193   0.483 -0.1446  1.6285  3.9607
12543TIP3    H259045   4.894   0.158   0.477  0.1845  0.4404 -0.6245
12544TIP3   OH259046   2.315   2.655  11.996 -0.1945  0.2080 -0.1017
12544TIP3    H159047   2.370   2.656  12.074 -0.1993  0.6807 -0.1004
12544TIP3    H259048   2.228   2.633  12.029 -0.0986 -0.0725 -0.0392
12545TIP3   OH259049   1.317   3.891   5.434  0.1269 -0.4053 -0.0033
12545TIP3    H159050   1.294   3.861   5.346  1.0798 -1.5714  0.1068
12545TIP3    H259051   1.389   3.833   5.461 -0.2831 -0.2191  1.6255
12546TIP3   OH259052   2.639   6.254  11.728  0.0267 -0.1514  0.3205
12546TIP3    H159053   2.706   6.206  11.679  0.5304 -0.0214  0.8635
12546TIP3    H259054   2.669   6.250  11.819 -0.0889  0.9280  0.4171
12547TIP3   OH259055   0.130   0.812   6.391 -0.2863 -0.5752 -0.0038
12547TIP3    H159056   0.172   0.746   6.446 -0.1468 -1.0539 -0.6694
12547TIP3    H259057   0.190   0.822   6.317 -0.2169  0.4372  0.1801
12548TIP3   OH259058   1.458   6.526  12.973  0.1357 -0.0871 -0.1608
12548TIP3    H159059   1.374   6.481  12.965 -0.4990  1.3553 -2.0387
12548TIP3    H259060   1.518   6.476  12.917  0.4864 -0.9024  0.9000
12549TIP3   OH259061   1.281   3.202   0.993  0.0352  0.0176 -0.2893
12549TIP3    H159062   1.229   3.129   1.027  0.6385  0.3519  1.4723
12549TIP3    H259063   1.371   3.179   1.016  0.5357  0.1127 -2.0404
12550TIP3   OH259064   4.391   4.489  16.456 -0.5849 -0.3005 -0.1314
12550TIP3    H159065   4.455   4.548  16.415 -1.3095 -0.2393 -1.2152
12550TIP3    H259066   4.440   4.409  16.473 -0.3466 -0.4587 -1.4714
12551TIP3   OH259067   4.415   3.537   2.358  0.3909  0.1605  0.0106
12551TIP3    H159068   4.433   3.449   2.325 -0.1264 -0.0715  0.3341
12551TIP3    H259069   4.501   3.576   2.371  0.6205  0.1087 -1.2065
12552TIP3   OH259070   3.030   2.762  12.602  0.2487  0.3910  0.2491
12552TIP3    H159071   2.957   2.704  12.580  1.3400 -0.2928 -1.8746
12552TIP3    H259072   2.991   2.831  12.656 -1.6503 -0.7417  0.4101
12553TIP3   OH259073   2.949   5.795  15.271 -0.1942 -0.3291 -0.0768
12553TIP3    H159074   3.031   5.845  15.272  1.1712 -2.3924 -1.3685
12553TIP3    H259075   2.954   5.740  15.349  0.2458 -1.3266 -0.7991
12554TIP3   OH259076   3.226   1.156   5.443  0.0542  0.4014  0.4004
12554TIP3    H159077   3.318   1.181   5.446  0.0731  0.2789  0.9845
12554TIP3    H259078   3.179   1.238   5.427  0.3127  0.3491 -0.6613
12555TIP3   OH259079   1.904   5.643   3.435 -0.0105  0.6300 -0.0918
12555TIP3    H159080   1.962   5.568   3.448 -1.2198 -0.1972  0.7343
12555TIP3    H259081   1.903   5.656   3.340 -1.1979 -1.6073 -0.4596
12556TIP3   OH259082   5.024   4.748   3.940 -0.4961 -0.3154  0.0085
12556TIP3    H159083   4.975   4.696   4.004 -0.3182 -1.5148 -0.7811
12556TIP3    H259084   4.957   4.786   3.884 -0.6114 -0.1025  0.2884
12557TIP3   OH259085   1.605   4.190  11.934  0.2251 -0.0018  0.4780
12557TIP3    H159086   1.583   4.118  11.875 -1.9055  1.0377 -0.0870
12557TIP3    H259087   1.681   4.231  11.893  0.1909 -0.6764 -0.2979
12558TIP3   OH259088   4.944   1.863   2.742  0.0485  0.4762 -0.4152
12558TIP3    H159089   4.864   1.879   2.693  0.5955  2.1338 -0.8458
12558TIP3    H259090   5.002   1.936   2.719  1.7812 -0.7847 -0.2979
12559TIP3   OH259091   0.989   4.327   0.004 -0.0677  0.1745  0.1098
12559TIP3    H159092   1.004   4.244   0.048 -1.3654 -0.9454 -1.4515
12559TIP3    H259093   0.902   4.318  -0.035  1.5864  0.3920 -4.0723
12560TIP3   OH259094   5.120   0.493   1.270 -0.2416 -0.5593  0.0361
12560TIP3    H159095   5.030   0.504   1.300 -0.3244 -1.5320  0.1871
12560TIP3    H259096   5.113   0.447   1.186  0.1124 -0.7770  0.1202
12561TIP3   OH259097   2.247   2.666  13.693  0.6508  0.3313  0.0701
12561TIP3    H159098   2.178   2.600  13.685  0.9042  0.1332 -0.5131
12561TIP3    H259099   2.303   2.633  13.763  1.2610 -0.5314 -0.7935
12562TIP3   OH259100   3.577   2.810  14.789  0.7183 -0.0577 -0.1240
12562TIP3    H159101   3.616   2.724  14.777 -0.7936 -0.9291  0.8264
12562TIP3    H259102   3.549   2.811  14.881 -0.9994  0.6694 -0.6024
12563TIP3   OH259103   0.458   1.402   5.973 -0.7466  0.6528 -0.4737
12563TIP3    H159104   0.510   1.426   6.050  0.4706  2.3682 -1.7617
12563TIP3    H259105   0.504   1.327   5.935 -1.0182  0.1782  0.1213
12564TIP3   OH259106   5.744   1.464  12.613 -0.4640  0.3931 -0.3700
12564TIP3    H159107   5.673   1.474  12.549 -0.3295  1.6789 -0.3438
12564TIP3    H259108   5.700   1.437  12.694 -0.9690  1.4611 -0.2777
12565TIP3   OH259109   2.309   6.460  13.411  0.1967  0.6803 -0.2294
12565TIP3    H159110   2.254   6.474  13.333 -0.8404  0.2318  0.3991
12565TIP3    H259111   2.364   6.538  13.415 -2.5188  2.7054  0.8126
12566TIP3   OH259112   0.071   1.061  12.704  0.0332  0.0422  0.0092
12566TIP3    H159113   0.111   0.974  12.708 -2.0953 -0.9506  2.1871
12566TIP3    H259114   0.143   1.120  12.726  1.2824 -1.2533 -0.4277
12567TIP3   OH259115   4.751   2.138  14.479 -1.1298 -0.2692 -0.3061
12567TIP3    H159116   4.717   2.180  14.559 -0.0082  0.7560 -0.3531
12567TIP3    H259117   4.793   2.209  14.431  0.2306 -1.3208 -0.7031
12568TIP3   OH259118   6.663   4.480  16.410 -0.6494  0.1383  0.0676
12568TIP3    H159119   6.674   4.554  16.470 -2.4158  1.3820 -1.0671
12568TIP3    H259120   6.598   4.509  16.346 -0.8657 -2.1375 -0.8620
12569TIP3   OH259121   5.416   0.219  14.079  0.1880  0.1822 -0.1900
12569TIP3    H159122   5.416   0.310  14.109 -2.7871  0.1060  0.3306
12569TIP3    H259123   5.483   0.216  14.011  0.2136  2.8177 -0.3722
12570TIP3   OH259124   1.097   0.949   2.442 -0.5641 -0.3777  0.1680
12570TIP3    H159125   1.082   0.957   2.348  1.5060  0.8032 -0.1020
12570TIP3    H259126   1.189   0.923   2.450  0.3295  2.8619  1.8996
12571TIP3   OH259127   0.524   5.055   3.514  0.3356 -0.5631  0.3242
12571TIP3    H159128   0.579   5.116   3.466  0.3559 -0.6792  0.1997
12571TIP3    H259129   0.568   5.044   3.598 -1.0737  1.7481  1.4891
12572TIP3   OH259130   0.700   3.698   2.025  0.1505  0.4681  0.1820
12572TIP3    H159131   0.722   3.791   2.023 -1.3349  0.8600  0.8375
12572TIP3    H259132   0.609   3.694   1.997  0.3911 -0.8754 -0.5062
12573TIP3   OH259133   1.746   0.053  11.782 -0.4569  0.6267 -0.8116
12573TIP3    H159134   1.730   0.109  11.858  0.3833 -1.7325  1.2556
12573TIP3    H259135   1.660   0.015  11.762 -0.2085 -1.1428  1.1041
12574TIP3   OH259136   0.579   3.368   5.025  0.4436  0.1817 -0.4408
12574TIP3    H159137   0.572   3.376   4.930  0.4139 -2.3195 -0.7161
12574TIP3    H259138   0.651   3.306   5.039  0.2666  0.2837  1.1693
12575TIP3   OH259139   3.095   5.530  13.397  0.1474 -0.5043 -0.4776
12575TIP3    H159140   3.086   5.532  13.493 -0.0344  0.3018 -0.5008
12575TIP3    H259141   3.126   5.618  13.374 -0.4465 -0.4758 -1.2145
12576TIP3   OH259142   1.333   3.691   0.784 -0.1084  0.4894 -0.1182
12576TIP3    H159143   1.351   3.658   0.696 -1.8376  1.0027 -0.7087
12576TIP3    H259144   1.399   3.649   0.840  0.4626 -0.5301 -1.5061
12577TIP3   OH259145   2.486   2.613   3.951  0.8619 -0.6111  0.3407
12577TIP3    H159146   2.481   2.707   3.934  1.7900 -0.1176  2.5935
12577TIP3    H259147   2.579   2.591   3.945  0.8169 -1.0942  1.1949
12578TIP3   OH259148   1.296   0.011  12.484  0.2172 -0.0594  0.7933
12578TIP3    H159149   1.305   0.081  12.420 -1.6928  0.8481  1.4354
12578TIP3    H259150   1.279  -0.068  12.432 -0.4336  0.4972  0.1563
12579TIP3   OH259151   1.673   6.109   4.245 -0.0594 -0.7219  0.2801
12579TIP3    H159152   1.670   6.014   4.234  0.7402 -0.6260 -1.1176
12579TIP3    H259153   1.584   6.133   4.269 -0.1307 -1.8781  1.2788
12580TIP3   OH259154   0.020   0.795   1.120 -0.5029 -0.6398 -0.8905
12580TIP3    H159155   0.006   0.792   1.215  0.9561  1.0022 -0.5786
12580TIP3    H259156  -0.046   0.856   1.088 -0.0031  0.0331 -0.6792
12581TIP3   OH259157   5.497   2.028   2.574 -0.0996  0.2006  0.0366
12581TIP3    H159158   5.483   1.973   2.651  1.2184  0.2266  0.3072
12581TIP3    H259159   5.415   2.020   2.524 -0.3381 -1.1543  0.6032
12582TIP3   OH259160   6.618   5.229  16.448 -0.7686  0.2553  0.1616
12582TIP3    H159161   6.624   5.311  16.398  4.4570  1.1869  1.7149
12582TIP3    H259162   6.563   5.251  16.523 -1.4584  1.5236 -0.6729
12583TIP3   OH259163   4.528   2.264   1.043 -0.0114  0.0720  0.4088
12583TIP3    H159164   4.496   2.353   1.031  0.5161  0.1138 -0.8857
12583TIP3    H259165   4.596   2.254   0.976 -0.0341 -1.2873  0.5571
12584TIP3   OH259166   4.934   4.196  16.860  0.4468  0.3749  0.4631
12584TIP3    H159167   4.929   4.100  16.867 -0.9059  0.4494  0.7662
12584TIP3    H259168   4.845   4.223  16.840  0.8233  1.5834  0.3555
12585TIP3   OH259169   2.364   1.494   4.210  0.3599 -0.4897  0.4409
12585TIP3    H159170   2.336   1.581   4.183  0.0797 -1.2685 -2.0347
12585TIP3    H259171   2.446   1.508   4.257  0.8068  1.0459 -0.7261
12586TIP3   OH259172   5.594   3.648   3.234  0.1636 -0.7876  0.7792
12586TIP3    H159173   5.523   3.621   3.176  0.1492 -1.6063  1.1546
12586TIP3    H259174   5.609   3.571   3.291  2.4208 -1.2396 -0.3083
12587TIP3   OH259175   3.872   3.957   5.524  0.1360  0.0905 -0.2510
12587TIP3    H159176   3.963   3.931   5.508  0.3023  0.0216  0.7391
12587TIP3    H259177   3.877   4.018   5.597 -0.7595 -1.2105  0.9647
12588TIP3   OH259178   5.762   2.010  17.347 -0.0668  0.1663 -0.2057
12588TIP3    H159179   5.854   2.031  17.367  0.4229 -2.6291  1.0329
12588TIP3    H259180   5.713   2.043  17.423  0.4909 -1.6178  1.0070
12589TIP3   OH259181   6.154   6.114   3.550  0.2928  0.5470  0.6021
12589TIP3    H159182   6.075   6.071   3.583  0.5481 -0.1807  0.2655
12589TIP3    H259183   6.223   6.084   3.609  0.7186 -0.6078 -0.4576
12590TIP3   OH259184   1.033   5.017  11.730  0.4674  0.0889  0.3423
12590TIP3    H159185   0.999   5.013  11.819  1.9705  0.9652  0.9979
12590TIP3    H259186   1.128   5.017  11.740  0.7017  2.2324 -1.1059
12591TIP3   OH259187   2.397   1.671   0.625 -0.3611 -1.0382 -0.9845
12591TIP3    H159188   2.405   1.629   0.539 -2.0641  0.7470 -2.1168
12591TIP3    H259189   2.325   1.625   0.668 -0.0869 -1.3623 -0.8690
12592TIP3   OH259190   4.559   3.791  13.286 -0.3625 -0.0253 -0.5201
12592TIP3    H159191   4.626   3.774  13.352 -0.0747  0.4528 -0.6846
12592TIP3    H259192   4.595   3.862  13.233 -1.7610  1.5400  0.5130
12593TIP3   OH259193   6.349   6.712   3.170  0.8670  0.1217 -0.2240
12593TIP3    H159194   6.266   6.747   3.202  0.4578 -0.1842 -0.9085
12593TIP3    H259195   6.364   6.758   3.088  0.9474 -0.4034 -0.5124
12594TIP3   OH259196   1.141   2.105  15.458 -0.0631 -0.0402  0.1401
12594TIP3    H159197   1.074   2.131  15.522  0.3135  2.2045 -0.2865
12594TIP3    H259198   1.131   2.169  15.387  1.0392 -1.0824 -0.9843
12595TIP3   OH259199   5.455   0.676  11.848 -0.3570 -0.0854  0.6528
12595TIP3    H159200   5.485   0.762  11.817  3.2780 -0.5335  2.3840
12595TIP3    H259201   5.400   0.643  11.778  1.1319  2.1289 -1.7503
12596TIP3   OH259202   2.631   6.201  12.964 -0.2265  0.1369  0.3728
12596TIP3    H159203   2.614   6.114  12.999 -0.2504  0.1530  0.4022
12596TIP3    H259204   2.681   6.186  12.884 -0.1750  0.0988  0.4122
12597TIP3   OH259205   4.773   0.606   5.704  0.0899 -0.0908 -0.0573
12597TIP3    H159206   4.825   0.686   5.711 -0.9829  0.8471 -1.9593
12597TIP3    H259207   4.837   0.537   5.691  0.9742  0.6667  0.1304
12598TIP3   OH259208   0.722   4.123   2.150 -0.0455 -0.0642  0.1279
12598TIP3    H159209   0.784   4.127   2.077 -0.6311  0.7617 -0.3437
12598TIP3    H259210   0.764   4.065   2.214  0.8582 -0.1324 -0.5048
12599TIP3   OH259211   4.855   2.361  15.408 -0.1939  0.3054 -0.1449
12599TIP3    H159212   4.827   2.452  15.399 -0.8313  0.0345 -0.9419
12599TIP3    H259213   4.894   2.339  15.324  2.4025  0.6379  0.8837
12600TIP3   OH259214   0.200   0.930  12.415  0.1941  0.6508  0.3390
12600TIP3    H159215   0.150   1.008  12.391  0.4879  1.1351  1.2925
12600TIP3    H259216   0.275   0.931  12.356  1.1868  2.1262  1.5558
12601TIP3   OH259217   2.304   1.740  11.835  0.2642 -0.0326  0.7843
12601TIP3    H159218   2.292   1.684  11.912 -1.5103 -0.4038  0.2748
12601TIP3    H259219   2.284   1.684  11.760  3.0657 -0.0012 -0.1102
12602TIP3   OH259220   3.924   6.153  12.598 -0.3283  0.1027 -0.3724
12602TIP3    H159221   3.886   6.069  12.624 -0.2566  0.1943  0.0313
12602TIP3    H259222   3.859   6.193  12.541 -1.6629  1.0660  1.7111
12603TIP3   OH259223   6.426   3.646  12.621  0.3473  0.2255  0.6803
12603TIP3    H159224   6.400   3.581  12.686  0.4247 -0.4974  0.0096
12603TIP3    H259225   6.400   3.730  12.659  1.3171 -0.0708  2.0940
12604TIP3   OH259226   4.972   1.648   4.437 -0.0163 -0.3819 -0.4236
12604TIP3    H159227   4.908   1.578   4.425 -0.3896  0.1909 -2.0149
12604TIP3    H259228   5.039   1.631   4.371 -0.1490  0.7875 -0.8806
12605TIP3   OH259229   4.501   1.691   3.118 -0.2250  0.7209 -0.7020
12605TIP3    H159230   4.565   1.749   3.077  0.4120  0.1179 -0.5745
12605TIP3    H259231   4.547   1.607   3.128 -0.5386  0.6856  0.7071
12606TIP3   OH259232   6.746   5.185   2.269 -0.5629  0.0659 -0.7086
12606TIP3    H159233   6.827   5.135   2.259 -0.2170  0.1341  1.2938
12606TIP3    H259234   6.694   5.164   2.191  0.5667 -1.5262 -1.0728
12607TIP3   OH259235   4.306   0.332  17.299  0.6318  0.2354 -1.2002
12607TIP3    H159236   4.342   0.387  17.229  0.6661  0.2543 -1.1684
12607TIP3    H259237   4.276   0.253  17.255 -1.3693  1.1501 -1.5745
12608TIP3   OH259238   1.063   3.235  14.648  0.8671  0.2521 -0.6300
12608TIP3    H159239   1.092   3.192  14.567  3.4668  2.1273 -0.8334
12608TIP3    H259240   1.121   3.201  14.715 -0.7146 -0.6374  0.3389
12609TIP3   OH259241   5.618   0.143  14.272  0.1721  0.2217  0.2491
12609TIP3    H159242   5.641   0.233  14.294 -0.1576  0.2266  0.5774
12609TIP3    H259243   5.563   0.152  14.194  0.3680  0.2838  0.1163
12610TIP3   OH259244   5.055   3.429   2.971  0.4231 -0.2104  0.2844
12610TIP3    H159245   5.106   3.507   2.949 -3.3331  1.9476 -1.7029
12610TIP3    H259246   5.026   3.394   2.887 -1.1001 -1.5209  1.2879
12611TIP3   OH259247   0.819   4.513  16.223 -0.1911  0.1272 -0.3958
12611TIP3    H159248   0.877   4.475  16.157 -0.4337 -0.6750 -0.1684
12611TIP3    H259249   0.836   4.461  16.302 -1.9996 -0.8992 -0.6156
12612TIP3   OH259250   3.237   6.427  17.232 -0.1243 -0.3131 -0.0921
12612TIP3    H159251   3.264   6.483  17.304  1.7877  0.0424 -1.0059
12612TIP3    H259252   3.192   6.353  17.274 -0.0444  0.4252  1.3480
12613TIP3   OH259253   6.147   5.291   4.965 -0.2918 -0.0762 -0.4329
12613TIP3    H159254   6.206   5.329   5.031 -0.9307 -1.0806  0.7587
12613TIP3    H259255   6.094   5.364   4.935  1.1741  0.7483 -1.1455
12614TIP3   OH259256   2.779   1.526   1.931 -0.4636 -0.5988 -0.0297
12614TIP3    H159257   2.761   1.509   1.839 -1.3069  0.1495 -0.0147
12614TIP3    H259258   2.761   1.619   1.942  0.8240 -0.4085  0.6257
12615TIP3   OH259259   3.503   2.133   0.129  0.0119  0.2669  0.2346
12615TIP3    H159260   3.472   2.131   0.038 -0.5607 -3.0940  0.3948
12615TIP3    H259261   3.427   2.107   0.180  1.3682 -2.0382  1.2258
12616TIP3   OH259262   3.172   4.228   3.146  0.6585  0.6917  0.0337
12616TIP3    H159263   3.123   4.281   3.083  1.3283  1.6555  0.3131
12616TIP3    H259264   3.175   4.281   3.225  1.9078  0.5171  0.1193
12617TIP3   OH259265   3.337   1.007  15.682  0.5378 -0.5470  0.3509
12617TIP3    H159266   3.327   1.004  15.777 -1.8668 -0.7623  0.1554
12617TIP3    H259267   3.315   0.919  15.653  0.0876 -0.1802 -0.4624
12618TIP3   OH259268   6.647   6.312   0.007 -0.1721 -1.0249  0.1409
12618TIP3    H159269   6.673   6.243  -0.053 -1.3155 -1.1778 -0.2067
12618TIP3    H259270   6.669   6.279   0.094  1.1199 -0.9685 -0.1556
12619TIP3   OH259271   2.248   6.161   1.014 -0.5994 -0.4486  0.4200
12619TIP3    H159272   2.242   6.208   0.931  1.7210 -0.7325  0.0406
12619TIP3    H259273   2.332   6.187   1.052 -0.5351 -2.0965  1.5514
12620TIP3   OH259274   2.220   0.309   5.898 -0.0528  0.1872 -0.0768
12620TIP3    H159275   2.263   0.305   5.983  0.0060  0.8571 -0.0731
12620TIP3    H259276   2.211   0.402   5.879 -0.6014  0.0510 -0.5365
12621TIP3   OH259277   1.560   4.489   5.701 -0.3254 -0.0108 -0.2349
12621TIP3    H159278   1.493   4.421   5.691 -1.0028  0.6788 -0.5655
12621TIP3    H259279   1.598   4.473   5.787  0.2556 -1.4247 -0.7312
12622TIP3   OH259280   4.793   2.741  13.135 -0.1506 -0.1537 -0.2657
12622TIP3    H159281   4.851   2.816  13.118  2.1976 -1.8845 -0.2516
12622TIP3    H259282   4.852   2.669  13.156 -2.3718 -1.8937  0.3326
12623TIP3   OH259283   3.996   6.176   1.279 -0.4089 -0.3387 -0.0277
12623TIP3    H159284   4.007   6.092   1.325 -0.0328 -1.0404 -1.3481
12623TIP3    H259285   3.949   6.153   1.199  0.0108  0.6648 -0.5749
12624TIP3   OH259286   4.166   2.781   4.731  0.0763 -0.6599  0.0325
12624TIP3    H159287   4.262   2.776   4.723  0.1890  0.3749  0.4943
12624TIP3    H259288   4.136   2.691   4.722  1.0522 -0.9219 -0.6853
12625TIP3   OH259289   6.726   5.100  15.815  0.2650  0.0805 -0.0959
12625TIP3    H159290   6.636   5.085  15.787 -0.1897  0.9669  0.8355
12625TIP3    H259291   6.721   5.104  15.911  1.1518  0.9839 -0.0728
12626TIP3   OH259292   1.702   2.233  12.987  0.5033  0.7481  0.4037
12626TIP3    H159293   1.735   2.205  12.901  1.1641  1.8141  0.3012
12626TIP3    H259294   1.780   2.239  13.042  0.0526 -0.2172  1.1818
12627TIP3   OH259295   4.908   1.693  16.962 -0.3844  0.4913  0.0336
12627TIP3    H159296   4.995   1.700  16.922  0.7017 -0.4036  2.0864
12627TIP3    H259297   4.881   1.784  16.975  1.0826  0.8297  1.0089
12628TIP3   OH259298   3.259   6.300  13.942  0.8427 -0.8128 -0.0385
12628TIP3    H159299   3.192   6.315  13.875  0.9002  0.6505  0.1901
12628TIP3    H259300   3.256   6.206  13.959 -1.3731 -0.7529  0.1774
12629TIP3   OH259301   2.423   1.159  15.331 -0.3683  0.0759  0.4925
12629TIP3    H159302   2.482   1.193  15.264 -1.7374  0.7139 -0.4300
12629TIP3    H259303   2.468   1.176  15.414  1.5757 -1.1453 -0.2409
12630TIP3   OH259304   1.383   3.957  14.125  0.6942  0.1559  0.7784
12630TIP3    H159305   1.406   4.035  14.076  0.2796  0.6520  1.3601
12630TIP3    H259306   1.292   3.971  14.151  0.0863 -1.2163 -0.4344
12631TIP3   OH259307   0.870   4.008  13.149 -0.6445  0.1872 -0.0455
12631TIP3    H159308   0.873   4.091  13.101  0.6524  0.0602 -0.2051
12631TIP3    H259309   0.934   4.019  13.220  0.5241 -1.1354 -0.8481
12632TIP3   OH259310   6.757   1.942  16.015 -0.0141  0.1010  0.3933
12632TIP3    H159311   6.745   1.851  15.988 -2.3717  0.2479  0.7320
12632TIP3    H259312   6.751   1.940  16.111 -1.4066  0.7474  0.3407
12633TIP3   OH259313   2.639   1.044   4.214  0.1716  0.2770  0.4852
12633TIP3    H159314   2.652   1.089   4.298  1.3335 -1.5074  1.3187
12633TIP3    H259315   2.722   1.056   4.168  0.4961 -0.9707  0.7175
12634TIP3   OH259316   0.626   1.676   3.248  0.1794  0.3103  0.2709
12634TIP3    H159317   0.618   1.581   3.252 -0.1296  0.2959 -0.4374
12634TIP3    H259318   0.718   1.693   3.266  0.6486 -0.2652 -1.3393
12635TIP3   OH259319   5.413   1.268   5.999  0.4199 -0.5286 -0.7050
12635TIP3    H159320   5.422   1.186   5.949  0.4579 -0.4387 -0.8459
12635TIP3    H259321   5.340   1.252   6.058  1.1644 -1.0839  0.0841
12636TIP3   OH259322   2.684   6.526  12.806  0.0498 -0.1568  0.1350
12636TIP3    H159323   2.628   6.477  12.746 -0.3576  0.0988  0.3033
12636TIP3    H259324   2.708   6.605  12.757 -0.1261 -0.0407  0.2325
12637TIP3   OH259325   4.967   5.228   3.588  0.0159  0.2622  0.2837
12637TIP3    H159326   5.060   5.247   3.602  0.2063  0.6172 -1.2724
12637TIP3    H259327   4.923   5.310   3.607  0.4537  1.3023 -2.6802
12638TIP3   OH259328   3.479   5.273   2.761 -0.3599  0.2617 -0.1567
12638TIP3    H159329   3.400   5.244   2.807 -0.5743 -0.5016 -0.9843
12638TIP3    H259330   3.447   5.335   2.696 -0.1760  0.5395  0.0121
12639TIP3   OH259331   5.495   6.135  12.808 -0.1222  0.1810  0.4684
12639TIP3    H159332   5.525   6.111  12.721 -0.3648  0.8124  0.2057
12639TIP3    H259333   5.448   6.058  12.840 -2.3674  0.8236 -1.0378
12640TIP3   OH259334   0.504   2.152   1.271 -0.4885 -0.1801 -0.6384
12640TIP3    H159335   0.453   2.152   1.352 -2.0272 -0.6887 -1.5739
12640TIP3    H259336   0.503   2.061   1.241  1.0411 -0.2240 -0.6662
12641TIP3   OH259337   3.685   2.915  15.305 -0.4558 -0.3747  0.7805
12641TIP3    H159338   3.592   2.906  15.283 -0.1763 -0.7909 -0.3027
12641TIP3    H259339   3.714   2.825  15.321  0.0576 -0.4091 -0.2323
12642TIP3   OH259340   1.390   4.572  13.285 -0.0603  0.5108 -0.0066
12642TIP3    H159341   1.411   4.554  13.377 -0.8955  0.6974  0.2218
12642TIP3    H259342   1.470   4.547  13.238 -0.3886 -1.6870  0.5125
12643TIP3   OH259343   6.385   5.435  11.713 -0.4197  0.4574  0.2644
12643TIP3    H159344   6.419   5.492  11.643  0.2360  0.0974  0.2777
12643TIP3    H259345   6.335   5.493  11.770 -4.4249  0.1919 -2.5694
12644TIP3   OH259346   0.428   4.391   1.378 -0.1210  0.4895 -0.4860
12644TIP3    H159347   0.359   4.422   1.321 -0.3491 -0.8181 -0.9652
12644TIP3    H259348   0.382   4.358   1.456  0.0047  0.2645 -0.5046
12645TIP3   OH259349   6.325   2.237   1.323  0.3794  0.3117 -0.1494
12645TIP3    H159350   6.300   2.269   1.409  1.6877  2.8442 -0.5894
12645TIP3    H259351   6.244   2.240   1.272  0.2088  2.0672  0.1456
12646TIP3   OH259352   4.133   5.208  16.921  0.4790 -0.3225 -0.2862
12646TIP3    H159353   4.152   5.121  16.957  1.1561 -0.0078  0.1150
12646TIP3    H259354   4.140   5.196  16.826 -0.0400 -0.8494 -0.2617
12647TIP3   OH259355   2.313   5.383  17.247  0.5484 -0.5933  0.6315
12647TIP3    H159356   2.228   5.384  17.205  1.2617  0.5857 -0.8816
12647TIP3    H259357   2.339   5.476  17.252  1.3950 -0.8595  1.8080
12648TIP3   OH259358   2.048   0.438  11.267 -0.1101  0.6406  0.1921
12648TIP3    H159359   2.052   0.527  11.302 -0.2546  0.9408 -0.5237
12648TIP3    H259360   1.955   0.419  11.260 -0.0880  0.6183 -0.0867
12649TIP3   OH259361   3.342   0.496  15.898  0.3555  0.1577 -0.1283
12649TIP3    H159362   3.430   0.464  15.879 -0.1764 -0.3249 -1.9863
12649TIP3    H259363   3.296   0.419  15.934 -0.0055 -0.3209 -1.5587
12650TIP3   OH259364   0.954   1.138   2.634 -0.5227  0.4183  0.1702
12650TIP3    H159365   1.020   1.091   2.584  0.8164  2.0519  0.2901
12650TIP3    H259366   0.964   1.107   2.723 -1.1253 -0.6002 -0.1062
12651TIP3   OH259367   3.158   4.777   0.124  0.0752 -0.0895 -0.0917
12651TIP3    H159368   3.227   4.743   0.182 -0.8835 -0.5111  0.8175
12651TIP3    H259369   3.181   4.869   0.112  0.9051 -0.2680  0.0326
12652TIP3   OH259370   2.379   4.272   3.928  0.3649 -0.0685 -0.2908
12652TIP3    H159371   2.360   4.355   3.883  0.6595 -0.3010 -0.8520
12652TIP3    H259372   2.352   4.205   3.866 -1.0209 -0.4120  0.6455
12653TIP3   OH259373   1.512   2.191   0.474  0.3795 -0.0778  0.5295
12653TIP3    H159374   1.545   2.229   0.556 -0.2583 -0.9188  1.1962
12653TIP3    H259375   1.499   2.098   0.494  1.3403 -0.5526 -0.8827
12654TIP3   OH259376   6.354   3.895   1.527 -0.3301 -0.2996  0.2347
12654TIP3    H159377   6.324   3.919   1.615 -2.7073 -1.1921 -0.2451
12654TIP3    H259378   6.387   3.806   1.536 -2.1880 -1.0741 -0.0012
12655TIP3   OH259379   1.336   2.986   0.076 -0.8142 -0.0147 -0.2623
12655TIP3    H159380   1.345   2.893   0.096  2.9589  0.3357  0.4261
12655TIP3    H259381   1.350   3.030   0.160 -2.9879  1.2648 -0.4834
12656TIP3   OH259382   1.454   4.601  12.718 -0.3090 -0.2266  0.7258
12656TIP3    H159383   1.392   4.625  12.649 -0.9600 -0.3561  1.2597
12656TIP3    H259384   1.400   4.585  12.795  0.2698 -1.6631  0.8578
12657TIP3   OH259385   5.267   2.612   1.497  0.3962 -0.1444 -0.2107
12657TIP3    H159386   5.253   2.691   1.444 -0.3337 -0.1936 -0.1107
12657TIP3    H259387   5.280   2.542   1.433  0.2440 -0.0780 -0.3150
12658TIP3   OH259388   6.722   5.148  11.575  0.3153 -0.2183  0.0521
12658TIP3    H159389   6.747   5.184  11.660 -2.1197  0.4225  0.5683
12658TIP3    H259390   6.728   5.222  11.515  1.5452 -0.5534 -0.2702
12659TIP3   OH259391   1.362   1.591  16.852  0.3309 -0.1186  0.0682
12659TIP3    H159392   1.382   1.683  16.832  1.0863 -0.9279 -3.4911
12659TIP3    H259393   1.328   1.556  16.770 -0.5211 -2.9096  1.5134
12660TIP3   OH259394   3.906   5.784   2.326  0.1038 -0.6917 -0.1835
12660TIP3    H159395   3.953   5.816   2.403 -0.9150 -1.5653  0.8395
12660TIP3    H259396   3.816   5.814   2.339  0.0828 -0.1306 -1.4685
12661TIP3   OH259397   3.596   3.380  13.606 -0.1148  0.5759 -0.3986
12661TIP3    H159398   3.541   3.447  13.565 -0.0871  0.6111 -0.3782
12661TIP3    H259399   3.594   3.306  13.545 -1.1241  0.1411  0.1452
12662TIP3   OH259400   3.629   4.340   3.559 -0.3044 -0.0997  0.1093
12662TIP3    H159401   3.644   4.285   3.636 -0.8165  0.6076  0.7236
12662TIP3    H259402   3.645   4.281   3.485 -0.3284 -0.9383  0.7485
12663TIP3   OH259403   0.944   0.492  15.387 -1.0179  0.0674  0.2016
12663TIP3    H159404   0.856   0.454  15.389 -1.0523  0.1488  0.2351
12663TIP3    H259405   0.972   0.495  15.478 -0.4347 -1.2223  0.0814
12664TIP3   OH259406   2.191   4.082   0.056 -0.1821 -0.1562  0.2070
12664TIP3    H159407   2.280   4.050   0.044  0.0157  0.9462 -1.5802
12664TIP3    H259408   2.137   4.024   0.002 -0.2657  0.4049 -0.3229
12665TIP3   OH259409   1.839   6.122  17.082  0.5387  0.2367 -0.1125
12665TIP3    H159410   1.834   6.069  17.003  0.3388  1.0807 -0.6784
12665TIP3    H259411   1.902   6.191  17.060  1.9015 -0.5652  1.0992
12666TIP3   OH259412   0.602   0.626   1.048  0.3782  0.2463 -0.6800
12666TIP3    H159413   0.517   0.604   1.012  1.4515 -1.4422 -2.3488
12666TIP3    H259414   0.606   0.578   1.131  0.7986 -2.2168 -2.0184
12667TIP3   OH259415   1.670   4.015  16.979 -0.6216  0.2283  0.3062
12667TIP3    H159416   1.699   3.941  17.032  0.1271  1.0150  1.0072
12667TIP3    H259417   1.751   4.059  16.952 -0.9667 -0.2604 -1.6632
12668TIP3   OH259418   4.938   6.445   0.438 -0.3488  0.3459  0.1651
12668TIP3    H159419   4.872   6.390   0.396  0.6970 -0.3652 -0.6215
12668TIP3    H259420   4.968   6.503   0.368  0.6500 -0.1177  0.1873
12669TIP3   OH259421   3.048   2.334  11.078 -0.8398 -0.1959  0.0693
12669TIP3    H159422   3.028   2.426  11.061  2.0381  0.6028  0.5171
12669TIP3    H259423   3.051   2.327  11.173 -0.9960 -0.7411  0.0367
12670TIP3   OH259424   4.623   5.028   0.456 -0.3383  0.2087  0.1259
12670TIP3    H159425   4.613   5.093   0.387  0.3389  0.0533 -0.1203
12670TIP3    H259426   4.674   4.958   0.417 -1.6992 -0.8417  0.1575
12671TIP3   OH259427   0.241   0.870   6.149 -0.0042  0.0035 -0.0516
12671TIP3    H159428   0.171   0.919   6.107 -2.6010 -0.2970  3.4348
12671TIP3    H259429   0.309   0.935   6.167 -1.5717  1.4994  0.7970
12672TIP3   OH259430   5.771   1.645   4.358  0.4560  0.4164 -0.0771
12672TIP3    H159431   5.854   1.653   4.310  0.3068  2.1039 -0.1312
12672TIP3    H259432   5.723   1.725   4.336 -0.7184  0.0062  0.8588
12673TIP3   OH259433   4.627   6.764   3.797  0.0854 -0.3366 -0.2011
12673TIP3    H159434   4.562   6.701   3.825 -0.3443  0.3670  0.4271
12673TIP3    H259435   4.623   6.834   3.862  1.2704 -0.1412 -0.3056
12674TIP3   OH259436   5.410   2.289  11.344  0.4032  0.1735  0.2891
12674TIP3    H159437   5.422   2.307  11.251 -2.8543  1.0110 -0.1041
12674TIP3    H259438   5.466   2.213  11.362  2.7250  1.2564 -1.7748
12675TIP3   OH259439   5.040   4.638   4.372 -0.3486 -0.3331  0.0568
12675TIP3    H159440   5.099   4.659   4.444 -0.6272  0.0080  0.1933
12675TIP3    H259441   4.996   4.721   4.352  0.4467 -0.1826 -1.1762
12676TIP3   OH259442   5.531   1.096   5.652  0.5375 -0.0855  0.3376
12676TIP3    H159443   5.440   1.101   5.682  0.5545  1.2314  0.2116
12676TIP3    H259444   5.575   1.044   5.719  0.0458  0.7107  1.3030
12677TIP3   OH259445   5.523   3.342   1.363 -0.3825 -0.4558  0.1316
12677TIP3    H159446   5.434   3.360   1.393 -0.6264  0.6197 -1.1029
12677TIP3    H259447   5.512   3.305   1.275  0.3760 -0.9837  0.2429
12678TIP3   OH259448   3.887   4.342  12.394  0.0077 -0.2534 -0.1118
12678TIP3    H159449   3.825   4.414  12.382 -0.3684  0.0350  2.7833
12678TIP3    H259450   3.900   4.338  12.489  3.2247 -1.3509 -0.4978
12679TIP3   OH259451   1.376   2.441   1.492  0.1715  0.3606 -0.4054
12679TIP3    H159452   1.332   2.526   1.495  2.0327  1.3342  0.8742
12679TIP3    H259453   1.377   2.419   1.399 -1.5330  1.0501 -0.6401
12680TIP3   OH259454   1.384   3.085   5.348 -0.2305 -0.3674 -0.3715
12680TIP3    H159455   1.437   3.052   5.276  1.0263  0.3505  0.2052
12680TIP3    H259456   1.392   3.019   5.417 -0.5477 -0.5163 -0.4703
12681TIP3   OH259457   5.103   3.100  15.095  0.3112  0.6106  0.1578
12681TIP3    H159458   5.141   3.014  15.076  1.1556  1.2171 -1.0061
12681TIP3    H259459   5.066   3.091  15.183 -1.8500 -1.6855 -0.8545
12682TIP3   OH259460   2.517   3.215  10.956  0.5112  0.7953 -0.2792
12682TIP3    H159461   2.467   3.157  11.013  0.6203  3.1645  2.4390
12682TIP3    H259462   2.453   3.244  10.890 -0.6229  0.7319  0.7682
12683TIP3   OH259463   3.577   0.481   2.272  0.2509  0.3564  0.0283
12683TIP3    H159464   3.556   0.485   2.179 -0.4414  0.0408  0.1629
12683TIP3    H259465   3.618   0.396   2.285 -0.6362 -0.0623  0.1910
12684TIP3   OH259466   5.392   3.126  11.654 -0.0524 -0.2256  0.2950
12684TIP3    H159467   5.447   3.124  11.576  0.0134 -0.3933  0.3437
12684TIP3    H259468   5.387   3.218  11.678  0.5837 -0.2487  0.5507
12685TIP3   OH259469   4.136   3.080   4.618  0.6087 -0.1338  0.1254
12685TIP3    H159470   4.081   3.065   4.695  0.8751  0.0281  0.3477
12685TIP3    H259471   4.080   3.130   4.559  0.9298  1.1629  0.8819
12686TIP3   OH259472   1.694   5.101   0.025 -0.0293  0.1741 -0.0424
12686TIP3    H159473   1.705   5.125  -0.067 -0.6373 -0.4233 -0.2807
12686TIP3    H259474   1.627   5.161   0.058  0.5938  0.7681  0.1761
12687TIP3   OH259475   0.885   2.171  15.549  0.2124 -0.2088 -0.9404
12687TIP3    H159476   0.810   2.212  15.591  0.2153 -2.2896  1.3120
12687TIP3    H259477   0.859   2.162  15.457 -1.7639  0.2700 -0.4621
12688TIP3   OH259478   6.344   1.439  12.351 -0.4216 -0.2403 -0.1726
12688TIP3    H159479   6.351   1.507  12.418  1.6074  0.4782 -1.0210
12688TIP3    H259480   6.259   1.453  12.311 -1.1204  0.1375  1.3713
12689TIP3   OH259481   2.186   5.640   6.604 -0.5287 -0.3448 -0.6890
12689TIP3    H159482   2.152   5.620   6.691 -1.1606  2.1809 -0.2894
12689TIP3    H259483   2.124   5.704   6.568  0.4170 -0.3893 -2.4959
12690TIP3   OH259484   0.255   4.019   3.503 -0.3162  0.2637 -0.1096
12690TIP3    H159485   0.295   4.086   3.559  1.8207 -1.2374  0.2673
12690TIP3    H259486   0.285   3.936   3.540  0.0845 -0.8312 -2.7066
12691TIP3   OH259487   5.606   4.500   4.820  0.0440 -0.4981 -0.1757
12691TIP3    H159488   5.683   4.517   4.874  0.5216  1.5942 -1.4205
12691TIP3    H259489   5.538   4.556   4.857 -0.3039 -0.7923 -0.3578
12692TIP3   OH259490   2.869   3.624   0.234  0.1536 -0.2348 -0.6013
12692TIP3    H159491   2.858   3.595   0.143  1.9273 -0.0806 -0.9067
12692TIP3    H259492   2.897   3.546   0.281  0.8253  0.0381 -0.5402
12693TIP3   OH259493   5.663   3.221  11.168  0.2606 -0.4146 -0.4059
12693TIP3    H159494   5.724   3.294  11.164 -0.2761 -0.0001 -1.2561
12693TIP3    H259495   5.674   3.176  11.084 -0.5072 -0.4034 -0.5202
12694TIP3   OH259496   4.676   3.105  16.337 -0.5582  0.3391 -0.2540
12694TIP3    H159497   4.713   3.155  16.410 -1.5083  1.0381 -0.2336
12694TIP3    H259498   4.749   3.094  16.276 -0.2247  1.3777 -0.0571
12695TIP3   OH259499   1.014   6.580  15.698 -0.3454 -0.4485 -0.4668
12695TIP3    H159500   1.109   6.588  15.709 -0.1420 -3.1814  0.5278
12695TIP3    H259501   1.001   6.580  15.603  0.2868  2.5111 -0.6426
12696TIP3   OH259502   2.982   3.449   2.299 -0.0427  0.2421  0.4244
12696TIP3    H159503   3.063   3.422   2.343  0.0182  0.6973  0.6008
12696TIP3    H259504   2.917   3.453   2.369 -0.3233 -0.5413  0.2108
12697TIP3   OH259505   2.490   6.498   1.839  0.3719 -0.0844 -0.3243
12697TIP3    H159506   2.403   6.467   1.862  0.8506 -1.1889  0.0283
12697TIP3    H259507   2.549   6.429   1.868  1.5858  1.6148  1.5091
12698TIP3   OH259508   5.645   6.750  13.342 -0.3984  0.1787 -0.0192
12698TIP3    H159509   5.574   6.731  13.282 -0.5222 -2.4323  0.8206
12698TIP3    H259510   5.695   6.669  13.347  0.4171  0.7397  2.3081
12699TIP3   OH259511   0.986   5.055   0.413  0.3951 -0.1010 -0.1904
12699TIP3    H159512   1.024   5.138   0.386 -0.7980 -0.6948 -4.6040
12699TIP3    H259513   1.047   4.989   0.381  0.4377 -0.9760  1.6141
12700TIP3   OH259514   4.966   4.220  12.394 -0.7001 -0.6388  0.0762
12700TIP3    H159515   5.041   4.278  12.378 -0.8101  0.6393  3.4861
12700TIP3    H259516   4.895   4.259  12.342 -0.1340  0.8301  0.3631
12701TIP3   OH259517   3.188   4.657  14.386  0.3029  0.2383 -0.2491
12701TIP3    H159518   3.276   4.629  14.363  0.9512  1.7443  0.2635
12701TIP3    H259519   3.143   4.668  14.302  0.4931 -0.8359 -0.5010
12702TIP3   OH259520   1.402   0.481   4.746 -0.2205 -0.3824 -0.0947
12702TIP3    H159521   1.321   0.518   4.782  0.4405 -0.2084  1.3006
12702TIP3    H259522   1.461   0.477   4.821  1.0184 -0.6484 -1.0580
12703TIP3   OH259523   1.888   4.794  12.321  0.6385 -0.3818 -0.4330
12703TIP3    H159524   1.839   4.773  12.400  0.1363  2.2906  0.0409
12703TIP3    H259525   1.830   4.769  12.249  0.4782 -1.4022  0.0332
12704TIP3   OH259526   1.361   0.940  16.769  0.8864  0.3159  0.4393
12704TIP3    H159527   1.451   0.968  16.755  1.2496 -0.7695  0.4692
12704TIP3    H259528   1.364   0.845  16.758 -0.6067  0.4222 -1.4250
12705TIP3   OH259529   4.537   4.160   0.936  0.9323 -0.4199  0.9905
12705TIP3    H159530   4.521   4.233   0.876  2.4534 -0.1887  0.8333
12705TIP3    H259531   4.605   4.108   0.893  0.7085 -1.2799  1.6548
12706TIP3   OH259532   6.018   1.888  13.074 -0.1465  0.4920 -0.3058
12706TIP3    H159533   6.007   1.794  13.060  0.1960  0.5116 -0.7098
12706TIP3    H259534   5.988   1.902  13.164 -0.3321  0.0215 -0.2900
12707TIP3   OH259535   6.400   1.244  11.307 -0.2508  0.7784  0.3996
12707TIP3    H159536   6.322   1.226  11.360 -0.8195  1.4455 -0.1926
12707TIP3    H259537   6.373   1.225  11.217 -0.3583  2.8014 -0.0593
12708TIP3   OH259538   5.719   0.411   5.033 -0.0291  0.5912 -0.7034
12708TIP3    H159539   5.726   0.347   4.963 -0.4893 -0.3017  0.0427
12708TIP3    H259540   5.653   0.375   5.092  0.3232  1.3413  0.1743
12709TIP3   OH259541   2.170   1.021  15.403  0.0408 -0.1437  0.1532
12709TIP3    H159542   2.204   0.944  15.449 -0.0502 -1.0259 -1.2124
12709TIP3    H259543   2.248   1.073  15.383  0.4527 -1.2661 -1.3545
12710TIP3   OH259544   1.795   6.155  13.091 -0.8869  0.5986 -0.0112
12710TIP3    H159545   1.817   6.062  13.096 -1.0254  0.5205 -0.6842
12710TIP3    H259546   1.821   6.191  13.176 -0.4740  0.0200  0.1133
12711TIP3   OH259547   4.920   1.731   1.546 -0.0162  0.7524  0.1576
12711TIP3    H159548   4.996   1.758   1.494 -0.0998  1.3199  0.3293
12711TIP3    H259549   4.954   1.716   1.634  0.2925 -1.0440 -0.2248
12712TIP3   OH259550   0.773   6.685  12.635 -0.4115  0.4637  0.0541
12712TIP3    H159551   0.800   6.665  12.725 -0.2581  0.0896 -0.0719
12712TIP3    H259552   0.834   6.637  12.580 -1.0421 -0.0174 -0.2429
12713TIP3   OH259553   5.382   4.529   5.455  0.3274  0.2917  0.7767
12713TIP3    H159554   5.333   4.449   5.473  0.4406 -0.1088 -0.5345
12713TIP3    H259555   5.472   4.499   5.441  0.5842  0.7888  1.3425
12714TIP3   OH259556   6.137   1.606   3.943  0.2163 -0.0690 -0.1686
12714TIP3    H159557   6.220   1.565   3.969  0.0225 -0.4083 -0.0801
12714TIP3    H259558   6.163   1.691   3.906  0.6019 -0.1684 -0.1330
12715TIP3   OH259559   5.313   2.634  14.231 -0.0853 -0.0241 -0.2391
12715TIP3    H159560   5.324   2.604  14.141  0.2817 -1.2750  0.1971
12715TIP3    H259561   5.344   2.724  14.231  3.5596 -1.1205 -0.6174
12716TIP3   OH259562   0.306   2.713  16.839 -0.4696  0.2969  0.4069
12716TIP3    H159563   0.245   2.682  16.906  0.1938  2.6790  2.2503
12716TIP3    H259564   0.357   2.635  16.815 -0.6993 -0.6533  2.7426
12717TIP3   OH259565   3.432   3.369  16.123 -0.2562  0.2108 -0.0163
12717TIP3    H159566   3.381   3.401  16.197  1.4067  0.4756  1.0847
12717TIP3    H259567   3.499   3.313  16.163 -0.1831 -0.7907 -1.4685
12718TIP3   OH259568   0.518   6.269   4.601 -0.4798  0.3840  0.1072
12718TIP3    H159569   0.587   6.327   4.630 -0.3042  0.3771 -0.2857
12718TIP3    H259570   0.563   6.192   4.565 -0.6655  0.5788 -0.5730
12719TIP3   OH259571   2.026   4.090   2.976  0.1521 -0.0632 -0.5282
12719TIP3    H159572   2.036   4.038   2.897 -0.6376  0.9057 -1.2979
12719TIP3    H259573   1.937   4.071   3.007  0.3888 -0.2959  0.0190
12720TIP3   OH259574   5.127   6.272  13.415 -0.1766 -0.1177  0.1913
12720TIP3    H159575   5.082   6.322  13.347  1.9480  0.9562 -0.5095
12720TIP3    H259576   5.218   6.267  13.385  0.1927 -2.3120  1.4657
12721TIP3   OH259577   1.270   2.117   0.743 -0.6403  0.3899  0.0476
12721TIP3    H159578   1.274   2.171   0.664 -0.9177  1.7204  0.9189
12721TIP3    H259579   1.178   2.121   0.770 -0.1525  1.7592  1.6453
12722TIP3   OH259580   2.545   1.636   0.360 -0.1777 -0.6008 -0.2969
12722TIP3    H159581   2.487   1.560   0.366 -0.0305 -0.9008 -2.1537
12722TIP3    H259582   2.633   1.599   0.355 -0.0828 -0.3041 -0.8901
12723TIP3   OH259583   0.512   6.402  13.545  0.1556 -0.2839  0.0212
12723TIP3    H159584   0.495   6.467  13.477  1.4110 -0.0327 -0.0788
12723TIP3    H259585   0.535   6.454  13.622  0.8668 -0.6017  0.0280
12724TIP3   OH259586   2.676   3.545   2.453 -0.0362  0.0646 -0.4359
12724TIP3    H159587   2.634   3.631   2.456 -1.9903 -0.8655  1.6032
12724TIP3    H259588   2.647   3.506   2.371 -1.5021  0.2925 -0.0528
12725TIP3   OH259589   1.599   5.161  14.404 -0.3812  0.3961  0.1334
12725TIP3    H159590   1.550   5.239  14.428  1.1365  1.1057  1.1219
12725TIP3    H259591   1.691   5.185  14.421  0.2060 -1.2582 -0.5117
12726TIP3   OH259592   5.881   0.572  12.476  0.3232 -0.8162  0.1117
12726TIP3    H159593   5.859   0.622  12.555  0.6011 -1.8893  0.8877
12726TIP3    H259594   5.835   0.489  12.485 -3.0306  0.4498 -2.8349
12727TIP3   OH259595   5.687   3.993  13.366  0.4974  0.4065 -0.0269
12727TIP3    H159596   5.695   4.068  13.424 -0.4704  0.2716  0.2995
12727TIP3    H259597   5.717   3.918  13.418 -0.3485  0.2890  0.3108
12728TIP3   OH259598   5.484   5.629   3.992  0.1461 -0.2776  0.6830
12728TIP3    H159599   5.421   5.589   3.932 -1.1477  0.6067  1.4076
12728TIP3    H259600   5.455   5.720   3.999  1.7848  0.2782  0.6956
12729TIP3   OH259601   2.657   3.721   5.505 -0.2333 -0.0897 -0.3062
12729TIP3    H159602   2.693   3.809   5.512  0.1915 -0.2052 -0.9405
12729TIP3    H259603   2.625   3.715   5.415 -0.8396 -0.3721 -0.0842
12730TIP3   OH259604   1.291   3.936   3.119 -0.3531  0.1976 -0.1457
12730TIP3    H159605   1.260   4.022   3.147  0.0311 -0.2754  1.8542
12730TIP3    H259606   1.211   3.887   3.099 -0.7464  0.2262  1.2343
12731TIP3   OH259607   1.350   0.085   3.175  0.1751  0.3454 -0.0383
12731TIP3    H159608   1.364   0.180   3.174 -0.2845  0.4237  0.2535
12731TIP3    H259609   1.432   0.049   3.207 -0.9029  0.9341  3.9265
12732TIP3   OH259610   4.702   5.128   0.154  0.2843 -0.3636 -0.7512
12732TIP3    H159611   4.644   5.136   0.078  1.3667 -1.7639 -1.7659
12732TIP3    H259612   4.786   5.164   0.124  0.3848  0.2547  0.2166
12733TIP3   OH259613   1.044   2.255   3.530 -0.7507 -0.0761  0.3974
12733TIP3    H159614   1.018   2.314   3.459 -0.4874 -0.6806 -0.2149
12733TIP3    H259615   1.136   2.234   3.510 -1.2102 -1.6914 -0.1090
12734TIP3   OH259616   1.273   1.769   5.846  0.5116 -0.3932  0.2092
12734TIP3    H159617   1.287   1.680   5.879  1.8514 -0.0202  0.7245
12734TIP3    H259618   1.243   1.756   5.756 -2.9097 -1.4156  1.3518
12735TIP3   OH259619   0.469   5.765  16.335 -0.0922  0.2240  0.5719
12735TIP3    H159620   0.466   5.725  16.421  2.3465  0.1199  0.6578
12735TIP3    H259621   0.497   5.855  16.351 -0.7303  0.5448 -0.0327
12736TIP3   OH259622   2.880   2.090  12.427 -0.4833 -0.3149 -0.0869
12736TIP3    H159623   2.929   2.056  12.502  0.4892  2.2375  0.5438
12736TIP3    H259624   2.810   2.143  12.465  0.9850  2.3705 -0.7847
12737TIP3   OH259625   2.589   5.870  13.366  0.2273  0.4165 -0.5228
12737TIP3    H159626   2.618   5.789  13.409 -1.2526 -0.3588 -0.9121
12737TIP3    H259627   2.518   5.902  13.421 -1.3007 -0.2769 -2.0080
12738TIP3   OH259628   6.774   4.854   0.159 -0.1055  0.1320  0.3032
12738TIP3    H159629   6.721   4.774   0.159  1.6961 -1.1205 -0.3823
12738TIP3    H259630   6.860   4.826   0.128  0.4025  2.4835 -0.6269
12739TIP3   OH259631   4.560   4.692   1.196  0.2322 -0.4943 -0.3459
12739TIP3    H159632   4.466   4.696   1.214 -0.0005  0.2255 -1.6054
12739TIP3    H259633   4.577   4.764   1.136  2.2199  1.4826  2.3444
12740TIP3   OH259634   3.280   4.216  15.362  0.1814 -0.1624 -0.7461
12740TIP3    H159635   3.207   4.273  15.385 -0.2284 -0.1295 -2.0345
12740TIP3    H259636   3.327   4.263  15.293  0.9719 -0.5206 -0.4580
12741TIP3   OH259637   6.282   1.828   2.982 -0.4208  0.0865 -0.0916
12741TIP3    H159638   6.353   1.890   2.962 -0.1350  0.0257  0.7075
12741TIP3    H259639   6.324   1.742   2.978 -0.2812  0.0864  1.0156
12742TIP3   OH259640   3.923   2.672  14.343 -0.1307  0.4224  0.4505
12742TIP3    H159641   3.954   2.612  14.276  0.5473 -0.7624  1.7752
12742TIP3    H259642   3.848   2.627  14.383 -0.7252  1.2487  0.3059
12743TIP3   OH259643   0.425   2.196   6.633  0.3627 -0.1341 -0.5089
12743TIP3    H159644   0.490   2.185   6.703 -0.1527  0.9837  0.1854
12743TIP3    H259645   0.460   2.266   6.578  0.4574 -0.5712 -1.0142
12744TIP3   OH259646   4.744   0.486  15.187 -0.0688  0.3155 -0.4052
12744TIP3    H159647   4.724   0.393  15.200 -2.0132  0.8235  0.5373
12744TIP3    H259648   4.840   0.490  15.189  0.0946 -1.7501 -1.1898
12745TIP3   OH259649   5.590   0.191  12.108 -0.3509 -0.2413  0.0304
12745TIP3    H159650   5.577   0.122  12.174 -1.2357 -0.2284 -0.1117
12745TIP3    H259651   5.509   0.191  12.058  0.4685 -0.5429 -1.3458
12746TIP3   OH259652   4.661   5.548  16.629  0.3126 -0.4900  0.1014
12746TIP3    H159653   4.610   5.595  16.562  0.8975  0.4240  0.2821
12746TIP3    H259654   4.651   5.455  16.605 -1.5146 -0.3588  0.1980
12747TIP3   OH259655   6.447   2.134  17.307  0.4212 -0.2678  0.0234
12747TIP3    H159656   6.521   2.127  17.247 -0.0307  0.4805 -0.6490
12747TIP3    H259657   6.406   2.048  17.306 -0.7005  0.2079 -2.2619
12748TIP3   OH259658   5.753   2.778   3.598 -0.2523 -0.1911 -0.2235
12748TIP3    H159659   5.849   2.777   3.590 -0.1701 -1.9033  0.5355
12748TIP3    H259660   5.722   2.744   3.513 -0.1135 -0.8621 -0.0163
12749TIP3   OH259661   2.313   5.158  11.611  0.0140 -0.3015  0.0965
12749TIP3    H159662   2.366   5.238  11.612 -1.1198  0.4835 -0.2741
12749TIP3    H259663   2.315   5.130  11.519 -0.2660 -0.2178  0.0617
12750TIP3   OH259664   4.104   2.796  11.533 -0.0938  0.1751 -0.4108
12750TIP3    H159665   4.119   2.850  11.455  0.7608  2.1180  1.0140
12750TIP3    H259666   4.050   2.850  11.590  0.3462 -0.6869  0.8804
12751TIP3   OH259667   1.142   2.241   4.784 -0.0499 -0.2621  0.0484
12751TIP3    H159668   1.184   2.179   4.844  1.3701 -0.2198 -0.8557
12751TIP3    H259669   1.130   2.191   4.703  1.1442  0.6287 -0.7020
12752TIP3   OH259670   0.963   0.288   0.320  0.0153 -0.3365 -0.1377
12752TIP3    H159671   1.038   0.262   0.266  0.6049  1.9496 -0.5361
12752TIP3    H259672   0.945   0.378   0.294  0.6219  1.1217  3.7482
12753TIP3   OH259673   4.454   4.837  13.586 -0.1068  0.0246 -0.7413
12753TIP3    H159674   4.380   4.887  13.552  0.4163 -0.3288 -2.5033
12753TIP3    H259675   4.419   4.749  13.600 -1.1226  0.8336  2.7009
12754TIP3   OH259676   5.403   1.794  16.679  0.6066 -0.9414  0.4504
12754TIP3    H159677   5.352   1.846  16.617  0.0950  0.4044  1.9488
12754TIP3    H259678   5.491   1.791  16.641  1.1481  2.5705  1.0849
12755TIP3   OH259679   0.055   6.321   4.341 -0.1839  0.1713 -0.5577
12755TIP3    H159680   0.033   6.385   4.409 -2.1557 -1.6980  0.7046
12755TIP3    H259681   0.150   6.328   4.332  0.0830  0.9166  1.9846
12756TIP3   OH259682   6.015   1.045   5.794 -0.8418  0.5791  0.2433
12756TIP3    H159683   5.989   1.043   5.701 -0.0761  0.9972  0.0127
12756TIP3    H259684   6.056   1.130   5.805  0.4559 -0.0601  0.5813
12757TIP3   OH259685   4.124   5.176  14.228  0.0993 -0.3544 -0.0321
12757TIP3    H159686   4.167   5.238  14.171  1.3482 -1.2469 -0.1040
12757TIP3    H259687   4.149   5.202  14.317 -1.4523  0.7413  0.1377
12758TIP3   OH259688   6.546   5.101   0.519  0.0473 -0.5193  0.5247
12758TIP3    H159689   6.538   5.080   0.612 -1.2604 -0.4423  0.4460
12758TIP3    H259690   6.528   5.019   0.473  0.0308 -0.4070  0.3251
12759TIP3   OH259691   4.857   5.546   5.159 -0.1598  0.1819  0.6560
12759TIP3    H159692   4.792   5.477   5.167  0.1276 -0.3156 -0.8259
12759TIP3    H259693   4.814   5.613   5.105  0.4945 -0.1143 -0.2645
12760TIP3   OH259694   1.133   4.122   3.817  0.3950 -0.0130 -0.2522
12760TIP3    H159695   1.088   4.129   3.733 -0.2947 -1.4137 -0.0310
12760TIP3    H259696   1.190   4.199   3.821 -1.9040  1.8173 -0.5725
12761TIP3   OH259697   6.159   6.340   5.645  0.5589  0.1386 -0.4275
12761TIP3    H159698   6.085   6.328   5.704  0.8039 -0.7713 -0.2911
12761TIP3    H259699   6.190   6.251   5.626 -0.3752  0.2994 -3.0475
12762TIP3   OH259700   5.863   0.540  14.372 -0.1515 -0.0646  0.4269
12762TIP3    H159701   5.911   0.564  14.293 -1.0023  1.2719  0.2772
12762TIP3    H259702   5.905   0.459  14.402  1.7356  0.6608 -0.0736
12763TIP3   OH259703   1.597   0.509  14.599  0.5107  0.1144  0.7837
12763TIP3    H159704   1.692   0.505  14.614  0.6505 -3.4733 -0.0743
12763TIP3    H259705   1.560   0.460  14.673 -0.6420  0.8226  0.6978
12764TIP3   OH259706   3.860   3.771  12.711  0.1300 -0.4087 -0.5384
12764TIP3    H159707   3.948   3.767  12.748 -0.4994  1.2962  1.3493
12764TIP3    H259708   3.849   3.688  12.666  1.9010 -1.6313  1.1148
12765TIP3   OH259709   3.260   1.182   4.126 -0.6716 -0.4061 -0.4032
12765TIP3    H159710   3.338   1.183   4.182 -0.2400 -2.2395 -0.9130
12765TIP3    H259711   3.205   1.253   4.160  0.3544 -0.3290  1.1973
12766TIP3   OH259712   3.274   5.337  13.319 -0.0650  0.4464 -0.0172
12766TIP3    H159713   3.317   5.303  13.397 -1.1742 -0.0589  0.3952
12766TIP3    H259714   3.198   5.385  13.352 -0.8949 -0.3035 -0.8050
12767TIP3   OH259715   0.221   0.656   5.388 -0.1830  0.2058 -0.0722
12767TIP3    H159716   0.164   0.612   5.451  0.0838 -0.7093 -0.4586
12767TIP3    H259717   0.177   0.644   5.304 -0.0865  0.6507 -0.1859
12768TIP3   OH259718   2.692   2.681  11.257  0.3184  0.2775 -0.5193
12768TIP3    H159719   2.635   2.750  11.223 -0.6900 -0.6685 -0.7811
12768TIP3    H259720   2.655   2.658  11.341  0.7312  0.1338 -0.3725
12769TIP3   OH259721   2.974   2.043   4.246 -0.3317 -0.0013  0.2404
12769TIP3    H159722   3.035   1.999   4.187  1.4221  1.6979  0.6903
12769TIP3    H259723   2.930   2.108   4.190 -0.3611  0.0498  0.3232
12770TIP3   OH259724   6.460   4.985  16.678 -0.6562 -0.3460 -0.2171
12770TIP3    H159725   6.540   4.938  16.702 -1.3796 -0.9147  1.1764
12770TIP3    H259726   6.449   5.051  16.746 -1.0345  0.1492 -0.7522
12771TIP3   OH259727   5.546   4.579   4.564  0.4023 -0.2141 -0.1917
12771TIP3    H159728   5.531   4.485   4.555  0.4686 -0.4076  1.3587
12771TIP3    H259729   5.576   4.589   4.655 -0.4772  1.4145 -0.0479
12772TIP3   OH259730   4.089   3.659  16.828 -0.0499 -0.1198 -0.4463
12772TIP3    H159731   3.998   3.634  16.842 -0.8669  2.9555  0.5712
12772TIP3    H259732   4.135   3.628  16.905 -0.5741 -0.2903 -0.2008
12773TIP3   OH259733   5.942   5.003   3.785  0.1302  0.1397  0.8419
12773TIP3    H159734   5.949   5.099   3.781  0.3801  0.3149  3.5666
12773TIP3    H259735   6.027   4.975   3.819  0.7120 -1.2936 -1.5484
12774TIP3   OH259736   0.223   4.293   6.548 -0.2120  0.0269  0.7011
12774TIP3    H159737   0.151   4.354   6.567 -1.3188 -0.3159 -1.9724
12774TIP3    H259738   0.302   4.341   6.571 -1.1800  1.3855  1.3431
12775TIP3   OH259739   3.765   3.164  15.329 -0.0782 -0.0768 -0.0125
12775TIP3    H159740   3.707   3.200  15.396  0.1153  1.4811 -0.6355
12775TIP3    H259741   3.729   3.078  15.310 -2.3385  0.9066 -0.5337
12776TIP3   OH259742   1.495   3.828   2.196  0.7502 -0.1036 -0.2227
12776TIP3    H159743   1.531   3.754   2.243  1.0874 -1.2499 -2.1821
12776TIP3    H259744   1.551   3.838   2.119 -1.6950 -0.5153 -2.1856
12777TIP3   OH259745   2.097   5.666   1.743  0.0586 -0.5833  0.0435
12777TIP3    H159746   2.036   5.650   1.815 -0.2411 -2.4754 -0.5701
12777TIP3    H259747   2.166   5.721   1.782 -1.3843  0.5782  1.0680
12778TIP3   OH259748   1.453   4.351   0.004  0.3411  0.0471  0.1235
12778TIP3    H159749   1.427   4.269   0.046 -0.6225  0.4820  0.4040
12778TIP3    H259750   1.405   4.353  -0.078  0.0056  0.5252  0.3209
12779TIP3   OH259751   5.771   4.294  11.261 -0.7816 -0.0698  0.2401
12779TIP3    H159752   5.842   4.321  11.203  0.3100  0.8127  1.8900
12779TIP3    H259753   5.711   4.369  11.263 -0.7974 -0.0831  0.2732
12780TIP3   OH259754   5.169   2.276  16.847 -0.2562  0.1582  0.0498
12780TIP3    H159755   5.205   2.331  16.777 -0.7568  1.0413  0.4644
12780TIP3    H259756   5.209   2.191  16.833  1.2315  0.8461 -0.1021
12781TIP3   OH259757   4.180   4.853   4.974 -0.1130  0.2817  0.0676
12781TIP3    H159758   4.166   4.794   5.048 -1.7163 -1.4913 -1.5346
12781TIP3    H259759   4.099   4.902   4.966 -0.0949  0.2046 -0.7130
12782TIP3   OH259760   0.656   3.827  11.579 -0.0112  0.2943  0.6317
12782TIP3    H159761   0.662   3.734  11.558 -2.0759  0.4498 -0.9115
12782TIP3    H259762   0.742   3.863  11.556 -0.2955 -0.6213 -2.2619
12783TIP3   OH259763   0.486   1.155   0.950 -0.7738  1.0764 -0.0517
12783TIP3    H159764   0.414   1.149   1.013 -0.4293  0.7703  0.3214
12783TIP3    H259765   0.479   1.076   0.897  0.7315 -0.2576  1.5781
12784TIP3   OH259766   1.053   5.961   5.828  0.2339  0.1838 -0.0706
12784TIP3    H159767   1.145   5.938   5.816  0.2694  0.9685 -1.5306
12784TIP3    H259768   1.010   5.930   5.748 -1.1461 -1.8632  1.3567
12785TIP3   OH259769   0.435   2.651  15.465  0.3692 -0.0889  0.5138
12785TIP3    H159770   0.369   2.689  15.522  1.6242  1.6498  0.8841
12785TIP3    H259771   0.506   2.625  15.524 -0.5846 -3.5627  0.3396
12786TIP3   OH259772   4.117   3.715  13.089 -0.3744 -0.4185 -0.2099
12786TIP3    H159773   4.045   3.686  13.145 -0.2964 -1.0831 -0.4423
12786TIP3    H259774   4.085   3.794  13.046 -0.9157 -0.6413 -0.2129
12787TIP3   OH259775   0.948   2.578   0.381 -0.3394 -0.0224  0.6760
12787TIP3    H159776   0.864   2.541   0.354 -0.7024  1.4235 -0.3033
12787TIP3    H259777   0.930   2.671   0.395  0.9119  0.1430  1.3731
12788TIP3   OH259778   2.609   5.178   4.508 -0.6248 -0.3963  0.1142
12788TIP3    H159779   2.539   5.124   4.546  0.0718 -2.5272 -1.4275
12788TIP3    H259780   2.670   5.191   4.580  0.3419 -3.7825  0.0990
12789TIP3   OH259781   0.182   5.237   6.114  0.5898 -0.3359 -0.1300
12789TIP3    H159782   0.259   5.180   6.123  0.4484 -0.5736 -0.3982
12789TIP3    H259783   0.165   5.269   6.203 -0.8458 -2.6859  0.5312
12790TIP3   OH259784   5.456   6.159   3.374 -0.2263 -0.1590 -0.4788
12790TIP3    H159785   5.465   6.174   3.469 -0.3071  1.0485 -0.6395
12790TIP3    H259786   5.388   6.093   3.366  0.2376 -0.7604  0.3285
12791TIP3   OH259787   4.664   5.498  10.712  0.5208 -0.4908 -0.4356
12791TIP3    H159788   4.639   5.530  10.626  1.2629 -3.9344 -2.0774
12791TIP3    H259789   4.586   5.453  10.745  1.2615 -2.2898 -0.9946
12792TIP3   OH259790   1.158   6.250  12.030  0.6810  0.5522 -0.0409
12792TIP3    H159791   1.134   6.340  12.052 -0.6650  0.3212 -0.4927
12792TIP3    H259792   1.193   6.256  11.940 -0.2083  0.5065 -0.3942
12793TIP3   OH259793   1.329   0.990   3.748  0.4830 -0.3926  0.2804
12793TIP3    H159794   1.425   0.990   3.753  0.4650 -0.2638  0.6805
12793TIP3    H259795   1.300   0.978   3.839  0.1196 -0.3090  0.1785
12794TIP3   OH259796   0.711   6.229   6.113  0.1388 -0.0810  0.1624
12794TIP3    H159797   0.760   6.147   6.105  0.4485  0.1316 -0.1592
12794TIP3    H259798   0.776   6.293   6.142  0.0165  0.1646 -0.1003
12795TIP3   OH259799   6.758   5.608   1.733 -0.5986  0.0150 -0.3718
12795TIP3    H159800   6.762   5.524   1.688  0.4468  0.7376 -1.7247
12795TIP3    H259801   6.770   5.673   1.663  0.8968  1.2132  0.9260
12796TIP3   OH259802   2.223   3.892   5.233 -0.4720 -0.1003 -0.3207
12796TIP3    H159803   2.177   3.846   5.303 -0.1012  0.3397  0.2186
12796TIP3    H259804   2.315   3.867   5.243 -0.5067 -0.5875 -1.0914
12797TIP3   OH259805   0.647   0.654   5.906  0.7203 -0.1900 -0.6044
12797TIP3    H159806   0.610   0.709   5.836 -0.0979 -1.2221 -0.9982
12797TIP3    H259807   0.691   0.717   5.964  1.0700  0.7323 -1.8138
12798TIP3   OH259808   0.207   5.588  12.818  0.1377  0.1465  0.0271
12798TIP3    H159809   0.129   5.626  12.777 -0.1541 -0.9618 -0.4779
12798TIP3    H259810   0.271   5.582  12.747  0.5837  0.7499  0.3680
12799TIP3   OH259811   0.538   1.964   1.984  0.4434 -0.3076  0.7828
12799TIP3    H159812   0.629   1.972   2.011  0.3626  3.3097  0.4276
12799TIP3    H259813   0.537   1.988   1.892 -0.8511 -0.6128  0.6945
12800TIP3   OH259814   0.697   3.749   4.664 -0.1245 -0.0108  0.0987
12800TIP3    H159815   0.686   3.842   4.646  0.0086 -0.1724 -0.8530
12800TIP3    H259816   0.791   3.733   4.656  0.0066 -0.0240  1.3593
12801TIP3   OH259817   3.567   2.895   3.698  0.0090 -0.1188 -0.3746
12801TIP3    H159818   3.489   2.949   3.708 -0.5339 -1.1768  2.0089
12801TIP3    H259819   3.536   2.813   3.659 -0.2036 -0.7030  0.9641
12802TIP3   OH259820   4.300   4.069  16.433  0.4838  0.3623 -0.5509
12802TIP3    H159821   4.380   4.112  16.402  2.2153 -0.6264  2.1515
12802TIP3    H259822   4.288   3.995  16.373  2.4693 -0.2925 -0.2210
12803TIP3   OH259823   5.177   0.487   3.011 -0.3983 -0.8599 -0.2027
12803TIP3    H159824   5.143   0.413   2.961 -0.8255 -0.4833 -0.4778
12803TIP3    H259825   5.156   0.564   2.958  0.6541 -0.5909 -0.2560
12804TIP3   OH259826   0.772   6.416   1.514 -0.1605  0.6151  0.0843
12804TIP3    H159827   0.839   6.375   1.568 -0.2527  1.1879  0.6479
12804TIP3    H259828   0.745   6.493   1.564  1.6854  2.7431 -1.9942
12805TIP3   OH259829   2.777   5.900  11.953 -0.1083 -0.5447  0.2242
12805TIP3    H159830   2.760   5.908  11.859  0.9024  2.4545  0.2036
12805TIP3    H259831   2.705   5.948  11.995 -0.5630 -1.8637  1.0658
12806TIP3   OH259832   5.954   0.663  16.213 -0.3791  0.6255 -0.1078
12806TIP3    H159833   5.985   0.701  16.131 -0.7045  0.3271 -0.3726
12806TIP3    H259834   5.870   0.623  16.191 -1.3457  2.0594  0.7627
12807TIP3   OH259835   0.991   4.344   4.081  0.1878 -0.3070  0.0443
12807TIP3    H159836   1.073   4.300   4.101  0.9875  1.2871  0.4273
12807TIP3    H259837   1.004   4.377   3.992 -0.3034 -0.6185 -0.1451
12808TIP3   OH259838   1.797   2.040   3.051  0.4369 -0.2890 -0.1242
12808TIP3    H159839   1.828   2.099   3.119 -0.2660  0.6514 -0.6018
12808TIP3    H259840   1.723   1.994   3.090  0.5212 -0.3159  0.0035
12809TIP3   OH259841   2.513   2.840   4.429  0.0119 -0.0152 -0.3534
12809TIP3    H159842   2.464   2.916   4.461 -1.0337 -0.9436  0.3354
12809TIP3    H259843   2.503   2.844   4.334 -3.4863 -1.4067 -0.1960
12810TIP3   OH259844   0.577   1.952   0.529 -0.6133  0.6883  0.1158
12810TIP3    H159845   0.528   2.000   0.463  1.8312  0.3545 -2.1361
12810TIP3    H259846   0.565   1.860   0.506  1.8533  0.6112 -1.3000
12811TIP3   OH259847   2.329   2.813  10.786  0.2840 -0.5702  0.2264
12811TIP3    H159848   2.263   2.809  10.718 -0.6486  1.3590  0.9521
12811TIP3    H259849   2.336   2.723  10.819 -1.5725 -0.9181 -0.2516
12812TIP3   OH259850   6.651   6.518   0.509  0.3331 -0.0608 -0.6838
12812TIP3    H159851   6.601   6.565   0.576  0.9001  0.9491 -0.9550
12812TIP3    H259852   6.702   6.454   0.559  0.7420  0.6760 -0.1208
12813TIP3   OH259853   5.217   1.691  10.790 -0.1727  0.5509  0.1236
12813TIP3    H159854   5.313   1.690  10.782 -0.2668 -2.3273 -2.4198
12813TIP3    H259855   5.197   1.612  10.839 -1.3041  0.3783 -0.5990
12814TIP3   OH259856   0.612   5.113   4.095 -0.2708 -0.1823  1.0165
12814TIP3    H159857   0.540   5.110   4.159  1.1758  2.8401  2.9894
12814TIP3    H259858   0.580   5.171   4.026 -0.3776 -0.2961  0.9692
12815TIP3   OH259859   2.707   1.461   4.701  0.4309  0.0893 -0.5325
12815TIP3    H159860   2.701   1.399   4.774  1.2610  0.6688  0.0543
12815TIP3    H259861   2.797   1.495   4.706  0.4226  0.3214 -1.6818
12816TIP3   OH259862   3.881   0.266   1.237  0.3424  0.0231  0.6930
12816TIP3    H159863   3.927   0.189   1.203  0.2861  0.9768 -1.7205
12816TIP3    H259864   3.810   0.229   1.291  0.7044 -1.5840  0.1377
12817TIP3   OH259865   1.152   1.528  15.248 -0.5946  0.6200  0.1763
12817TIP3    H159866   1.144   1.510  15.154 -2.6044  1.4957  0.1352
12817TIP3    H259867   1.062   1.528  15.280 -0.3227  4.2805  1.3378
12818TIP3   OH259868   4.763   0.376  17.104  0.1032  0.3593  0.2189
12818TIP3    H159869   4.792   0.320  17.033 -0.5739 -1.0471  1.0142
12818TIP3    H259870   4.722   0.317  17.167 -0.8213  1.7587  1.0061
12819TIP3   OH259871   4.266   5.033   4.374 -0.1965 -0.1046 -0.3878
12819TIP3    H159872   4.308   5.114   4.346 -1.2491  0.6275  0.0888
12819TIP3    H259873   4.317   4.964   4.333 -0.0255  0.8355 -1.8247
12820TIP3   OH259874   6.450   3.606   0.952 -0.0669 -0.3796  0.3373
12820TIP3    H159875   6.380   3.548   0.983  1.0734 -1.5512  0.8473
12820TIP3    H259876   6.405   3.681   0.914 -1.6033 -1.4095  0.0446
12821TIP3   OH259877   0.613   0.105   2.096 -0.0704 -0.2997 -0.3496
12821TIP3    H159878   0.694   0.133   2.053 -0.0796 -0.2839 -0.3566
12821TIP3    H259879   0.642   0.049   2.168 -0.1042 -3.3583 -2.4946
12822TIP3   OH259880   5.605   2.184   4.945  0.2556 -0.4462  0.4601
12822TIP3    H159881   5.605   2.279   4.955 -1.5930 -0.4949  1.3125
12822TIP3    H259882   5.610   2.170   4.850  1.4581  0.4478  0.3660
12823TIP3   OH259883   5.826   6.644  13.070 -0.1936 -0.1161  0.4219
12823TIP3    H159884   5.883   6.614  13.141 -0.2495 -1.3191 -0.0080
12823TIP3    H259885   5.885   6.686  13.008  0.1968 -0.9914  0.1742
12824TIP3   OH259886   5.343   2.588   4.566  0.5879  0.0553  0.0909
12824TIP3    H159887   5.423   2.535   4.569  0.2312 -0.6512 -1.6442
12824TIP3    H259888   5.354   2.645   4.490 -0.2134  0.5303  0.3173
12825TIP3   OH259889   1.309   4.118   1.877  0.2450  0.2348 -0.5836
12825TIP3    H159890   1.324   4.175   1.952 -1.9357  1.7409 -1.1815
12825TIP3    H259891   1.379   4.140   1.815  1.0569  0.2043  0.3127
12826TIP3   OH259892   4.032   3.638   3.304  0.2231 -0.1082  0.0134
12826TIP3    H159893   4.125   3.637   3.278  0.1596 -0.7278 -0.1983
12826TIP3    H259894   4.013   3.731   3.319  1.8193 -0.2102  3.5502
12827TIP3   OH259895   3.409   1.455  17.021 -0.6814 -0.5172  0.1738
12827TIP3    H159896   3.427   1.428  16.931  0.3257 -0.9005  0.4751
12827TIP3    H259897   3.337   1.398  17.049 -0.3225 -1.1036 -0.0648
12828TIP3   OH259898   4.252   5.937  14.002 -0.1731 -0.0147  0.3478
12828TIP3    H159899   4.302   6.017  13.989 -1.1369  0.5442 -0.0413
12828TIP3    H259900   4.290   5.897  14.081  0.4042  0.7532  0.4699
12829TIP3   OH259901   6.335   3.090  12.379 -0.4376  0.1305  0.1235
12829TIP3    H159902   6.310   3.181  12.392 -0.6702  0.7522 -3.7019
12829TIP3    H259903   6.276   3.041  12.436 -1.8506  2.2151  0.5746
12830TIP3   OH259904   5.335   2.629   1.916 -0.2735  0.0087  0.3965
12830TIP3    H159905   5.250   2.593   1.939 -0.2634 -0.1201  0.2387
12830TIP3    H259906   5.342   2.710   1.966  0.6573 -1.3049  2.5512
12831TIP3   OH259907   1.114   2.570   5.758 -0.5417 -0.2698 -0.3413
12831TIP3    H159908   1.187   2.551   5.700  0.3277  0.6675  0.4072
12831TIP3    H259909   1.155   2.600   5.839 -1.7490 -0.2401  0.2780
12832TIP3   OH259910   4.084   1.932  16.326  0.1838  0.0960  0.0483
12832TIP3    H159911   4.086   1.840  16.302 -1.2371 -0.2683  1.1606
12832TIP3    H259912   4.174   1.953  16.351  0.2466 -1.4168  1.2261
12833TIP3   OH259913   3.899   2.669   4.883 -0.6112 -0.4836 -0.3145
12833TIP3    H159914   3.944   2.586   4.901  0.0199 -0.1683 -0.4224
12833TIP3    H259915   3.890   2.671   4.788 -0.4467 -0.3341 -0.3263
12834TIP3   OH259916   1.429   4.766   4.404  0.4070 -0.1874  0.2326
12834TIP3    H159917   1.509   4.770   4.456  0.6392 -1.5633  0.0090
12834TIP3    H259918   1.398   4.676   4.415 -0.9284  0.2313  0.0460
12835TIP3   OH259919   5.738   3.549   0.104  0.5280  0.3119 -0.1399
12835TIP3    H159920   5.711   3.572   0.192  0.5120  0.4251 -0.1741
12835TIP3    H259921   5.760   3.633   0.063 -0.0222  0.3154 -0.4313
12836TIP3   OH259922   1.130   3.882  14.616  0.0306 -0.0343 -0.3662
12836TIP3    H159923   1.111   3.843  14.531  1.0078  1.4333 -1.3165
12836TIP3    H259924   1.215   3.847  14.641 -0.5764 -1.0232  0.3873
12837TIP3   OH259925   6.223   4.135   5.271  0.0967 -0.6018  0.0119
12837TIP3    H159926   6.239   4.098   5.358 -0.2965 -1.5040 -0.2818
12837TIP3    H259927   6.140   4.181   5.279 -1.4448 -3.0967 -0.5549
12838TIP3   OH259928   0.084   6.416  16.359  0.5473  0.0913 -0.0813
12838TIP3    H159929   0.131   6.408  16.442  0.4971 -2.3449 -0.2240
12838TIP3    H259930   0.054   6.327  16.340 -0.6764  0.8633 -2.0053
12839TIP3   OH259931   6.173   0.048   1.135  0.0542  0.0941 -0.4820
12839TIP3    H159932   6.098   0.089   1.177 -0.8650 -0.7091 -1.3104
12839TIP3    H259933   6.151   0.048   1.042  1.5971  0.9048 -0.8914
12840TIP3   OH259934   4.486   3.835   5.743 -0.0919  0.1186  0.9428
12840TIP3    H159935   4.487   3.835   5.839 -1.3072  0.1842  0.9674
12840TIP3    H259936   4.408   3.885   5.720 -0.3947 -0.7887 -0.0637
12841TIP3   OH259937   3.644   0.344  15.664 -0.3267  0.1113 -0.3311
12841TIP3    H159938   3.622   0.435  15.684  0.7220  0.5846 -1.2185
12841TIP3    H259939   3.563   0.307  15.628 -0.5062  0.9766 -0.8513
12842TIP3   OH259940   6.207   0.537   4.929  0.4844 -0.1960  0.2849
12842TIP3    H159941   6.137   0.493   4.979  0.1413 -0.3828 -0.3442
12842TIP3    H259942   6.286   0.489   4.953  0.2997 -0.3869  0.5329
12843TIP3   OH259943   5.857   2.506   3.812 -0.3287 -0.4896  0.1015
12843TIP3    H159944   5.870   2.497   3.718  0.2147 -0.2614  0.1529
12843TIP3    H259945   5.768   2.542   3.821 -0.5698 -0.9857 -0.2979
12844TIP3   OH259946   1.257   0.913   4.741  0.2335 -0.0202  0.0331
12844TIP3    H159947   1.353   0.911   4.739  0.2440  0.1955  0.2666
12844TIP3    H259948   1.236   0.937   4.831 -0.0418 -0.1143 -0.0058
12845TIP3   OH259949   2.354   2.866   0.079  0.4774 -0.5361 -0.6561
12845TIP3    H159950   2.347   2.928   0.007 -2.5058 -2.3475 -2.1191
12845TIP3    H259951   2.425   2.807   0.053  0.1122 -0.5669 -1.6258
12846TIP3   OH259952   6.623   1.520   5.229 -0.1723 -0.1013 -0.2326
12846TIP3    H159953   6.601   1.468   5.152  1.3520 -0.0882 -0.7098
12846TIP3    H259954   6.545   1.571   5.247 -0.9916 -1.0459 -0.9914
12847TIP3   OH259955   3.334   5.492  11.872 -0.0850 -0.2363  0.3477
12847TIP3    H159956   3.340   5.511  11.966  0.1297 -1.3563  0.5854
12847TIP3    H259957   3.241   5.489  11.854 -0.1270  0.2162  0.4702
12848TIP3   OH259958   0.303   1.050  14.464  0.0460  0.4378  0.0084
12848TIP3    H159959   0.209   1.057  14.482 -0.0000  1.0292 -0.4377
12848TIP3    H259960   0.315   0.960  14.437 -1.3056  1.4458 -4.9328
12849TIP3   OH259961   4.304   3.199   1.991 -0.4333  0.1595 -0.0303
12849TIP3    H159962   4.308   3.166   2.080  1.3566  0.3917  0.0018
12849TIP3    H259963   4.291   3.294   2.001  0.7383  0.3307  0.0369
12850TIP3   OH259964   2.374   3.045   0.294  0.0452  0.1261 -0.5141
12850TIP3    H159965   2.371   2.962   0.247 -0.3369 -0.0076 -0.2594
12850TIP3    H259966   2.282   3.068   0.308  0.1496  0.5910 -0.5821
12851TIP3   OH259967   4.460   4.676   5.999 -0.6201  0.1188 -0.1970
12851TIP3    H159968   4.399   4.642   6.065  0.9650  0.1332  1.3372
12851TIP3    H259969   4.407   4.684   5.919 -2.2291 -1.3220  0.6669
12852TIP3   OH259970   0.815   2.242   2.308  0.1082 -0.4722  0.1923
12852TIP3    H159971   0.796   2.323   2.261 -0.1622 -0.9224 -0.4873
12852TIP3    H259972   0.729   2.205   2.327  0.0440  0.9896  3.4293
12853TIP3   OH259973   0.282   1.929  15.334  0.2111 -0.2994 -0.7017
12853TIP3    H159974   0.335   1.909  15.257  0.7530 -0.1651 -0.3746
12853TIP3    H259975   0.344   1.925  15.407 -0.6085 -1.9813 -0.0663
12854TIP3   OH259976   1.105   2.278  15.255  1.3073  0.1254 -0.2656
12854TIP3    H159977   1.060   2.261  15.172  0.7025 -1.0252  0.2722
12854TIP3    H259978   1.074   2.364  15.282  0.9005  0.1659 -0.8434
12855TIP3   OH259979   6.385   0.516   1.400 -0.0381 -0.4309 -0.7634
12855TIP3    H159980   6.305   0.463   1.394 -0.3419 -0.1850  0.7194
12855TIP3    H259981   6.407   0.537   1.309 -1.5400 -0.6842 -1.2097
12856TIP3   OH259982   5.243   4.358  11.095 -0.1252 -0.1956  0.1133
12856TIP3    H159983   5.309   4.317  11.039 -0.8712 -0.5741 -0.5066
12856TIP3    H259984   5.265   4.451  11.095  1.5288 -0.5427  1.4416
12857TIP3   OH259985   2.823   6.519  12.404  0.4338  0.1550 -0.5776
12857TIP3    H159986   2.730   6.538  12.411  0.3969  0.0388 -0.7704
12857TIP3    H259987   2.832   6.464  12.326  0.5600 -0.4920 -0.1165
12858TIP3   OH259988   4.533   2.251   4.024  0.0388 -0.2470  0.2991
12858TIP3    H159989   4.607   2.215   3.975 -0.6550  1.3317 -2.1079
12858TIP3    H259990   4.567   2.332   4.062 -0.0386 -0.2954  0.4696
12859TIP3   OH259991   6.139   2.997  14.918  0.1686  0.0619 -0.1379
12859TIP3    H159992   6.219   3.015  14.868  0.5302 -1.0225  0.0192
12859TIP3    H259993   6.077   2.965  14.853 -0.4304  1.7059 -0.3967
12860TIP3   OH259994   4.922   1.974  16.995 -0.4259  0.1377 -0.1983
12860TIP3    H159995   4.980   2.019  17.056 -0.0778  1.7415 -1.6265
12860TIP3    H259996   4.865   2.043  16.961 -2.1476 -1.1240 -0.0186
12861TIP3   OH259997   3.763   2.305   3.648  0.2565 -0.1165 -0.2405
12861TIP3    H159998   3.714   2.341   3.723 -1.0265 -0.4346 -0.8851
12861TIP3    H259999   3.752   2.210   3.655  2.0281 -0.2956  0.3954
12862TIP3   OH260000   5.264   0.387   0.299 -0.6146 -0.0540 -0.1002
12862TIP3    H160001   5.214   0.306   0.296  1.9261 -1.8310  1.6687
12862TIP3    H260002   5.319   0.385   0.220 -1.5055  0.6747 -0.7618
12863TIP3   OH260003   5.068   4.126   0.393 -0.1056  0.5253  0.7683
12863TIP3    H160004   5.073   4.041   0.349  1.6684 -0.4946  2.7859
12863TIP3    H260005   5.155   4.164   0.381 -0.7346  1.8925  0.2892
12864TIP3   OH260006   3.466   1.059   1.111 -0.0114  0.5585  0.3352
12864TIP3    H160007   3.436   1.117   1.040  2.2382  2.0747  0.5348
12864TIP3    H260008   3.523   0.996   1.068 -0.7534 -0.2218  0.4526
12865TIP3   OH260009   3.945   4.252   0.392 -0.3266  0.2251 -0.1132
12865TIP3    H160010   3.972   4.162   0.411  3.0037  1.0321 -0.5324
12865TIP3    H260011   4.007   4.283   0.326 -1.9315  2.5835 -0.6376
12866TIP3   OH260012   2.097   2.088  14.430 -0.2282  0.0404 -0.6145
12866TIP3    H160013   2.045   2.009  14.413 -0.1644  0.1946 -1.5549
12866TIP3    H260014   2.033   2.159  14.430 -0.7215 -0.2256  2.8378
12867TIP3   OH260015   4.639   0.143  16.982  0.1629  0.1509 -0.2966
12867TIP3    H160016   4.655   0.070  17.042  0.0356 -0.0119 -0.4613
12867TIP3    H260017   4.721   0.152  16.934  0.1398  0.0469 -0.3536
12868TIP3   OH260018   0.707   2.060   3.168 -0.0533  0.1250 -0.2586
12868TIP3    H160019   0.777   2.021   3.116 -0.7614  1.3945 -2.2832
12868TIP3    H260020   0.627   2.022   3.132 -0.5016 -0.6142  1.4123
12869TIP3   OH260021   0.449   2.454  13.392  0.5552 -0.2564 -0.5203
12869TIP3    H160022   0.456   2.549  13.378 -3.0828  0.0159 -1.5397
12869TIP3    H260023   0.468   2.442  13.485  4.1815  0.9217 -0.9515
12870TIP3   OH260024   0.246   3.230   0.002 -0.1259 -0.5643  0.5832
12870TIP3    H160025   0.259   3.189  -0.083  2.6790  0.3594  0.4607
12870TIP3    H260026   0.184   3.301  -0.013  0.4839 -0.2927 -0.7565
12871TIP3   OH260027   3.327   3.001  13.362  0.5669 -0.3745  0.0024
12871TIP3    H160028   3.231   2.994  13.367  0.5294  0.1606 -0.0006
12871TIP3    H260029   3.348   2.969  13.274  0.3508 -0.0444 -0.1695
12872TIP3   OH260030   5.736   1.762   2.396 -0.2590 -0.0851 -0.0072
12872TIP3    H160031   5.768   1.703   2.465  0.6893  0.0090 -0.3604
12872TIP3    H260032   5.734   1.848   2.438  0.2169 -0.0461 -0.0556
12873TIP3   OH260033   3.769   0.850  16.904 -0.3052  0.4832 -0.4499
12873TIP3    H160034   3.762   0.865  16.999  1.6206  0.5444 -0.2721
12873TIP3    H260035   3.722   0.768  16.889  1.3126 -0.7789  0.9868
12874TIP3   OH260036   4.050   2.791  14.589 -0.0534  0.4271  0.0840
12874TIP3    H160037   3.993   2.771  14.515 -0.3113 -2.5388  0.9374
12874TIP3    H260038   4.135   2.754  14.565 -0.0159 -0.1513  1.0319
12875TIP3   OH260039   1.442   3.959   4.929 -1.2874  0.2503 -0.5478
12875TIP3    H160040   1.472   4.019   4.997 -1.1867  0.1493 -0.5030
12875TIP3    H260041   1.517   3.900   4.914 -1.6422 -0.3182 -0.0874
12876TIP3   OH260042   6.552   6.636   4.281  0.1069  0.6171 -0.1680
12876TIP3    H160043   6.647   6.625   4.280  0.1444  0.9614 -1.2559
12876TIP3    H260044   6.536   6.715   4.230 -0.7123  1.0911  0.7842
12877TIP3   OH260045   0.824   3.162   5.825  0.1249 -0.2451 -0.8486
12877TIP3    H160046   0.777   3.188   5.904 -1.0924 -1.5524 -1.1036
12877TIP3    H260047   0.810   3.068   5.818  2.6233 -0.6765 -1.0941
12878TIP3   OH260048   3.885   1.826   3.594  0.5430 -0.8046 -0.1337
12878TIP3    H160049   3.965   1.781   3.567 -0.1329 -1.8615 -0.4537
12878TIP3    H260050   3.826   1.755   3.621 -0.0974 -0.0116  0.6193
12879TIP3   OH260051   5.451   3.205   5.576  0.3882 -0.5531 -0.8821
12879TIP3    H160052   5.474   3.248   5.659  0.9145 -2.6136  0.1163
12879TIP3    H260053   5.401   3.128   5.603  3.4231 -3.1995 -2.1175
12880TIP3   OH260054   0.014   1.299  15.931 -0.0263  0.6956  0.2610
12880TIP3    H160055  -0.003   1.229  15.867  0.3007 -1.2479  2.1706
12880TIP3    H260056   0.099   1.335  15.906  0.3506 -0.4070 -0.1034
12881TIP3   OH260057   5.801   5.939  13.094  0.6152  0.5925 -1.0672
12881TIP3    H160058   5.730   5.991  13.133  0.2251 -0.5262 -0.2229
12881TIP3    H260059   5.809   5.972  13.005  0.9675  2.6842 -0.3117
12882TIP3   OH260060   1.994   5.620  13.842  0.4521 -0.4364 -0.0850
12882TIP3    H160061   1.978   5.700  13.792 -0.9878  0.9003  2.3313
12882TIP3    H260062   2.073   5.639  13.894 -0.2325 -0.3040  0.9411
12883TIP3   OH260063   5.946   5.383  16.467  0.2544  0.2920  0.3474
12883TIP3    H160064   5.892   5.459  16.487  0.0659  0.0925  0.6060
12883TIP3    H260065   5.905   5.311  16.516 -1.4798 -0.6798 -2.2950
12884TIP3   OH260066   5.641   0.387  13.158  0.2771  0.2989 -0.4295
12884TIP3    H160067   5.564   0.365  13.210 -0.1140  1.0291 -0.6807
12884TIP3    H260068   5.664   0.305  13.113 -0.1154 -0.0196 -0.0548
12885TIP3   OH260069   0.071   3.492  16.828 -0.5254  1.0474 -0.1813
12885TIP3    H160070   0.061   3.545  16.907 -1.1364  0.5279  0.0927
12885TIP3    H260071   0.114   3.551  16.766  2.8607  0.5915  1.4763
12886TIP3   OH260072   5.195   4.783  12.895  0.2824 -0.0881 -0.8889
12886TIP3    H160073   5.284   4.819  12.897  0.0141  0.5738 -0.3835
12886TIP3    H260074   5.149   4.839  12.833 -0.8489  2.2450  1.8179
12887TIP3   OH260075   2.531   5.783   0.529 -0.5905  0.4095  0.2518
12887TIP3    H160076   2.497   5.783   0.619 -0.9752  2.7743  0.1747
12887TIP3    H260077   2.452   5.787   0.474 -0.3077  1.2072 -0.1042
12888TIP3   OH260078   1.565   3.677   1.166 -0.2896  0.6032 -0.0782
12888TIP3    H160079   1.545   3.769   1.148 -0.7734  0.7489  1.1164
12888TIP3    H260080   1.532   3.662   1.254  2.2362  0.0488  0.8722
12889TIP3   OH260081   6.482   0.040  11.585 -0.1780  0.0746 -0.3807
12889TIP3    H160082   6.513   0.047  11.495 -0.0953 -1.1988 -0.4617
12889TIP3    H260083   6.534   0.104  11.634 -1.6173  2.2791 -1.5683
12890TIP3   OH260084   0.502   4.191  15.063 -0.5561  0.5473  0.2738
12890TIP3    H160085   0.454   4.249  15.003 -1.7635  1.0842  1.6948
12890TIP3    H260086   0.467   4.104  15.045 -0.7718  0.6704  0.0875
12891TIP3   OH260087   5.963   2.094   2.944 -0.4180  0.1374 -0.2997
12891TIP3    H160088   5.896   2.026   2.946 -1.1840  0.8833  1.5172
12891TIP3    H260089   5.985   2.109   3.036 -2.6053  4.5256 -0.2617
12892TIP3   OH260090   5.425   1.514  13.951  0.1488  0.0941 -0.0630
12892TIP3    H160091   5.420   1.457  13.875  1.0691 -1.2083  0.8122
12892TIP3    H260092   5.519   1.525  13.967 -0.0283  0.7071  0.6259
12893TIP3   OH260093   3.550   4.996   5.579  0.1073 -0.4733 -0.4706
12893TIP3    H160094   3.455   5.005   5.565 -0.0780 -1.1286  0.3210
12893TIP3    H260095   3.570   4.905   5.557  0.5478 -0.3463 -0.6070
12894TIP3   OH260096   4.417   2.157  11.783 -0.3200 -0.2214  0.2642
12894TIP3    H160097   4.447   2.068  11.762  0.1706  0.7399 -4.1444
12894TIP3    H260098   4.321   2.151  11.779 -0.3161 -0.7117  0.8466
12895TIP3   OH260099   0.746   0.223   4.997 -0.1663 -0.6832  0.4942
12895TIP3    H160100   0.817   0.196   4.939  0.8794  1.0071  0.8972
12895TIP3    H260101   0.728   0.314   4.971 -3.2027 -1.4542 -0.5370
12896TIP3   OH260102   5.408   3.784   5.133 -0.8642  0.0907 -0.1617
12896TIP3    H160103   5.405   3.877   5.158  0.4022 -0.2926  1.6021
12896TIP3    H260104   5.496   3.756   5.156 -1.4656 -1.7388  0.0827
12897TIP3   OH260105   4.501   6.519  12.740  0.0036 -0.2869 -0.8963
12897TIP3    H160106   4.543   6.600  12.710 -1.8962  0.6475 -1.2045
12897TIP3    H260107   4.524   6.454  12.674  0.7267  0.2645 -1.1987
12898TIP3   OH260108   2.380   1.038  15.795  0.6163 -0.5411 -0.1123
12898TIP3    H160109   2.356   1.115  15.744  1.1707  0.1888  0.7050
12898TIP3    H260110   2.297   1.009  15.835  0.6004  0.3496  0.5271
12899TIP3   OH260111   2.353   2.142  13.019 -0.2899  0.2313  0.1181
12899TIP3    H160112   2.426   2.085  13.043  1.3100  1.5872 -1.3334
12899TIP3    H260113   2.356   2.213  13.083  0.5014  0.9582 -0.7062
12900TIP3   OH260114   4.142   0.137  17.167  0.6144 -0.8788 -0.7346
12900TIP3    H160115   4.084   0.085  17.223  0.5992 -0.7418 -0.6221
12900TIP3    H260116   4.106   0.127  17.079 -1.3724  1.6030 -0.2944
12901TIP3   OH260117   6.668   2.578  16.404  0.1631  0.7876 -0.0092
12901TIP3    H160118   6.574   2.591  16.392  0.3032  0.5482 -1.5625
12901TIP3    H260119   6.708   2.662  16.382  0.4332  0.3584 -1.2088
12902TIP3   OH260120   0.825   2.130   0.382 -0.4201 -0.0243 -0.5966
12902TIP3    H160121   0.901   2.109   0.436 -0.0608  0.1479 -1.0315
12902TIP3    H260122   0.799   2.047   0.343 -0.6222 -0.1317 -0.2438
12903TIP3   OH260123   4.566   0.158  14.415  0.2283 -0.7319  0.1508
12903TIP3    H160124   4.512   0.194  14.485  1.6738 -1.4627  1.7276
12903TIP3    H260125   4.650   0.204  14.423  0.0242  0.0837 -1.9606
12904TIP3   OH260126   4.473   4.283  13.745  0.1253  0.0834 -0.2002
12904TIP3    H160127   4.427   4.363  13.771 -0.3736  0.1792 -1.3529
12904TIP3    H260128   4.561   4.294  13.782 -0.9462 -0.4869  2.7416
12905TIP3   OH260129   1.802   1.274   0.699  0.4046 -0.4110 -0.0370
12905TIP3    H160130   1.874   1.215   0.677  2.0670  1.1987  0.8427
12905TIP3    H260131   1.836   1.362   0.680 -1.1140  0.4391  0.9754
12906TIP3   OH260132   4.434   1.775   3.752 -0.3430 -0.2990  0.3879
12906TIP3    H160133   4.363   1.813   3.804  1.2365 -0.5972  2.9469
12906TIP3    H260134   4.402   1.689   3.726 -2.0255  0.7099 -1.1740
12907TIP3   OH260135   6.397   4.840  12.498 -0.8679  0.5202 -0.7985
12907TIP3    H160136   6.379   4.770  12.561 -0.2417  1.5915  0.6133
12907TIP3    H260137   6.476   4.882  12.531  0.6884 -0.1230 -3.4002
12908TIP3   OH260138   0.221   5.732  14.092 -0.3281  0.5334 -0.2885
12908TIP3    H160139   0.146   5.673  14.098  0.3231 -0.3603 -0.5746
12908TIP3    H260140   0.297   5.674  14.100  0.3474  1.2573 -1.2141
12909TIP3   OH260141   3.611   0.224   1.331  0.0148 -0.0626  0.0973
12909TIP3    H160142   3.571   0.163   1.394  0.2148  0.0036  0.2891
12909TIP3    H260143   3.637   0.299   1.384  0.1747 -0.0026 -0.0674
12910TIP3   OH260144   0.363   5.077  15.487  0.3655  0.5843  0.2370
12910TIP3    H160145   0.396   5.166  15.476  0.7844  0.3456 -0.5341
12910TIP3    H260146   0.335   5.052  15.399 -0.3630  0.1915  0.5769
12911TIP3   OH260147   0.756   3.206  15.622  1.4079  0.3100 -0.1335
12911TIP3    H160148   0.743   3.117  15.589 -1.0456  0.3632  0.4459
12911TIP3    H260149   0.757   3.196  15.718  0.5110  0.9461 -0.0494
12912TIP3   OH260150   0.997   4.028   4.083  0.1190  0.5323  0.1541
12912TIP3    H160151   1.014   4.052   3.991  0.4573  1.7477  0.5058
12912TIP3    H260152   0.916   4.074   4.105  0.6976  1.2654  0.8116
12913TIP3   OH260153   6.156   0.438  11.031 -0.5456 -0.1259 -0.6856
12913TIP3    H160154   6.116   0.484  11.105  0.4755  0.5521 -0.5294
12913TIP3    H260155   6.204   0.506  10.984 -1.4763 -0.4736 -2.1990
12914TIP3   OH260156   1.110   4.380  13.351  0.2808 -0.0244 -0.7798
12914TIP3    H160157   1.051   4.315  13.391  0.8920 -0.4380 -0.5464
12914TIP3    H260158   1.193   4.334  13.342  1.1625  1.2109  0.7827
12915TIP3   OH260159   3.020   2.954   3.974  0.3532  0.3179  0.1971
12915TIP3    H160160   3.062   2.919   3.895  1.3223 -0.8447  1.2048
12915TIP3    H260161   3.092   2.988   4.027 -0.2955  1.1321  0.5821
12916TIP3   OH260162   2.335   6.229  11.288  0.3400  0.1347 -0.0358
12916TIP3    H160163   2.407   6.271  11.241 -0.4069  0.6099 -0.7782
12916TIP3    H260164   2.331   6.274  11.372  0.4055  0.6411 -0.3023
12917TIP3   OH260165   5.390   1.976   6.628 -0.0182 -0.0142  0.1303
12917TIP3    H160166   5.446   1.903   6.602  0.2779  0.5735 -0.9782
12917TIP3    H260167   5.323   1.937   6.684  0.3403 -1.0774 -0.1614
12918TIP3   OH260168   6.723   2.460   2.612  0.0048  0.5906  0.4720
12918TIP3    H160169   6.675   2.542   2.604 -1.7508 -0.4742 -0.8762
12918TIP3    H260170   6.752   2.440   2.523  0.8801  0.0044  0.8699
12919TIP3   OH260171   4.502   4.961  11.677  0.3316 -0.6056 -0.0290
12919TIP3    H160172   4.487   4.880  11.628 -1.0458  0.4804 -1.4837
12919TIP3    H260173   4.573   5.005  11.630  1.4350 -1.1559  1.0579
12920TIP3   OH260174   5.186   6.424   6.241  0.1237  0.1429  0.1439
12920TIP3    H160175   5.201   6.402   6.333 -1.5843  0.3984  0.5022
12920TIP3    H260176   5.150   6.513   6.243 -2.2177 -0.7218 -0.5522
12921TIP3   OH260177   0.083   0.210  12.280  0.2704 -0.2628  0.2526
12921TIP3    H160178  -0.005   0.188  12.251  0.1008 -1.8597  1.8544
12921TIP3    H260179   0.070   0.263  12.359  0.7652  1.8757 -1.0086
12922TIP3   OH260180   1.117   2.271  17.169  0.1199 -0.1845 -0.3053
12922TIP3    H160181   1.118   2.196  17.229 -0.2078  0.1828  0.1669
12922TIP3    H260182   1.193   2.323  17.195  0.2207 -0.2398 -0.4886
12923TIP3   OH260183   1.569   2.501   3.683  0.0201 -0.5616 -0.3658
12923TIP3    H160184   1.555   2.504   3.588  0.7462 -1.3240 -0.4978
12923TIP3    H260185   1.620   2.580   3.702  1.3408 -1.2813 -0.8605
12924TIP3   OH260186   3.752   2.357  11.253 -0.4664  0.7795 -0.4844
12924TIP3    H160187   3.788   2.372  11.165  0.6046 -1.0876 -0.4050
12924TIP3    H260188   3.826   2.327  11.305 -1.7987 -2.0034  0.0067
12925TIP3   OH260189   2.820   0.189  10.908 -0.2796  0.1809  0.3373
12925TIP3    H160190   2.763   0.116  10.885 -0.1493 -0.5009  1.9923
12925TIP3    H260191   2.904   0.167  10.868 -0.5302 -0.0367 -0.0731
12926TIP3   OH260192   4.170   4.207  13.597 -0.5279 -0.2228  0.0597
12926TIP3    H160193   4.189   4.210  13.691 -0.5757  0.3664  0.0576
12926TIP3    H260194   4.256   4.217  13.555 -0.5633  0.0318  0.0455
12927TIP3   OH260195   1.814   0.392  16.087  0.0473 -0.8396  0.3149
12927TIP3    H160196   1.829   0.368  15.995 -0.3627  0.9587 -0.2651
12927TIP3    H260197   1.741   0.337  16.115 -2.3882  1.1458 -1.6459
12928TIP3   OH260198   4.986   5.683  13.430  0.2665 -0.6399  0.5137
12928TIP3    H160199   4.936   5.659  13.508  0.4022 -1.1589  0.4422
12928TIP3    H260200   5.077   5.688  13.461  0.2040  0.0914  0.5968
12929TIP3   OH260201   1.488   4.094   2.757  0.5116 -0.3671  0.0213
12929TIP3    H160202   1.497   4.012   2.710 -1.2538 -1.8738  2.0719
12929TIP3    H260203   1.393   4.107   2.764  0.7256  2.3657 -0.9970
12930TIP3   OH260204   2.426   2.248  16.623 -0.0487 -0.0275 -0.3897
12930TIP3    H160205   2.521   2.236  16.631 -0.0546 -1.4603 -1.7725
12930TIP3    H260206   2.417   2.331  16.575  0.4394  0.7163  0.7675
12931TIP3   OH260207   1.076   3.964  14.869 -0.5523  0.3995 -0.4534
12931TIP3    H160208   1.086   3.922  14.784 -0.3632  1.7728 -1.1476
12931TIP3    H260209   1.131   4.042  14.864  1.0928 -0.5045  1.6926
12932TIP3   OH260210   6.619   2.363  10.595 -0.0704 -0.0854 -0.8170
12932TIP3    H160211   6.629   2.340  10.687 -2.6731 -0.1793 -0.4924
12932TIP3    H260212   6.624   2.459  10.594  1.3276 -0.1406 -0.8086
12933TIP3   OH260213   6.354   5.288   0.382 -0.2452 -0.0512  0.0016
12933TIP3    H160214   6.416   5.216   0.399 -0.2396 -0.0348  0.0504
12933TIP3    H260215   6.372   5.352   0.450 -0.0070  0.1578 -0.2541
12934TIP3   OH260216   6.028   2.783   5.649 -0.3162  0.5878  0.4898
12934TIP3    H160217   6.099   2.729   5.615 -2.3115 -1.9785  0.1448
12934TIP3    H260218   6.046   2.870   5.614  1.8020 -0.3076 -0.8329
12935TIP3   OH260219   1.580   1.095   0.240  0.0439  0.3253  0.0951
12935TIP3    H160220   1.612   1.005   0.235 -0.6883 -0.0627  1.7418
12935TIP3    H260221   1.604   1.124   0.328 -4.0018 -0.0152  1.5030
12936TIP3   OH260222   1.010   6.240   0.117 -0.3731 -0.0928  0.3729
12936TIP3    H160223   0.916   6.247   0.102 -0.1439  1.5764 -0.5367
12936TIP3    H260224   1.034   6.325   0.153  0.7671 -0.5611  0.7545
12937TIP3   OH260225   3.583   4.174  11.366 -0.1260  0.1326 -0.0152
12937TIP3    H160226   3.674   4.183  11.395  0.1088  0.9181 -0.9308
12937TIP3    H260227   3.587   4.184  11.271 -1.3183  1.3674  0.0412
12938TIP3   OH260228   3.907   6.626  14.867 -0.4831 -0.0571 -0.0351
12938TIP3    H160229   3.864   6.711  14.878 -0.4746 -0.0986  0.3584
12938TIP3    H260230   3.880   6.596  14.781  0.1093  0.6870 -0.5008
12939TIP3   OH260231   1.367   2.273   6.189 -0.4200 -0.7820 -0.0119
12939TIP3    H160232   1.357   2.307   6.100 -0.5143  0.8156  0.5665
12939TIP3    H260233   1.461   2.262   6.200 -0.3273  0.0476  0.0453
12940TIP3   OH260234   0.840   5.911   5.533 -0.5418  0.3902  0.1854
12940TIP3    H160235   0.933   5.928   5.519 -0.6577 -0.0777 -1.2776
12940TIP3    H260236   0.820   5.955   5.616  0.9976  0.3896  0.5952
12941TIP3   OH260237   3.548   3.123  11.351  0.2334 -0.1574  0.7056
12941TIP3    H160238   3.460   3.090  11.331  1.0993 -1.4450 -1.3538
12941TIP3    H260239   3.533   3.198  11.408 -2.1794 -0.5957  0.7550
12942TIP3   OH260240   6.712   0.117  14.054  0.3852 -0.4662  0.0230
12942TIP3    H160241   6.746   0.121  14.144  0.2500  0.7210  0.0418
12942TIP3    H260242   6.780   0.160  14.001  0.2579 -0.7562 -0.3793
12943TIP3   OH260243   2.288   0.709  15.889  0.7048  0.3336  0.0158
12943TIP3    H160244   2.349   0.664  15.831 -0.3948 -2.3341  0.7627
12943TIP3    H260245   2.209   0.721  15.836  0.3445 -0.4064  0.3662
12944TIP3   OH260246   2.760   4.146  15.343 -0.4541  0.3934 -0.2553
12944TIP3    H160247   2.812   4.200  15.283  0.2764 -0.0055  0.0040
12944TIP3    H260248   2.748   4.064  15.297  0.7736 -0.1991  0.4317
12945TIP3   OH260249   0.549   5.868   2.517  0.0128 -0.3543 -0.4172
12945TIP3    H160250   0.512   5.956   2.520 -3.8865 -1.7829 -1.0079
12945TIP3    H260251   0.586   5.855   2.604 -0.2703  1.4973  0.0310
12946TIP3   OH260252   3.269   3.253   4.097 -0.0608 -0.4585 -0.5944
12946TIP3    H160253   3.300   3.247   4.187 -0.2684 -0.0460 -0.4923
12946TIP3    H260254   3.257   3.162   4.069  3.1642 -0.7754 -1.3181
12947TIP3   OH260255   0.673   5.635  13.998  0.5408 -0.4290  0.0454
12947TIP3    H160256   0.636   5.664  14.081  1.6635  0.8161  0.1456
12947TIP3    H260257   0.597   5.608  13.947 -0.6176  2.1804  0.1745
12948TIP3   OH260258   0.894   2.864   2.517  0.2588  0.3857 -0.5141
12948TIP3    H160259   0.949   2.938   2.545  0.2913  0.6618 -1.2976
12948TIP3    H260260   0.926   2.790   2.570  0.3507  0.8845  0.1409
12949TIP3   OH260261   6.115   1.546   3.631  0.0702 -0.2616 -1.0264
12949TIP3    H160262   6.084   1.596   3.707  0.3711 -1.0380 -0.3782
12949TIP3    H260263   6.054   1.569   3.561 -1.5237 -1.1268  0.0015
12950TIP3   OH260264   3.922   2.620  13.793 -0.2358 -0.3816 -0.3686
12950TIP3    H160265   3.887   2.535  13.764 -0.1590 -1.6619  2.8589
12950TIP3    H260266   3.969   2.654  13.716 -1.0726 -2.7910 -2.0807
12951TIP3   OH260267   0.615   3.923   5.771  0.8308  0.1612 -0.5394
12951TIP3    H160268   0.521   3.925   5.752  0.8072 -2.4425 -1.1666
12951TIP3    H260269   0.635   4.011   5.802 -1.5677  1.1565 -1.5085
12952TIP3   OH260270   0.636   3.466  16.054  0.4413 -0.3053 -0.1431
12952TIP3    H160271   0.561   3.487  16.110  0.0074  1.7443 -1.4158
12952TIP3    H260272   0.645   3.371  16.062 -2.3585 -0.6587 -0.0255
12953TIP3   OH260273   5.092   5.057  13.024 -0.7827  0.1669 -0.1133
12953TIP3    H160274   5.128   5.049  12.936 -2.3068  1.2802 -0.8856
12953TIP3    H260275   5.057   5.146  13.028 -2.3128 -0.4381  0.9933
12954TIP3   OH260276   2.059   1.761  12.129  0.3946  0.1723  0.3438
12954TIP3    H160277   2.137   1.707  12.115 -0.5016 -1.5369  1.4949
12954TIP3    H260278   2.043   1.756  12.224 -0.1396  1.9159  0.3740
12955TIP3   OH260279   0.675   2.525  15.283  0.2860  0.2247 -0.3484
12955TIP3    H160280   0.643   2.464  15.350  1.2573 -1.8563 -1.6842
12955TIP3    H260281   0.751   2.482  15.246 -0.1821  1.3356 -2.7818
12956TIP3   OH260282   4.990   6.193  14.499 -0.5189 -0.6715  0.2648
12956TIP3    H160283   4.938   6.125  14.456 -1.3501  1.2123 -1.9563
12956TIP3    H260284   5.045   6.229  14.429  0.2855  0.5943  1.4805
12957TIP3   OH260285   2.063   4.444  12.400  0.2745 -0.7024  0.3697
12957TIP3    H160286   2.096   4.529  12.369 -0.3147 -0.8257 -0.6622
12957TIP3    H260287   2.140   4.388  12.405  0.6633 -0.1152  1.0259
12958TIP3   OH260288   1.297   3.388   5.012 -0.0074  0.7166 -0.1582
12958TIP3    H160289   1.270   3.428   4.929 -0.3660 -0.2630 -0.5378
12958TIP3    H260290   1.300   3.460   5.074 -1.3268  1.2297 -0.6435
12959TIP3   OH260291   3.198   1.735   5.231  0.1215 -0.2473 -0.7098
12959TIP3    H160292   3.103   1.734   5.220  0.1441 -1.0686 -0.8689
12959TIP3    H260293   3.221   1.828   5.228 -0.3229 -0.1433 -3.6684
12960TIP3   OH260294   2.972   3.770   4.773  0.1509  0.1547 -0.1596
12960TIP3    H160295   2.984   3.675   4.781 -0.2721  0.1832  1.0887
12960TIP3    H260296   2.957   3.785   4.680 -0.7992 -1.1274 -0.2365
12961TIP3   OH260297   2.516   5.468   5.038 -0.0379  0.5460  0.5070
12961TIP3    H160298   2.447   5.534   5.035 -0.3634  0.1778 -0.8782
12961TIP3    H260299   2.582   5.504   5.097 -1.2405  1.0696  1.5595
12962TIP3   OH260300   4.685   5.579   3.986 -0.8478 -0.1513  0.7647
12962TIP3    H160301   4.729   5.570   3.902  1.8433  3.2153  1.6120
12962TIP3    H260302   4.744   5.537   4.049 -1.8965 -0.9386  1.2603
12963TIP3   OH260303   6.137   6.185   1.465 -0.1655  0.1166  0.4947
12963TIP3    H160304   6.221   6.223   1.440  0.4113 -2.0455 -1.2017
12963TIP3    H260305   6.152   6.145   1.550  0.8025 -0.9175 -0.1332
12964TIP3   OH260306   3.256   1.391   1.321 -0.0868 -0.3740  0.0549
12964TIP3    H160307   3.188   1.343   1.368 -2.7987  1.2754 -1.8835
12964TIP3    H260308   3.273   1.468   1.375  0.8120 -1.1340  0.8851
12965TIP3   OH260309   3.100   5.547   4.017 -0.0423 -0.0648  0.2539
12965TIP3    H160310   3.040   5.510   4.081 -0.2097  0.1086  0.1955
12965TIP3    H260311   3.185   5.546   4.061  0.0126 -0.7710  0.1572
12966TIP3   OH260312   3.912   2.244  11.819 -0.4074  0.3952  0.2031
12966TIP3    H160313   3.871   2.164  11.853  0.3848  0.1559  0.6398
12966TIP3    H260314   3.852   2.276  11.752 -2.1345  0.9937  1.9501
12967TIP3   OH260315   6.224   2.714   0.647  0.3211 -0.3371 -0.4397
12967TIP3    H160316   6.227   2.798   0.602 -2.6775 -0.2758 -0.6719
12967TIP3    H260317   6.270   2.654   0.588  0.6596  0.7070 -1.2728
12968TIP3   OH260318   4.550   4.220  15.884  1.0679  0.2478 -0.0084
12968TIP3    H160319   4.589   4.260  15.962 -0.1348  1.3298  0.0630
12968TIP3    H260320   4.588   4.269  15.810  0.7504  0.4989 -0.0039
12969TIP3   OH260321   0.018   5.956  14.768 -0.2294 -0.2495  0.4619
12969TIP3    H160322   0.033   5.943  14.675  1.1500  0.8978  0.4939
12969TIP3    H260323   0.026   6.051  14.781 -0.1195 -0.4177  1.7963
12970TIP3   OH260324   3.382   6.255  15.689  0.2051  0.2911 -0.1696
12970TIP3    H160325   3.329   6.333  15.697 -0.4798 -0.0152 -1.3633
12970TIP3    H260326   3.400   6.228  15.779 -2.9485 -0.4484  0.3549
12971TIP3   OH260327   6.175   4.286  11.808  0.0926  0.0137  0.5573
12971TIP3    H160328   6.091   4.299  11.764  0.6324 -0.3883 -0.6263
12971TIP3    H260329   6.153   4.283  11.901 -1.0167  1.4318  0.3721
12972TIP3   OH260330   2.573   2.138   4.576  0.0390  0.4801  0.5778
12972TIP3    H160331   2.658   2.158   4.536 -0.1588  0.3764  0.0987
12972TIP3    H260332   2.564   2.203   4.645  0.2432  0.8666  0.2453
12973TIP3   OH260333   0.213   4.733  11.846  0.5551 -0.0514 -0.2960
12973TIP3    H160334   0.302   4.698  11.858  0.1233 -0.8028  0.8982
12973TIP3    H260335   0.169   4.666  11.793  0.0211 -0.8655  1.1386
12974TIP3   OH260336   2.026   5.628  12.974 -0.4605  0.5411 -0.2562
12974TIP3    H160337   2.087   5.559  12.947  1.0191  1.6140  0.2133
12974TIP3    H260338   2.025   5.624  13.069 -2.0358 -0.1922 -0.2777
12975TIP3   OH260339   1.973   6.474  13.183  0.0561  0.1991 -0.0890
12975TIP3    H160340   2.058   6.507  13.215 -0.2210 -0.8823  1.9149
12975TIP3    H260341   1.997   6.409  13.116  0.9300 -1.0724  1.3742
12976TIP3   OH260342   5.326   5.778   5.596 -0.6465  0.7032  0.4987
12976TIP3    H160343   5.291   5.848   5.540 -0.2271  0.5254  0.0144
12976TIP3    H260344   5.273   5.701   5.575  2.7134 -0.8513 -3.5746
12977TIP3   OH260345   3.711   5.871   0.147  0.0996 -0.1714 -0.2335
12977TIP3    H160346   3.801   5.841   0.163 -0.2317 -1.4913 -0.6949
12977TIP3    H260347   3.679   5.811   0.079 -1.6974 -0.8325  1.1401
12978TIP3   OH260348   0.837   4.310   2.350  0.0233  0.7681  0.2878
12978TIP3    H160349   0.930   4.304   2.328  0.5188  1.9249  1.8822
12978TIP3    H260350   0.797   4.236   2.303  1.8168 -0.1126  0.0258
12979TIP3   OH260351   6.497   2.052  15.378  0.2771  0.2273  0.0053
12979TIP3    H160352   6.542   2.074  15.296 -1.7918  0.4225 -1.1500
12979TIP3    H260353   6.456   2.133  15.405  1.3983  0.3091  1.6176
12980TIP3   OH260354   0.709   2.334  14.588 -0.7929 -0.0095  0.7241
12980TIP3    H160355   0.688   2.426  14.575  0.4731  0.3003  0.7133
12980TIP3    H260356   0.732   2.328  14.681  4.4964  0.9446 -0.2032
12981TIP3   OH260357   6.384   3.069   2.768 -0.1381 -0.8620  0.0656
12981TIP3    H160358   6.382   3.137   2.836 -0.5971 -1.1769  0.3716
12981TIP3    H260359   6.307   3.085   2.715 -1.9761 -2.8969  1.8987
12982TIP3   OH260360   5.952   5.652   4.244  0.1885  0.2261 -0.3313
12982TIP3    H160361   5.933   5.596   4.320 -0.9372 -0.8784 -1.3849
12982TIP3    H260362   5.931   5.598   4.168 -1.2284  2.1701 -1.4036
12983TIP3   OH260363   5.234   4.447  13.401 -0.7154 -0.4587  0.0842
12983TIP3    H160364   5.233   4.363  13.354 -0.1790 -1.9014  2.4339
12983TIP3    H260365   5.158   4.441  13.460 -0.2139  0.3735  0.8273
12984TIP3   OH260366   5.446   1.175  12.662 -0.2260 -0.5612 -0.2150
12984TIP3    H160367   5.485   1.131  12.738  1.2783  1.1972  0.1049
12984TIP3    H260368   5.451   1.269  12.683  0.6154  0.0135 -2.6308
12985TIP3   OH260369   2.132   6.728   4.280  0.4908 -0.5044  0.0097
12985TIP3    H160370   2.058   6.788   4.286 -0.6924 -2.0503  2.4123
12985TIP3    H260371   2.138   6.705   4.187 -1.8751 -0.1387 -0.2839
12986TIP3   OH260372   4.048   2.141   2.511  0.3332 -0.2016 -0.6583
12986TIP3    H160373   4.002   2.145   2.595 -1.4347  0.1041 -1.5985
12986TIP3    H260374   4.117   2.207   2.518  0.3053 -0.2923  0.6057
12987TIP3   OH260375   4.177   4.742  13.815  0.4426  0.3810  0.1666
12987TIP3    H160376   4.249   4.734  13.878  0.5629 -1.2738 -0.1224
12987TIP3    H260377   4.206   4.690  13.740 -1.0276 -0.2737  0.0281
12988TIP3   OH260378   6.183   3.792   5.743 -0.2213  0.0378 -0.5791
12988TIP3    H160379   6.105   3.832   5.781 -0.8281 -1.0039 -0.6641
12988TIP3    H260380   6.231   3.758   5.818 -0.5365 -0.4869 -0.6068
12989TIP3   OH260381   0.119   4.770  11.271  0.2046  0.4020 -0.1488
12989TIP3    H160382   0.024   4.757  11.275  0.1946  0.8919  2.0181
12989TIP3    H260383   0.129   4.857  11.232 -0.2725  0.6841  0.3411
12990TIP3   OH260384   6.311   6.434  12.777  0.1873 -0.5494 -0.4473
12990TIP3    H160385   6.350   6.358  12.821 -0.6962 -0.1148  1.1730
12990TIP3    H260386   6.371   6.453  12.705  3.0051  0.0108  1.8293
12991TIP3   OH260387   1.667   4.281  11.638 -0.5239 -0.1885  0.0739
12991TIP3    H160388   1.650   4.346  11.706  0.5944 -0.0884  0.2715
12991TIP3    H260389   1.581   4.243  11.620 -1.0797  0.8332  0.4649
12992TIP3   OH260390   4.434   2.864   1.277 -0.6817 -0.3316  0.2824
12992TIP3    H160391   4.360   2.805   1.266 -1.0966 -0.0061  1.2209
12992TIP3    H260392   4.444   2.873   1.372  0.6107 -0.4286  0.1757
12993TIP3   OH260393   6.558   1.907  12.267 -0.8620 -0.4494 -0.6850
12993TIP3    H160394   6.542   1.828  12.216  1.2506  0.9487 -3.8102
12993TIP3    H260395   6.615   1.878  12.339  1.1822 -1.6553 -2.6431
12994TIP3   OH260396   1.196   0.777   2.927  0.1428  0.3966  0.5390
12994TIP3    H160397   1.175   0.708   2.991  1.8273 -0.6719  0.0075
12994TIP3    H260398   1.185   0.859   2.976 -1.4817 -0.2329  1.3115
12995TIP3   OH260399   2.867   2.364  11.955  0.4656  0.3799  0.2078
12995TIP3    H160400   2.880   2.286  11.901 -0.7339  0.4903 -0.2694
12995TIP3    H260401   2.833   2.331  12.038 -1.0350  0.4290 -0.3503
12996TIP3   OH260402   1.932   1.164   2.821 -0.2134  0.4383 -0.6442
12996TIP3    H160403   1.981   1.213   2.888 -0.7665 -0.7846  0.7117
12996TIP3    H260404   1.868   1.227   2.788  0.1702  1.1188 -0.1188
12997TIP3   OH260405   3.987   2.476   2.954  0.7122 -0.1152 -0.0368
12997TIP3    H160406   3.992   2.428   2.872  0.8239  0.5353 -0.4175
12997TIP3    H260407   3.956   2.563   2.929  0.7355  0.0870  0.6105
12998TIP3   OH260408   3.541   5.289   1.159 -0.0005 -0.4162  0.1293
12998TIP3    H160409   3.571   5.199   1.176 -0.7785 -0.4845  1.2302
12998TIP3    H260410   3.561   5.336   1.239 -1.2450 -0.0470  0.2372
12999TIP3   OH260411   2.120   5.702  14.990 -0.0316 -0.2466 -0.4059
12999TIP3    H160412   2.146   5.642  15.060 -0.1825  1.1096  0.8666
12999TIP3    H260413   2.193   5.765  14.984 -0.4291  0.1872 -0.8396
13000TIP3   OH260414   4.114   6.364  14.082 -0.3338  0.3817  0.1100
13000TIP3    H160415   4.043   6.301  14.072 -0.7419  0.8073  0.2739
13000TIP3    H260416   4.075   6.436  14.132  0.5216  0.1113  1.2185
13001TIP3   OH260417   2.503   2.327  11.991 -0.2983 -1.2139 -0.2562
13001TIP3    H160418   2.408   2.335  11.998 -0.3718  0.7368 -2.1765
13001TIP3    H260419   2.530   2.407  11.946  2.4855 -0.8778  1.7799
13002TIP3   OH260420   3.964   3.998   6.262  0.3633  0.3304 -0.1469
13002TIP3    H160421   4.011   3.952   6.331  1.1718 -0.3788 -1.1288
13002TIP3    H260422   3.952   3.933   6.194 -0.6578  0.9392 -0.5724
13003TIP3   OH260423   3.051   6.707   1.686  0.1524 -0.3180  0.1721
13003TIP3    H160424   3.118   6.747   1.630  0.5799 -1.6161 -0.2983
13003TIP3    H260425   3.008   6.780   1.730  0.1844  0.7141 -1.4459
13004TIP3   OH260426   1.951   4.939   0.414 -0.0958 -0.0784 -0.5482
13004TIP3    H160427   1.951   5.023   0.460 -2.6299 -0.2361 -0.1306
13004TIP3    H260428   2.021   4.948   0.349  1.8696  1.0877  1.5772
13005TIP3   OH260429   5.113   6.705  13.077  0.6034  0.3274  0.5945
13005TIP3    H160430   5.096   6.729  13.168 -1.9680  0.0099  0.2614
13005TIP3    H260431   5.143   6.786  13.036 -0.7697  1.1637  1.1652
13006TIP3   OH260432   4.198   5.827   2.341  0.6745 -0.0625  0.4058
13006TIP3    H160433   4.139   5.808   2.269  0.6794  0.6908  0.1985
13006TIP3    H260434   4.242   5.908   2.316  2.2240 -0.8865  0.2891
13007TIP3   OH260435   4.159   5.851  15.102  0.0801 -0.4145 -0.1476
13007TIP3    H160436   4.167   5.852  15.198 -0.8873 -0.0684 -0.0616
13007TIP3    H260437   4.247   5.875  15.071 -0.1642  1.8472  0.7076
13008TIP3   OH260438   6.581   6.121   1.800 -0.3977  0.1338 -0.6173
13008TIP3    H160439   6.604   6.128   1.707  1.1801  0.4483 -0.2246
13008TIP3    H260440   6.621   6.198   1.840 -1.5851  0.3244  0.2471
13009TIP3   OH260441   4.353   1.257  14.067  0.8071  0.0892 -0.1229
13009TIP3    H160442   4.267   1.271  14.106 -0.3843 -0.7050 -2.2905
13009TIP3    H260443   4.363   1.162  14.066  2.7929  0.1830  2.1651
13010TIP3   OH260444   3.429   1.409   0.693  0.2169  0.0036  0.0114
13010TIP3    H160445   3.525   1.410   0.690  0.4523 -4.3993 -0.7478
13010TIP3    H260446   3.403   1.403   0.602 -0.9552  2.1922  0.1409
13011TIP3   OH260447   1.092   0.775  14.968 -0.6942 -0.4413 -0.1019
13011TIP3    H160448   1.024   0.777  15.035  0.3097 -0.2532  0.9529
13011TIP3    H260449   1.100   0.866  14.939  0.0098 -0.2223  0.7404
13012TIP3   OH260450   0.854   5.218   1.844  0.6191  0.0985 -0.8178
13012TIP3    H160451   0.784   5.275   1.876 -0.1505 -0.1171 -2.0526
13012TIP3    H260452   0.816   5.130   1.845  1.6049 -0.3436  0.5178
13013TIP3   OH260453   5.175   2.237  16.511 -0.2127 -0.2610 -0.2451
13013TIP3    H160454   5.205   2.316  16.557 -2.4278  0.6016 -0.1246
13013TIP3    H260455   5.202   2.251  16.420 -0.2430  0.4660 -0.1550
13014TIP3   OH260456   6.221   5.547   2.631  0.3248  0.3818 -0.8887
13014TIP3    H160457   6.252   5.587   2.550  0.3091  1.3514 -0.4318
13014TIP3    H260458   6.127   5.568   2.634  0.5521  1.3833 -0.0614
13015TIP3   OH260459   6.621   0.014  17.069  0.3578  0.2174  0.2838
13015TIP3    H160460   6.683   0.085  17.084  0.1863  0.6476 -1.0012
13015TIP3    H260461   6.676  -0.061  17.048  0.4524  0.7222 -1.3659
13016TIP3   OH260462   4.938   6.077   5.213  0.2473  0.6927  0.1142
13016TIP3    H160463   4.842   6.081   5.205  0.2427  3.4817  0.4730
13016TIP3    H260464   4.969   6.102   5.126  0.8380 -3.2918 -1.0377
13017TIP3   OH260465   3.306   4.527  17.142  0.0557  0.2841 -0.0075
13017TIP3    H160466   3.346   4.460  17.197 -0.3486  0.1096  0.0715
13017TIP3    H260467   3.340   4.509  17.054  0.1093  0.1036  0.0506
13018TIP3   OH260468   4.762   0.313  13.495  0.5231  1.0190  0.2753
13018TIP3    H160469   4.809   0.395  13.481  0.2402  1.2224  0.5118
13018TIP3    H260470   4.690   0.336  13.555  1.4708  0.2460  1.7632
13019TIP3   OH260471   4.859   3.127   1.105 -0.5696 -0.4362 -0.1994
13019TIP3    H160472   4.887   3.054   1.160  0.3146 -1.5826 -2.0577
13019TIP3    H260473   4.774   3.100   1.071  0.1081 -0.9857 -1.5027
13020TIP3   OH260474   3.232   3.537  11.616 -0.1732  0.1134  0.4588
13020TIP3    H160475   3.179   3.461  11.642 -1.0059  0.3862 -0.3504
13020TIP3    H260476   3.286   3.556  11.692 -1.0247 -0.3779  1.2078
13021TIP3   OH260477   1.413   5.949   1.079  0.0883  0.2110  0.1597
13021TIP3    H160478   1.442   5.882   1.018  1.5931  2.3861 -1.6593
13021TIP3    H260479   1.471   5.939   1.155  1.6788  0.7279 -0.9557
13022TIP3   OH260480   5.972   5.293  12.363 -0.1975  0.1885 -0.0293
13022TIP3    H160481   5.982   5.204  12.397  2.0623 -0.0580 -1.1431
13022TIP3    H260482   5.927   5.341  12.432 -1.6528 -1.8551  0.5076
13023TIP3   OH260483   3.145   1.819  13.394 -0.5079  0.3235 -0.3213
13023TIP3    H160484   3.205   1.892  13.380 -0.4193  0.6234  1.4382
13023TIP3    H260485   3.085   1.849  13.462 -0.2392 -1.3500  0.7181
13024TIP3   OH260486   5.694   2.034  14.665  0.2486 -0.5456 -0.1320
13024TIP3    H160487   5.783   2.060  14.690  0.3440  0.1076 -1.0880
13024TIP3    H260488   5.640   2.110  14.683 -0.5242 -1.5964  2.3304
13025TIP3   OH260489   5.624   3.337  14.040 -0.1692  0.0499 -0.5965
13025TIP3    H160490   5.601   3.408  14.101 -0.0098 -0.1740 -0.2723
13025TIP3    H260491   5.614   3.376  13.953 -1.5005  0.0448 -0.4577
13026TIP3   OH260492   6.030   3.202  17.242 -0.0384 -0.0964 -0.2247
13026TIP3    H160493   6.125   3.205  17.233  0.8330 -0.7795  5.4409
13026TIP3    H260494   6.002   3.293  17.243  1.4274  0.4368  2.6998
13027TIP3   OH260495   0.653   2.779   3.776  0.2046 -0.3952 -0.2800
13027TIP3    H160496   0.692   2.730   3.848 -0.4427  0.9041  1.0108
13027TIP3    H260497   0.719   2.844   3.752 -0.5238  0.8465  0.9195
13028TIP3   OH260498   4.597   4.295   6.604  0.1896  0.4118  0.6198
13028TIP3    H160499   4.576   4.380   6.565 -1.2443  0.6366  1.8086
13028TIP3    H260500   4.691   4.283   6.586 -0.2302  0.8044 -2.2176
13029TIP3   OH260501   6.470   6.211   1.206  0.6009  0.8459 -0.3501
13029TIP3    H160502   6.514   6.134   1.169 -0.4157  0.2579 -0.3715
13029TIP3    H260503   6.376   6.193   1.195  0.3270  1.6051  0.6221
13030TIP3   OH260504   3.840   0.095   2.467 -0.2605  0.2505  0.1201
13030TIP3    H160505   3.757   0.105   2.514 -0.4919 -0.7450 -0.0587
13030TIP3    H260506   3.893   0.170   2.495 -1.2631  0.9589  0.1331
13031TIP3   OH260507   1.721   2.505   4.796  0.3466  0.6633 -0.1845
13031TIP3    H160508   1.720   2.536   4.706  0.4307  1.4004  0.0606
13031TIP3    H260509   1.738   2.411   4.789  0.4212  0.7266 -0.9282
13032TIP3   OH260510   0.849   4.190  11.771  0.0083 -0.0748  0.1122
13032TIP3    H160511   0.903   4.111  11.777  1.2485  0.8270  1.7858
13032TIP3    H260512   0.878   4.244  11.845 -2.7301  0.7791  0.6605
13033TIP3   OH260513   5.409   2.104   0.820  0.4101  0.2938  0.1300
13033TIP3    H160514   5.406   2.012   0.793 -0.3476  0.5762 -0.8262
13033TIP3    H260515   5.448   2.150   0.746  1.2089  0.7001  0.7849
13034TIP3   OH260516   3.545   1.225   3.916 -0.4582 -0.9518 -0.2978
13034TIP3    H160517   3.563   1.256   4.005  1.2708 -1.0174 -0.5845
13034TIP3    H260518   3.532   1.131   3.926  1.4942 -1.2698 -0.2748
13035TIP3   OH260519   3.708   4.032  13.659 -0.0360 -0.3227  0.3074
13035TIP3    H160520   3.749   3.957  13.616  0.6630  0.3789 -0.2893
13035TIP3    H260521   3.775   4.101  13.657 -0.1023 -0.1464  2.2514
13036TIP3   OH260522   0.738   2.188   4.223 -0.3565 -0.2479  0.7933
13036TIP3    H160523   0.791   2.265   4.206 -1.0652  0.1749  0.4261
13036TIP3    H260524   0.792   2.114   4.195  0.8264 -0.0017  2.3201
13037TIP3   OH260525   6.135   5.410  12.681 -0.2288  0.1453 -0.4793
13037TIP3    H160526   6.160   5.318  12.684  1.0673  0.4100 -1.9563
13037TIP3    H260527   6.087   5.425  12.762  2.0311 -1.1037  1.1770
13038TIP3   OH260528   3.957   1.949  11.385  0.3365 -0.3164  0.2393
13038TIP3    H160529   4.018   2.016  11.353  0.6693  0.0804  1.6191
13038TIP3    H260530   4.006   1.902  11.453 -0.4289 -0.9237  0.3851
13039TIP3   OH260531   0.050   5.835  17.131  0.1859  0.1743  0.2675
13039TIP3    H160532  -0.013   5.906  17.122 -0.7061 -0.7728 -1.3474
13039TIP3    H260533   0.015   5.764  17.078  1.0858 -1.4753  1.7625
13040TIP3   OH260534   3.291   4.330   6.149 -0.4734  0.3105  0.1672
13040TIP3    H160535   3.196   4.337   6.152 -0.6845 -1.7642 -0.0368
13040TIP3    H260536   3.314   4.278   6.226  0.4281  0.2731 -0.1103
13041TIP3   OH260537   0.512   0.252  11.847  0.1996  0.7303  0.2645
13041TIP3    H160538   0.494   0.180  11.786 -1.1622  1.3016 -0.0368
13041TIP3    H260539   0.584   0.300  11.806  1.1948 -0.4810  0.5182
13042TIP3   OH260540   2.414   1.286  14.698  0.4736 -0.3809  0.5240
13042TIP3    H160541   2.358   1.342  14.645  0.2699 -0.5286  0.5836
13042TIP3    H260542   2.363   1.269  14.777  0.9682  0.2344  0.9813
13043TIP3   OH260543   1.563   3.808  11.596  0.2017 -0.6817  0.4036
13043TIP3    H160544   1.631   3.847  11.650  0.3307  0.1268 -0.3258
13043TIP3    H260545   1.559   3.717  11.625  0.6048 -0.3902  1.4225
13044TIP3   OH260546   5.996   3.473   0.396 -0.1604  0.3731 -0.3292
13044TIP3    H160547   5.959   3.389   0.368 -0.2577  0.7805 -1.4652
13044TIP3    H260548   6.070   3.487   0.338  0.8492  0.3168  0.9077
13045TIP3   OH260549   0.124   2.881   1.688  0.2603 -0.5236 -0.2138
13045TIP3    H160550   0.168   2.805   1.649 -0.0203 -0.4571 -0.6662
13045TIP3    H260551   0.104   2.854   1.778 -1.9388 -1.8758 -1.0350
13046TIP3   OH260552   2.418   3.223   2.188 -0.0542 -0.0285 -0.2338
13046TIP3    H160553   2.513   3.229   2.192  0.0756  0.1303 -2.2284
13046TIP3    H260554   2.400   3.138   2.148 -0.6833  0.3227 -0.7392
13047TIP3   OH260555   5.372   6.481   3.886  0.2720 -0.2608 -0.1413
13047TIP3    H160556   5.380   6.513   3.976  2.5561 -1.9035  0.3209
13047TIP3    H260557   5.391   6.557   3.831  0.0181  0.4805  0.7809
13048TIP3   OH260558   5.137   3.741  14.378  0.5860  0.0560  0.6575
13048TIP3    H160559   5.072   3.672  14.371  1.6912 -0.8680 -0.8469
13048TIP3    H260560   5.221   3.699  14.357  1.4823  1.5357  1.0747
13049TIP3   OH260561   2.013   6.612   3.999  0.5552 -0.0497 -0.5590
13049TIP3    H160562   2.090   6.557   4.007  0.1269 -0.5047  0.5774
13049TIP3    H260563   1.940   6.551   3.993  0.0263  0.3518  1.1899
13050TIP3   OH260564   5.040   1.663  16.250 -0.6890  0.0509 -0.6822
13050TIP3    H160565   5.094   1.586  16.233  0.7477  0.8805 -0.0910
13050TIP3    H260566   5.006   1.649  16.339  2.1290  1.4239  0.7635
13051TIP3   OH260567   0.063   4.585  16.136 -0.0047 -0.3166 -0.4462
13051TIP3    H160568   0.054   4.513  16.073  0.7901 -1.7972  1.0254
13051TIP3    H260569   0.150   4.573  16.173  0.1783  1.5078 -0.2315
13052TIP3   OH260570   3.142   1.923  12.793 -0.1106  0.0116  0.1568
13052TIP3    H160571   3.134   1.862  12.867 -0.2613 -1.6828 -1.1821
13052TIP3    H260572   3.226   1.901  12.753 -0.5790  0.0255 -0.8802
13053TIP3   OH260573   5.510   6.323   2.315  0.0707  0.2433  0.6791
13053TIP3    H160574   5.523   6.229   2.306 -0.7665  0.0892  1.0368
13053TIP3    H260575   5.549   6.344   2.400  1.9100  0.5505 -0.1979
13054TIP3   OH260576   5.710   1.985  16.637 -0.2945  0.2874 -0.4997
13054TIP3    H160577   5.705   2.001  16.543 -1.5265  0.4372 -0.4314
13054TIP3    H260578   5.662   2.058  16.676  0.2592  0.2582  0.2490
13055TIP3   OH260579   0.296   4.790   6.010 -0.2074  0.5072 -0.0196
13055TIP3    H160580   0.201   4.787   6.020 -0.1954 -1.3017 -0.1987
13055TIP3    H260581   0.324   4.852   6.077 -1.5546  1.7170 -0.5089
13056TIP3   OH260582   6.320   4.589  13.627 -0.0227 -0.2742 -0.2252
13056TIP3    H160583   6.275   4.653  13.683  1.9038  0.4552  0.5918
13056TIP3    H260584   6.290   4.504  13.659  1.8408  0.0581  2.8316
13057TIP3   OH260585   2.395   5.503   2.675 -0.6233 -0.2203 -0.0319
13057TIP3    H160586   2.302   5.527   2.675 -0.4591  0.4382  0.4821
13057TIP3    H260587   2.409   5.461   2.590 -1.3275 -0.0740 -0.2256
13058TIP3   OH260588   5.532   0.912  11.154 -0.3180 -0.6223  0.7586
13058TIP3    H160589   5.464   0.884  11.092 -0.5379  3.3647 -1.1345
13058TIP3    H260590   5.492   0.986  11.201  1.4287 -0.6482  2.3926
13059TIP3   OH260591   4.257   6.377   4.514 -0.0256  0.8329  0.2519
13059TIP3    H160592   4.249   6.328   4.431  1.3461 -0.3750  0.7872
13059TIP3    H260593   4.172   6.364   4.557 -0.0175 -0.3124 -0.0361
13060TIP3   OH260594   3.408   3.782   6.404  0.0141  0.6189 -0.7892
13060TIP3    H160595   3.485   3.728   6.385  0.0028  0.8653 -1.5775
13060TIP3    H260596   3.422   3.862   6.355  0.0971  1.4204  0.5013
13061TIP3   OH260597   3.062   3.822   1.694 -0.4307  0.5783 -0.7325
13061TIP3    H160598   3.014   3.811   1.612 -2.5131 -0.9139  0.6121
13061TIP3    H260599   3.133   3.758   1.689 -0.6311  0.3966 -1.3013
13062TIP3   OH260600   4.852   2.574  16.111 -0.0543 -0.1186 -0.0472
13062TIP3    H160601   4.845   2.500  16.172  1.5136 -0.3150 -0.0577
13062TIP3    H260602   4.915   2.633  16.152  0.3675  0.1621 -1.0723
13063TIP3   OH260603   0.274   3.565  12.956 -0.0647 -0.6046 -0.2297
13063TIP3    H160604   0.185   3.570  12.919  0.7623 -0.7527 -2.3682
13063TIP3    H260605   0.272   3.485  13.009 -1.3057 -0.4126  0.0543
13064TIP3   OH260606   5.021   4.748  15.741  0.1347 -0.0092  0.1791
13064TIP3    H160607   4.967   4.794  15.806  0.4923  0.5118  0.1153
13064TIP3    H260608   4.960   4.727  15.670 -0.2634 -0.5984  0.6883
13065TIP3   OH260609   0.359   1.389  11.747  0.5089 -0.0347 -0.3897
13065TIP3    H160610   0.383   1.356  11.661  3.2710  0.4710  0.0910
13065TIP3    H260611   0.362   1.485  11.738 -0.5342  0.0483 -0.0427
13066TIP3   OH260612   1.952   5.664   0.310  0.0635  0.0313 -0.9241
13066TIP3    H160613   1.861   5.672   0.280  0.2704  0.4520 -1.4600
13066TIP3    H260614   1.982   5.582   0.271 -1.1226 -2.0061  2.0836
13067TIP3   OH260615   5.455   5.636  17.338  0.2004 -0.0246 -0.0831
13067TIP3    H160616   5.542   5.639  17.299 -0.3433 -1.5496 -1.5008
13067TIP3    H260617   5.411   5.563  17.294 -1.3008 -0.2295  1.6573
13068TIP3   OH260618   1.534   3.269  15.912  0.2495 -0.2341  0.2387
13068TIP3    H160619   1.485   3.294  15.991  1.5818  0.7209  0.8147
13068TIP3    H260620   1.622   3.304  15.927  0.5682 -0.1353 -1.6317
13069TIP3   OH260621   4.666   4.661  11.236  0.5885  0.1027  0.5054
13069TIP3    H160622   4.607   4.722  11.191  0.2967  0.8260  1.8089
13069TIP3    H260623   4.615   4.580  11.245  0.2242  0.3303  0.5380
13070TIP3   OH260624   1.588   0.882   4.816 -0.2584 -0.1120 -0.0569
13070TIP3    H160625   1.646   0.907   4.888 -0.0405 -0.7961  0.0126
13070TIP3    H260626   1.635   0.909   4.737 -1.4393  2.6251  0.0747
13071TIP3   OH260627   2.317   1.000  13.991 -0.0143 -0.6420 -0.5066
13071TIP3    H160628   2.344   1.080  14.036  1.9225 -0.5902 -1.6442
13071TIP3    H260629   2.320   0.933  14.059 -1.1711  0.1206  0.3421
13072TIP3   OH260630   3.999   6.512  13.649  0.3445 -0.2193 -0.4407
13072TIP3    H160631   3.974   6.479  13.563 -0.2708 -1.2438  0.1098
13072TIP3    H260632   3.999   6.435  13.705 -1.0072  0.6788  0.8717
13073TIP3   OH260633   4.326   4.739   0.893  0.4902 -0.1169  0.0140
13073TIP3    H160634   4.311   4.692   0.975  0.4667  0.6486  0.4584
13073TIP3    H260635   4.421   4.739   0.882  0.5771  0.7871  0.6583
13074TIP3   OH260636   0.046   1.628  12.984  0.2840 -0.0640 -0.5454
13074TIP3    H160637   0.009   1.716  12.982  0.5985  0.0718 -0.4527
13074TIP3    H260638   0.063   1.611  13.077 -1.2412 -0.8472 -0.3721
13075TIP3   OH260639   4.425   2.128   0.367 -0.0401 -0.0609 -0.5673
13075TIP3    H160640   4.397   2.141   0.457 -0.1563  0.6578 -0.7036
13075TIP3    H260641   4.360   2.066   0.331 -1.0593  1.0246 -0.6662
13076TIP3   OH260642   2.370   6.219   0.463  0.0578  0.6704 -0.1361
13076TIP3    H160643   2.426   6.273   0.518 -1.3920  2.2915 -0.1486
13076TIP3    H260644   2.415   6.214   0.379  1.6141 -0.6477  0.7259
13077TIP3   OH260645   1.358   3.731  12.866  0.3735  0.3448 -0.3118
13077TIP3    H160646   1.296   3.802  12.853 -0.0951  0.0830  0.4659
13077TIP3    H260647   1.419   3.740  12.793 -0.3664  0.8135 -0.8890
13078TIP3   OH260648   0.486   4.465   3.678  0.0603 -0.4508 -0.0972
13078TIP3    H160649   0.484   4.517   3.759  1.7517  0.0872 -0.3604
13078TIP3    H260650   0.506   4.528   3.610  3.4334 -1.5278 -0.2644
13079TIP3   OH260651   3.508   4.887   3.545 -0.6208  0.1916  0.2909
13079TIP3    H160652   3.437   4.872   3.607 -1.8952  1.2324 -0.8447
13079TIP3    H260653   3.476   4.852   3.462  1.2432 -1.6300  0.2506
13080TIP3   OH260654   5.599   6.448   1.844 -0.2292  0.5840 -0.1017
13080TIP3    H160655   5.667   6.396   1.886 -0.5816  0.0214 -0.2220
13080TIP3    H260656   5.626   6.454   1.752 -1.6358 -1.8856 -0.7672
13081TIP3   OH260657   6.182   2.987  12.891 -0.4266  0.3338  0.1279
13081TIP3    H160658   6.220   2.940  12.966 -1.2352  1.8978  1.5849
13081TIP3    H260659   6.096   2.946  12.879  0.7950 -1.9086 -1.9403
13082TIP3   OH260660   5.955   0.367   4.232 -0.6386  0.2554  0.2062
13082TIP3    H160661   6.041   0.409   4.222  0.1001 -1.1597  0.2973
13082TIP3    H260662   5.896   0.438   4.256  0.0676  1.6272 -1.8721
13083TIP3   OH260663   4.290   3.226  13.757  0.4458  0.8869 -0.3705
13083TIP3    H160664   4.355   3.192  13.818  0.9040  0.8405 -0.8721
13083TIP3    H260665   4.225   3.269  13.812  0.1532 -0.3037  0.2448
13084TIP3   OH260666   4.983   2.864  12.651 -0.3569 -0.9444 -0.1010
13084TIP3    H160667   4.904   2.832  12.608 -2.5520  2.0496  1.2625
13084TIP3    H260668   5.016   2.932  12.593 -0.2905 -0.4635  0.4824
13085TIP3   OH260669   0.159   5.183  11.789  0.4705  0.5158 -1.0052
13085TIP3    H160670   0.116   5.147  11.867 -0.3130  3.5291  0.1042
13085TIP3    H260671   0.236   5.127  11.776 -0.9161 -1.8348  0.1256
13086TIP3   OH260672   4.017   6.410  12.725  0.5187  0.3500  0.3782
13086TIP3    H160673   4.034   6.488  12.672  1.9229 -0.4951 -0.4980
13086TIP3    H260674   4.022   6.338  12.662  0.9943 -0.5880  1.4621
13087TIP3   OH260675   1.977   1.855   3.163 -0.0180 -0.0933  0.1988
13087TIP3    H160676   1.963   1.797   3.088 -1.4475  0.4596  0.0096
13087TIP3    H260677   1.962   1.800   3.239  1.2071 -0.5981  0.1032
13088TIP3   OH260678   5.573   6.284   3.903 -0.6900 -0.0199 -0.7758
13088TIP3    H160679   5.488   6.328   3.901 -0.3084  0.7301 -1.3809
13088TIP3    H260680   5.552   6.190   3.903 -1.5151  0.1516 -0.1416
13089TIP3   OH260681   0.304   5.305  17.165 -0.0879  0.1379 -0.1325
13089TIP3    H160682   0.286   5.305  17.071  1.9866 -0.0813 -0.5732
13089TIP3    H260683   0.251   5.376  17.200  0.3067  1.2712 -1.7394
13090TIP3   OH260684   6.697   4.523  17.098  0.4595  0.1971  0.0894
13090TIP3    H160685   6.638   4.559  17.032 -0.1025  0.0479  0.5066
13090TIP3    H260686   6.750   4.458  17.051 -2.1453 -2.3346  0.3974
13091TIP3   OH260687   1.154   6.729   1.301  0.0466 -0.1016 -0.6926
13091TIP3    H160688   1.111   6.644   1.311  0.4073 -0.1044  1.3895
13091TIP3    H260689   1.118   6.782   1.373  0.8680  1.0517 -1.1075
13092TIP3   OH260690   4.102   0.849  16.177 -0.1477  0.1223  0.7126
13092TIP3    H160691   4.048   0.897  16.240 -0.6592  0.0489  0.3388
13092TIP3    H260692   4.157   0.917  16.136  0.9358  0.0315  1.9576
13093TIP3   OH260693   1.254   0.755   0.330  0.6067  0.4097 -0.1661
13093TIP3    H160694   1.276   0.711   0.248  0.6694  1.3760 -0.6831
13093TIP3    H260695   1.254   0.848   0.308  0.8123  0.6977  0.9753
13094TIP3   OH260696   0.353   1.827  14.248  0.7017  0.8100  0.4718
13094TIP3    H160697   0.406   1.754  14.217 -0.6107  0.4182 -0.9986
13094TIP3    H260698   0.332   1.805  14.339  1.3133 -0.0483  0.4134
13095TIP3   OH260699   6.473   0.180   4.327 -0.0209  1.1282 -0.2590
13095TIP3    H160700   6.494   0.272   4.340 -1.3097  1.4850 -0.6161
13095TIP3    H260701   6.378   0.175   4.334 -0.0314 -0.0659 -0.8841
13096TIP3   OH260702   5.699   0.503   0.117  0.1821  0.1979 -0.2987
13096TIP3    H160703   5.732   0.421   0.079 -3.1171 -1.1999 -0.4538
13096TIP3    H260704   5.752   0.571   0.075  2.4479 -1.7334 -0.8453
13097TIP3   OH260705   3.749   3.974   1.550  0.5518  0.2063 -0.3369
13097TIP3    H160706   3.715   3.944   1.634 -0.7043  0.7110 -0.6373
13097TIP3    H260707   3.827   3.920   1.534  1.1389  0.4885  1.3942
13098TIP3   OH260708   1.663   3.426  12.151  0.3192 -0.3460  0.0343
13098TIP3    H160709   1.587   3.417  12.093 -0.4253  0.5961  0.8411
13098TIP3    H260710   1.716   3.495  12.110 -2.0967  3.2431  2.2986
13099TIP3   OH260711   3.950   0.436  14.107 -0.3504  0.3982 -0.3860
13099TIP3    H160712   3.984   0.517  14.068  1.3309 -0.1539 -0.1826
13099TIP3    H260713   3.859   0.432  14.080  0.3699  0.6902 -3.2060
13100TIP3   OH260714   4.041   5.911   3.784  0.1970 -0.1325  0.0341
13100TIP3    H160715   4.097   5.974   3.828  1.2284 -1.1028  0.1512
13100TIP3    H260716   3.996   5.962   3.716  0.5547  0.8374  0.5061
13101TIP3   OH260717   0.211   3.207  12.157  0.2846 -0.2933 -0.4721
13101TIP3    H160718   0.210   3.288  12.106  0.5864 -0.2166 -0.3566
13101TIP3    H260719   0.242   3.234  12.244 -1.7655 -0.1145  0.2726
13102TIP3   OH260720   2.755   0.514   1.316 -0.3501 -0.1784 -0.2211
13102TIP3    H160721   2.667   0.478   1.317 -0.9769  1.2602 -0.7065
13102TIP3    H260722   2.790   0.492   1.230 -0.4081 -0.3657 -0.1961
13103TIP3   OH260723   6.679   5.348   0.497 -0.5460  0.4459  0.1795
13103TIP3    H160724   6.626   5.268   0.493  0.6792 -0.3786  0.0643
13103TIP3    H260725   6.709   5.352   0.588  2.6585 -1.4555 -0.6528
13104TIP3   OH260726   4.036   2.124   2.848  0.0671 -0.4022 -0.7157
13104TIP3    H160727   4.036   2.035   2.811 -0.2356 -0.6443 -0.1405
13104TIP3    H260728   4.028   2.111   2.942  0.8755  0.2180 -0.5590
13105TIP3   OH260729   5.391   3.402   1.885 -0.4287 -0.4156 -0.1795
13105TIP3    H160730   5.404   3.466   1.955 -0.9756  1.9120 -2.1016
13105TIP3    H260731   5.479   3.387   1.850 -0.4533  0.2838 -0.5493
13106TIP3   OH260732   2.888   2.685  15.658 -0.0808 -0.3285 -0.4212
13106TIP3    H160733   2.836   2.745  15.605 -0.4603  0.6351  0.9923
13106TIP3    H260734   2.832   2.608  15.667 -0.7727  0.2233  0.0759
13107TIP3   OH260735   2.214   4.708   4.007 -0.0655 -0.2130 -0.0619
13107TIP3    H160736   2.235   4.646   3.938  0.3336  0.6049 -0.6966
13107TIP3    H260737   2.119   4.703   4.016 -0.4153  1.2009 -2.2061
13108TIP3   OH260738   6.168   6.615  12.172 -0.0220  0.1459 -0.2282
13108TIP3    H160739   6.094   6.617  12.233  0.2341 -2.1450  0.2513
13108TIP3    H260740   6.148   6.681  12.106 -2.8378 -0.8782 -0.5015
13109TIP3   OH260741   3.224   6.170  12.163  0.2139 -0.5922  0.4936
13109TIP3    H160742   3.273   6.251  12.151  0.5408 -1.0628 -1.7819
13109TIP3    H260743   3.156   6.192  12.228 -0.2937  1.7695 -0.7367
13110TIP3   OH260744   4.328   5.300  14.112 -0.1664  0.6895  0.0120
13110TIP3    H160745   4.321   5.394  14.129 -0.5665  0.9936 -1.7149
13110TIP3    H260746   4.411   5.291  14.065 -1.1185  0.4816 -1.6740
13111TIP3   OH260747   1.587   5.806   4.505 -0.0952 -0.0999 -0.0612
13111TIP3    H160748   1.642   5.819   4.582 -0.7830 -0.4866  0.5005
13111TIP3    H260749   1.556   5.716   4.511 -2.0332  0.5388  0.4865
13112TIP3   OH260750   0.296   1.038  15.920 -0.2006  0.0840  0.0150
13112TIP3    H160751   0.266   1.059  16.008  0.8010 -0.4276  0.4992
13112TIP3    H260752   0.226   0.986  15.881 -0.8435  0.6991  0.3347
13113TIP3   OH260753   5.154   4.587   2.061  0.6027  0.7442  0.4273
13113TIP3    H160754   5.236   4.620   2.023  1.0208  0.5926  1.1725
13113TIP3    H260755   5.160   4.611   2.154 -0.4954  1.2958  0.3684
13114TIP3   OH260756   5.416   2.585  16.793  0.7202 -0.8180 -0.0556
13114TIP3    H160757   5.393   2.674  16.767  0.4748 -0.5966  0.8802
13114TIP3    H260758   5.346   2.531  16.756 -0.0944 -0.4114  0.8376
13115TIP3   OH260759   1.380   4.557   1.413 -0.1184 -0.1351  0.3946
13115TIP3    H160760   1.352   4.500   1.485 -0.7401  0.1627  0.3894
13115TIP3    H260761   1.458   4.600   1.446 -1.4975  1.5186  1.6802
13116TIP3   OH260762   5.818   4.181   1.236 -0.2652 -0.3289  0.0046
13116TIP3    H160763   5.869   4.186   1.156 -0.0831  0.6519  0.1676
13116TIP3    H260764   5.827   4.090   1.265 -0.6502 -0.8021 -1.2758
13117TIP3   OH260765   0.281   6.568  13.995 -0.1388 -0.0970  0.2694
13117TIP3    H160766   0.205   6.575  13.938  0.0508  1.9342  0.2148
13117TIP3    H260767   0.323   6.485  13.969 -0.6537  0.2285 -1.7768
13118TIP3   OH260768   0.343   5.416  16.418 -0.6602  0.8949 -0.4305
13118TIP3    H160769   0.251   5.412  16.396 -0.3144 -0.1079 -1.8350
13118TIP3    H260770   0.389   5.393  16.337  0.7214 -1.9726  0.9964
13119TIP3   OH260771   1.072   0.954  15.715  0.3136  0.3322 -0.3339
13119TIP3    H160772   1.002   0.989  15.660  1.3579  2.0493 -0.6547
13119TIP3    H260773   1.068   1.007  15.794  0.9451  0.1128 -0.1546
13120TIP3   OH260774   1.907   3.860   1.118  0.0376 -0.3953 -0.6107
13120TIP3    H160775   1.892   3.814   1.035 -0.4568  0.0321 -0.7616
13120TIP3    H260776   1.981   3.919   1.099 -0.0773 -0.2950 -0.7484
13121TIP3   OH260777   5.336   6.506  17.121  0.3801  0.0039  0.2133
13121TIP3    H160778   5.354   6.592  17.083  1.1040 -0.8269 -1.4019
13121TIP3    H260779   5.252   6.518  17.167  1.0206  1.8372  0.9977
13122TIP3   OH260780   4.690   3.607   2.376  0.1472 -0.3857  0.0274
13122TIP3    H160781   4.740   3.605   2.458  0.2622 -0.7787 -0.0518
13122TIP3    H260782   4.737   3.672   2.323  1.6852 -2.0475 -0.7332
13123TIP3   OH260783   2.575   0.605  16.260  0.3902  0.2525  0.1431
13123TIP3    H160784   2.604   0.599  16.351 -1.6174 -1.2091  0.7728
13123TIP3    H260785   2.480   0.593  16.265  0.1102  1.1252 -2.0764
13124TIP3   OH260786   3.075   1.630   1.384 -0.0046  0.7930 -0.5550
13124TIP3    H160787   2.982   1.649   1.394 -0.1623  0.4524 -1.2968
13124TIP3    H260788   3.100   1.587   1.465 -0.5765  0.5959 -0.4771
13125TIP3   OH260789   1.920   1.843  16.408  0.0818 -0.1241 -0.2018
13125TIP3    H160790   1.870   1.804  16.336  0.6172  0.1016 -0.6936
13125TIP3    H260791   1.952   1.926  16.374 -0.5310  0.4869  0.6456
13126TIP3   OH260792   1.416   2.097  17.190  0.5023  0.2295  0.0939
13126TIP3    H160793   1.402   2.191  17.187  1.1379  0.3591  0.8035
13126TIP3    H260794   1.329   2.059  17.192  0.2202  0.7507 -1.2243
13127TIP3   OH260795   1.349   0.228  12.630 -0.3159 -0.3931 -0.1054
13127TIP3    H160796   1.272   0.237  12.686 -1.9458  0.5437 -2.3531
13127TIP3    H260797   1.329   0.155  12.572  0.3479  0.0338 -0.8972
13128TIP3   OH260798   2.903   2.806   6.448 -0.6284 -0.1182  0.2410
13128TIP3    H160799   2.944   2.779   6.530 -0.5179  0.3419  0.3425
13128TIP3    H260800   2.975   2.809   6.384 -0.8933 -1.5484 -0.1569
13129TIP3   OH260801   4.479   2.822   0.919  0.2514  0.4080  0.4487
13129TIP3    H160802   4.527   2.904   0.919  0.5556  0.2314  0.3505
13129TIP3    H260803   4.540   2.758   0.881  0.3817 -0.0627  1.4111
13130TIP3   OH260804   5.358   3.218   0.943 -0.1266 -0.5731 -0.0862
13130TIP3    H160805   5.359   3.191   0.851 -1.6960 -0.1763 -0.2514
13130TIP3    H260806   5.315   3.304   0.942  0.2585 -0.3580  0.9735
13131TIP3   OH260807   2.149   6.480  15.438  0.5465 -0.2078  0.8348
13131TIP3    H160808   2.056   6.485  15.416  0.7648 -0.1052 -0.0925
13131TIP3    H260809   2.184   6.412  15.381  1.3104  0.7048  0.1841
13132TIP3   OH260810   3.099   0.669  16.252 -0.3972  0.0153  0.1296
13132TIP3    H160811   3.079   0.575  16.260 -0.7829  0.0442 -0.4871
13132TIP3    H260812   3.038   0.711  16.313  1.6331 -0.3141  2.5844
13133TIP3   OH260813   1.679   6.375  11.083 -0.1753 -0.2151 -0.0768
13133TIP3    H160814   1.759   6.421  11.108 -1.0531  1.7995 -0.7210
13133TIP3    H260815   1.680   6.294  11.133  2.1298 -0.1182  0.1105
13134TIP3   OH260816   6.119   6.299   0.618 -0.2609  0.0844 -0.1346
13134TIP3    H160817   6.188   6.349   0.575 -1.2604  2.4047  0.8290
13134TIP3    H260818   6.150   6.288   0.708 -1.3253  1.6187  0.4538
13135TIP3   OH260819   1.047   5.028  14.471 -0.0236  0.2593  0.0721
13135TIP3    H160820   0.954   5.041  14.453 -0.2319  0.1467  1.0517
13135TIP3    H260821   1.059   5.058  14.561  0.2307 -2.6692  1.1272
13136TIP3   OH260822   1.347   0.286   3.380 -0.0984  0.4311 -0.2115
13136TIP3    H160823   1.428   0.338   3.385 -0.9839  1.9174 -0.7643
13136TIP3    H260824   1.279   0.345   3.411 -1.2843 -0.0997 -1.7202
13137TIP3   OH260825   3.146   4.767  17.164 -0.2521 -0.4955 -0.9228
13137TIP3    H160826   3.202   4.833  17.206 -1.1382 -0.5305  0.3854
13137TIP3    H260827   3.194   4.685  17.173 -0.4268 -0.5013  0.0669
13138TIP3   OH260828   4.412   2.569  17.275 -0.3008 -0.4253  0.0525
13138TIP3    H160829   4.471   2.503  17.312 -0.6497 -0.9087 -0.2486
13138TIP3    H260830   4.428   2.647  17.328  0.6958 -0.5132 -0.1002
13139TIP3   OH260831   2.511   5.193  17.241 -0.2169 -0.1607  0.0527
13139TIP3    H160832   2.486   5.106  17.269  1.0047 -0.1025  1.4242
13139TIP3    H260833   2.430   5.243  17.240 -0.7497 -1.0111  0.3463
13140TIP3   OH260834   4.688   5.419   2.345 -0.2850 -0.3158  0.3795
13140TIP3    H160835   4.694   5.514   2.353 -0.6152 -0.3519  1.1207
13140TIP3    H260836   4.748   5.397   2.273  0.4616  0.3636  0.7759
13141TIP3   OH260837   3.273   2.538  12.143  0.5268  0.4230 -0.0615
13141TIP3    H160838   3.230   2.471  12.090  0.5405  0.6900 -0.4159
13141TIP3    H260839   3.201   2.585  12.186  0.2769  2.2895 -2.3461
13142TIP3   OH260840   0.969   6.761  11.054  0.1247  0.8335  0.6141
13142TIP3    H160841   0.904   6.798  10.994  1.5195 -0.7981 -2.1061
13142TIP3    H260842   0.937   6.672  11.072  1.0511  0.3516  0.0033
13143TIP3   OH260843   3.941   2.116  12.484  0.4150 -0.4370  0.6815
13143TIP3    H160844   4.008   2.131  12.551  0.0451  0.6251  0.8417
13143TIP3    H260845   3.899   2.201  12.474 -2.2252 -1.4984  1.9774
13144TIP3   OH260846   3.505   0.320  12.950 -0.9262 -0.2667 -0.4085
13144TIP3    H160847   3.512   0.244  13.009  0.0712 -0.1975 -0.4096
13144TIP3    H260848   3.418   0.313  12.913 -0.7303 -1.6380 -0.6898
13145TIP3   OH260849   2.623   2.409   3.176  0.3450  1.0459  0.5103
13145TIP3    H160850   2.699   2.397   3.233  0.0577  1.6443  1.0234
13145TIP3    H260851   2.661   2.428   3.090  0.8644 -2.7307 -0.2967
13146TIP3   OH260852   2.038   2.251   0.870 -0.2152 -0.0080  0.3813
13146TIP3    H160853   2.117   2.236   0.922  1.4401  0.4787 -1.8505
13146TIP3    H260854   2.069   2.262   0.781 -2.5165  3.1045 -0.2221
13147TIP3   OH260855   1.779   4.680  15.905 -0.5599  0.2955 -0.1104
13147TIP3    H160856   1.799   4.752  15.845  0.3511  0.9794  0.9778
13147TIP3    H260857   1.696   4.705  15.946 -0.2471  0.7450  0.2629
13148TIP3   OH260858   4.390   6.658  14.541 -0.1301 -0.1482  0.0414
13148TIP3    H160859   4.327   6.724  14.571 -0.0324 -0.5778  1.2473
13148TIP3    H260860   4.387   6.590  14.608  0.9201 -0.6246 -0.3762
13149TIP3   OH260861   6.522   3.234  14.615 -0.1141 -0.8708 -0.6718
13149TIP3    H160862   6.535   3.146  14.581 -0.9914 -1.5283  0.5721
13149TIP3    H260863   6.532   3.224  14.710 -0.6457  0.2822 -0.4799
13150TIP3   OH260864   1.689   5.374   3.819 -0.0634  0.3430 -0.2070
13150TIP3    H160865   1.653   5.463   3.813 -0.2782  0.2947  0.3427
13150TIP3    H260866   1.683   5.340   3.729 -2.0060  0.1118 -0.0449
13151TIP3   OH260867   4.519   5.288  12.799 -0.3143  0.1855  0.6300
13151TIP3    H160868   4.457   5.337  12.745 -0.1096 -0.5178 -0.2472
13151TIP3    H260869   4.500   5.196  12.782  1.2882 -0.0523 -0.0356
13152TIP3   OH260870   5.758   5.149  14.125 -0.9092 -0.0709 -0.2565
13152TIP3    H160871   5.850   5.175  14.118 -1.1874  0.8720 -0.6664
13152TIP3    H260872   5.760   5.053  14.125  0.1586 -0.0725  1.1412
13153TIP3   OH260873   1.443   0.940  16.203  0.6351  0.2890 -0.0220
13153TIP3    H160874   1.520   0.938  16.261  1.6574  0.6291 -1.3309
13153TIP3    H260875   1.368   0.932  16.263  1.6452  0.7263  1.3519
13154TIP3   OH260876   6.541   2.874  16.553 -0.1019  0.5709  0.1520
13154TIP3    H160877   6.583   2.948  16.597  0.9928  1.3425 -2.0512
13154TIP3    H260878   6.605   2.804  16.556  0.2370  0.8281 -0.7016
13155TIP3   OH260879   0.861   0.992  13.141 -0.3355 -0.2959 -0.3879
13155TIP3    H160880   0.781   0.953  13.176  0.6325 -0.4468  1.7906
13155TIP3    H260881   0.918   0.917  13.124 -0.0148 -0.0752 -0.2743
13156TIP3   OH260882   4.886   4.111   2.255  0.2066 -0.2258  0.2765
13156TIP3    H160883   4.793   4.127   2.267  0.2192 -0.0223  0.1222
13156TIP3    H260884   4.911   4.169   2.182  0.9322  1.4710  1.7945
13157TIP3   OH260885   1.722   3.216  14.548 -0.2310 -0.0130 -0.3077
13157TIP3    H160886   1.693   3.302  14.520  0.1088  1.0889  2.3693
13157TIP3    H260887   1.704   3.214  14.642 -2.0845 -3.6553 -0.5371
13158TIP3   OH260888   5.992   3.097  15.470 -0.5381  0.4343 -0.6932
13158TIP3    H160889   5.991   3.187  15.438 -1.0271  1.3126  1.5708
13158TIP3    H260890   5.907   3.062  15.445 -0.4674  0.6994 -1.3197
13159TIP3   OH260891   3.152   5.576  13.043 -0.0219  0.2385 -0.7012
13159TIP3    H160892   3.156   5.488  13.005  1.6538 -0.1561  0.2945
13159TIP3    H260893   3.160   5.561  13.138 -0.9532  1.3977 -0.4179
13160TIP3   OH260894   1.763   1.605  12.828 -0.3684 -0.1749  0.8059
13160TIP3    H160895   1.711   1.610  12.907  1.3934 -0.2031  2.0280
13160TIP3    H260896   1.771   1.511  12.810 -0.3753 -0.1864  0.8643
13161TIP3   OH260897   1.709   4.997   2.572  0.1417 -0.2949 -0.5084
13161TIP3    H160898   1.762   5.067   2.608 -1.1264  0.4768 -0.0859
13161TIP3    H260899   1.652   4.970   2.644  0.2693 -1.4408 -0.8035
13162TIP3   OH260900   2.529   6.424  12.402 -0.0779 -0.4446 -0.0811
13162TIP3    H160901   2.443   6.447  12.367  0.0546 -0.7425 -0.6075
13162TIP3    H260902   2.557   6.348  12.351  1.4782  0.9877 -1.4710
13163TIP3   OH260903   0.038   0.397  12.489  0.5235 -0.1346 -0.2358
13163TIP3    H160904   0.041   0.490  12.463 -1.4826  0.1911  0.5077
13163TIP3    H260905   0.128   0.375  12.509  1.2297  1.3283 -1.5678
13164TIP3   OH260906   2.233   3.392  11.706 -0.1872 -0.1001  0.1313
13164TIP3    H160907   2.262   3.301  11.701  0.9595  0.3182 -2.5648
13164TIP3    H260908   2.158   3.397  11.646 -0.7910  0.5708  0.9199
13165TIP3   OH260909   3.057   3.863  17.190  0.2206 -0.5485 -0.2548
13165TIP3    H160910   3.143   3.823  17.200  0.8739  0.9587  0.3191
13165TIP3    H260911   3.053   3.930  17.258 -0.2478  1.3530 -2.0630
13166TIP3   OH260912   0.230   2.084  15.989  0.6273 -0.6586  0.0901
13166TIP3    H160913   0.185   2.005  16.018 -0.0464  0.2573  1.6848
13166TIP3    H260914   0.228   2.079  15.893 -2.4430 -0.9452  0.0661
13167TIP3   OH260915   0.468   5.985   1.516 -0.5768  0.3740  0.0961
13167TIP3    H160916   0.450   6.078   1.533 -0.9529  0.6918 -1.8210
13167TIP3    H260917   0.446   5.973   1.424  0.5588 -1.3611  0.0096
13168TIP3   OH260918   1.355   4.384  11.712  0.0356  0.3678  0.6287
13168TIP3    H160919   1.284   4.436  11.676 -0.3614 -0.8024 -0.3405
13168TIP3    H260920   1.385   4.329  11.640  0.3767 -0.8053  1.6133
13169TIP3   OH260921   5.706   4.624   0.351 -0.3401 -0.5748 -0.5694
13169TIP3    H160922   5.766   4.654   0.420 -0.9369  1.7235 -0.9865
13169TIP3    H260923   5.763   4.608   0.276 -0.1946  2.1085 -1.1304
13170TIP3   OH260924   3.123   2.612   3.862  0.4032  0.7899 -0.2952
13170TIP3    H160925   3.168   2.606   3.946  0.2341 -0.1771 -0.2553
13170TIP3    H260926   3.037   2.649   3.882  1.0197  2.2762 -0.3164
13171TIP3   OH260927   1.520   0.833  12.744 -0.0416  0.3211  0.7457
13171TIP3    H160928   1.474   0.757  12.779 -1.2749 -0.0168 -1.4369
13171TIP3    H260929   1.601   0.797  12.708 -0.1513  0.2014  0.6178
13172TIP3   OH260930   6.640   5.460   2.143 -0.1119 -0.0755 -1.3763
13172TIP3    H160931   6.732   5.455   2.116  0.0910 -2.0629 -0.5113
13172TIP3    H260932   6.643   5.501   2.229 -0.1558  0.8725 -1.8222
13173TIP3   OH260933   3.913   1.444   3.410  0.0918 -0.7865  0.1639
13173TIP3    H160934   3.957   1.471   3.490  0.2724  0.4042 -0.3201
13173TIP3    H260935   3.821   1.468   3.424  0.0930 -0.7333  0.0818
13174TIP3   OH260936   0.544   6.173  17.326 -0.4574 -0.1851  0.7264
13174TIP3    H160937   0.596   6.093  17.333 -0.1980  0.0004  0.9576
13174TIP3    H260938   0.568   6.224  17.403 -0.1362  0.3960  0.2511
13175TIP3   OH260939   2.555   6.220   4.867  1.1141 -0.3782 -0.5646
13175TIP3    H160940   2.513   6.211   4.781 -0.4499  1.2628 -0.0350
13175TIP3    H260941   2.621   6.288   4.854  0.1805  0.6257 -0.2949
13176TIP3   OH260942   2.734   4.028   2.065  0.3475  0.5192 -0.2666
13176TIP3    H160943   2.653   4.072   2.090 -0.8188 -1.1380 -0.9602
13176TIP3    H260944   2.773   4.085   1.999 -0.2511  1.3479  0.0865
13177TIP3   OH260945   4.260   0.428   1.118 -0.0075  0.4638 -0.2830
13177TIP3    H160946   4.190   0.381   1.073 -0.7843  0.1269  1.2001
13177TIP3    H260947   4.289   0.368   1.187  2.4082  0.2162 -1.3860
13178TIP3   OH260948   3.016   0.497  15.334  0.9082  0.0784 -0.0459
13178TIP3    H160949   3.044   0.416  15.375  2.7144 -0.5259 -2.2429
13178TIP3    H260950   3.033   0.565  15.399  0.1271 -1.1582  1.5180
13179TIP3   OH260951   4.520   1.255   3.136 -0.3418  0.0585  0.2455
13179TIP3    H160952   4.448   1.282   3.081 -0.6270 -0.7591  0.2015
13179TIP3    H260953   4.562   1.184   3.088  0.5490  0.5808  0.2297
13180TIP3   OH260954   1.104   0.565  14.577  0.4823  0.0935  0.7094
13180TIP3    H160955   1.049   0.526  14.644 -0.4372  0.4952  0.2055
13180TIP3    H260956   1.180   0.598  14.625  1.0117 -1.7297  1.2361
13181TIP3   OH260957   3.593   6.307   1.501  0.2787  0.4769  0.5369
13181TIP3    H160958   3.571   6.394   1.535  0.0624  0.6759 -0.0925
13181TIP3    H260959   3.635   6.262   1.575  0.6360  1.2058  0.7878
13182TIP3   OH260960   3.005   2.367   6.523  0.5185 -0.2852  0.3950
13182TIP3    H160961   2.923   2.368   6.473 -0.5803 -0.5378  2.0984
13182TIP3    H260962   3.056   2.297   6.483 -0.7074 -1.0967  0.1768
13183TIP3   OH260963   3.234   5.028  12.426 -0.0462 -0.0602 -0.6754
13183TIP3    H160964   3.190   5.002  12.507  0.2307 -0.8239 -0.7566
13183TIP3    H260965   3.182   5.101  12.392 -0.5329 -0.1515 -0.1449
13184TIP3   OH260966   4.668   4.497  10.989  0.1509  0.1497  0.6939
13184TIP3    H160967   4.612   4.500  10.912 -0.1750 -0.6451  0.8953
13184TIP3    H260968   4.672   4.588  11.019 -0.7793  0.2621  0.4978
13185TIP3   OH260969   5.192   4.259   6.326 -0.2214  0.4069 -0.4022
13185TIP3    H160970   5.186   4.340   6.275  2.9466  1.0306  0.0085
13185TIP3    H260971   5.230   4.286   6.409 -1.5371 -1.1903  0.7849
13186TIP3   OH260972   6.419   3.747  16.978 -0.4711  0.2483  0.8306
13186TIP3    H160973   6.326   3.740  16.960 -0.2209  2.1460 -1.6785
13186TIP3    H260974   6.428   3.832  17.022  0.0361 -0.1561  1.5269
13187TIP3   OH260975   4.321   5.302  16.392 -0.1937 -0.0900 -0.3587
13187TIP3    H160976   4.295   5.210  16.392 -3.8806  0.7934  0.3399
13187TIP3    H260977   4.354   5.317  16.304 -1.1012 -1.7202 -1.0396
13188TIP3   OH260978   3.917   0.615   1.689  0.1568 -0.2841 -0.1337
13188TIP3    H160979   3.840   0.574   1.729 -0.6070  0.7639 -0.4977
13188TIP3    H260980   3.898   0.709   1.690  0.6044 -0.1394 -1.9183
13189TIP3   OH260981   5.306   4.115  16.420  0.7427 -0.3536  0.3148
13189TIP3    H160982   5.216   4.139  16.400  0.1646 -2.9764 -0.5408
13189TIP3    H260983   5.328   4.169  16.496 -1.8926 -0.3741  1.1967
13190TIP3   OH260984   5.971   1.342   0.096  0.1591 -0.4563 -0.2609
13190TIP3    H160985   5.891   1.378   0.135  0.8074 -2.1415  2.9973
13190TIP3    H260986   5.942   1.266   0.047 -0.3734 -0.3056 -0.1882
13191TIP3   OH260987   1.190   3.828   0.419  0.4705  0.0281 -0.4901
13191TIP3    H160988   1.193   3.733   0.406  1.3700 -0.2955  1.6141
13191TIP3    H260989   1.118   3.858   0.364 -0.3453 -1.9788 -0.6026
13192TIP3   OH260990   4.312   6.649   2.876 -0.0182 -0.4968  0.3840
13192TIP3    H160991   4.270   6.618   2.795  1.1284 -0.5699 -0.2103
13192TIP3    H260992   4.386   6.590   2.888 -1.3437 -1.8023  2.6678
13193TIP3   OH260993   1.594   2.376  14.478  0.2615  0.1849 -0.6600
13193TIP3    H160994   1.519   2.325  14.449  0.4383 -0.1751 -0.5047
13193TIP3    H260995   1.576   2.466  14.451 -0.5584  0.2325  0.0104
13194TIP3   OH260996   3.010   5.520   0.037  0.6706  0.2178  0.1542
13194TIP3    H160997   2.917   5.498   0.034  0.8146 -0.3955  0.1175
13194TIP3    H260998   3.035   5.508   0.129  0.9020 -0.4463  0.0157
13195TIP3   OH260999   2.716   4.719  15.305  0.5433 -0.4486  0.0533
13195TIP3    H161000   2.796   4.739  15.355  1.4693  2.2127 -2.2172
13195TIP3    H261001   2.650   4.777  15.343  1.1592  1.3137 -1.3830
13196TIP3   OH261002   5.814   3.682  11.987  0.1832  0.1805  0.8693
13196TIP3    H161003   5.763   3.623  12.043  1.3518 -0.7242  1.0485
13196TIP3    H261004   5.827   3.760  12.040 -1.1751  0.5101  0.7314
13197TIP3   OH261005   2.724   3.675   4.841 -0.0038  0.7847 -0.2176
13197TIP3    H161006   2.809   3.718   4.836  0.3675  0.5754  2.5601
13197TIP3    H261007   2.743   3.582   4.828  0.2897  0.6942  0.7603
13198TIP3   OH261008   2.124   0.850  12.107  0.1341 -0.0086 -0.0392
13198TIP3    H161009   2.204   0.901  12.100  0.9668 -1.0329  1.3848
13198TIP3    H261010   2.150   0.761  12.086 -0.8455 -0.2105 -0.4672
13199TIP3   OH261011   1.418   0.088  14.679  0.9194 -0.1372 -0.2368
13199TIP3    H161012   1.345   0.105  14.619  0.7889  2.1811  0.4947
13199TIP3    H261013   1.395   0.006  14.721 -1.3600  0.5738  0.0467
13200TIP3   OH261014   6.123   0.741  13.694  0.3674 -0.3454 -0.4745
13200TIP3    H161015   6.141   0.742  13.788  0.2606  2.9777 -0.3465
13200TIP3    H261016   6.209   0.735  13.653  0.6788  0.9981 -0.0681
13201TIP3   OH261017   6.197   0.855  17.301  0.0641 -0.1758  0.1206
13201TIP3    H161018   6.122   0.798  17.286 -0.7241  1.2516 -1.7160
13201TIP3    H261019   6.271   0.809  17.261 -0.0249 -1.0899  0.9865
13202TIP3   OH261020   1.837   1.258  13.087 -0.2083  0.1271 -0.3342
13202TIP3    H161021   1.848   1.224  12.998 -0.3783  0.6251 -0.5461
13202TIP3    H261022   1.753   1.222  13.116 -0.5469  0.6221 -0.6807
13203TIP3   OH261023   0.399   2.039   0.333 -0.3508  0.0356 -0.0704
13203TIP3    H161024   0.409   1.958   0.284  1.4806 -0.1093  0.4512
13203TIP3    H261025   0.313   2.073   0.308 -0.9582 -1.8278 -0.6331
13204TIP3   OH261026   6.517   1.876   0.921 -0.5369  0.3050 -0.1216
13204TIP3    H161027   6.472   1.905   1.000  1.5434 -0.2893  1.3638
13204TIP3    H261028   6.554   1.791   0.944  0.7297  0.4400 -1.4791
13205TIP3   OH261029   6.192   6.539   4.615 -0.5496 -1.0881  0.2124
13205TIP3    H161030   6.207   6.575   4.527  1.0216  1.7447  1.5073
13205TIP3    H261031   6.145   6.608   4.661  0.7091 -1.5422  2.2755
13206TIP3   OH261032   2.267   2.704  13.367 -0.4691  0.2997 -0.6950
13206TIP3    H161033   2.267   2.717  13.462 -0.4464 -0.7914 -0.5251
13206TIP3    H261034   2.214   2.625  13.354 -0.8308  0.6784 -1.6320
13207TIP3   OH261035   2.274   6.160  12.675 -0.2408  0.5225 -0.3854
13207TIP3    H161036   2.304   6.249  12.693  1.8019  0.1197 -1.5574
13207TIP3    H261037   2.240   6.164  12.586 -2.3997  0.5981  0.3650
13208TIP3   OH261038   0.972   1.177   0.660  0.0350 -0.8163 -0.3960
13208TIP3    H161039   0.997   1.206   0.748  0.7586 -1.8249 -0.2441
13208TIP3    H261040   1.011   1.090   0.652 -0.9702 -1.2036 -1.3043
13209TIP3   OH261041   5.692   1.340  17.294 -0.3518  0.0212 -0.1440
13209TIP3    H161042   5.678   1.431  17.268  1.3854  0.2863 -0.2952
13209TIP3    H261043   5.713   1.344  17.387 -1.8433 -0.4213  0.2368
13210TIP3   OH261044   1.996   6.631   3.066  0.0461 -0.4272  0.0419
13210TIP3    H161045   2.069   6.624   3.005  0.1370  1.0931 -0.0661
13210TIP3    H261046   2.033   6.674   3.143 -0.3208 -1.3351  0.7490
13211TIP3   OH261047   2.230   2.885   5.523 -0.1089  0.0957  0.0851
13211TIP3    H161048   2.241   2.902   5.430  0.7601 -0.9263 -0.0273
13211TIP3    H261049   2.311   2.918   5.563  0.3185 -1.0909  0.2285
13212TIP3   OH261050   0.996   3.456  15.652  0.2792 -0.2911 -0.3248
13212TIP3    H161051   0.975   3.363  15.663  3.4531 -1.3741 -2.2391
13212TIP3    H261052   1.045   3.479  15.730 -0.6037 -0.1522  0.2030
13213TIP3   OH261053   6.162   2.622   0.024 -0.5017 -0.1294 -0.1139
13213TIP3    H161054   6.246   2.620   0.070 -1.0422 -0.3110  0.8946
13213TIP3    H261055   6.112   2.549   0.061 -0.7817 -0.6061 -1.3588
13214TIP3   OH261056   3.256   5.112  12.813 -0.5268 -0.1636 -0.1676
13214TIP3    H161057   3.205   5.033  12.797 -0.5450 -0.1838 -0.0182
13214TIP3    H261058   3.344   5.092  12.782 -0.9900  0.4375 -1.9619
13215TIP3   OH261059   2.144   2.451   4.352  0.2807  0.5929 -0.6359
13215TIP3    H161060   2.220   2.473   4.300  0.6538  2.3265  0.5396
13215TIP3    H261061   2.137   2.522   4.416 -1.7828  0.0160 -0.1246
13216TIP3   OH261062   1.285   2.074  16.010 -0.0104  0.0742  0.3006
13216TIP3    H161063   1.226   2.043  15.942 -0.1594  0.2644  0.3397
13216TIP3    H261064   1.371   2.045  15.983 -0.1960 -0.7327  0.5462
13217TIP3   OH261065   1.206   3.607  14.027 -0.5168 -0.3992 -0.4812
13217TIP3    H161066   1.132   3.626  14.085  0.5058  1.9285  0.1702
13217TIP3    H261067   1.187   3.655  13.946 -0.8477 -1.7922 -1.2607
13218TIP3   OH261068   1.401   4.878  13.686 -0.4472 -0.2865  0.3064
13218TIP3    H161069   1.313   4.907  13.662 -0.5765 -1.3572 -0.5714
13218TIP3    H261070   1.388   4.800  13.738 -0.0042 -1.8547 -1.8068
13219TIP3   OH261071   3.478   3.588  13.908 -0.4353  0.3524 -0.0193
13219TIP3    H161072   3.487   3.619  13.998  1.4222 -1.3971  0.4817
13219TIP3    H261073   3.547   3.632  13.860  0.8983 -1.3164  0.2591
13220TIP3   OH261074   3.081   1.339   3.143  0.1657  0.6403 -0.0053
13220TIP3    H161075   3.010   1.279   3.120 -0.5619  1.0075  1.1759
13220TIP3    H261076   3.159   1.284   3.145 -0.5334 -0.3702  1.3322
13221TIP3   OH261077   5.152   5.623  12.566 -0.0679 -0.0723  0.0561
13221TIP3    H161078   5.140   5.530  12.587  4.0551 -0.8828 -0.2297
13221TIP3    H261079   5.163   5.625  12.471 -1.7946  1.0098 -0.1475
13222TIP3   OH261080   6.359   6.634   6.095  0.0688 -0.2404 -0.1081
13222TIP3    H161081   6.379   6.541   6.109 -1.4787 -0.9736 -2.2770
13222TIP3    H261082   6.265   6.640   6.110  0.0032  0.7868 -0.8952
13223TIP3   OH261083   1.828   3.760   0.835 -0.3827 -0.2078 -0.1228
13223TIP3    H161084   1.855   3.830   0.776  0.3373  1.3639  1.9606
13223TIP3    H261085   1.895   3.692   0.823 -0.3522 -0.0078 -1.1999
13224TIP3   OH261086   3.467   1.400  15.881  0.0598  0.1496  0.1405
13224TIP3    H161087   3.462   1.393  15.976 -0.4352  0.4367  0.1373
13224TIP3    H261088   3.520   1.325  15.854  2.5368  1.5110  0.8631
13225TIP3   OH261089   2.479   0.367   2.049 -0.4408 -0.2158 -0.3679
13225TIP3    H161090   2.571   0.381   2.028 -0.5720 -1.1432 -1.7485
13225TIP3    H261091   2.475   0.277   2.082 -0.5852  0.4897  1.6595
13226TIP3   OH261092   0.837   1.865  15.957  0.3634 -0.1025  0.3281
13226TIP3    H161093   0.882   1.931  15.904  1.7051 -0.4720  0.9805
13226TIP3    H261094   0.894   1.851  16.032  0.7551 -2.8889 -0.3630
13227TIP3   OH261095   5.190   3.352  14.921  0.3423 -0.0130 -0.7019
13227TIP3    H161096   5.117   3.326  14.865  0.6675  1.1113 -1.6797
13227TIP3    H261097   5.181   3.298  14.999 -1.9195  0.5377 -0.5199
13228TIP3   OH261098   3.546   6.317   6.187 -0.0688 -0.7396 -0.0471
13228TIP3    H161099   3.636   6.286   6.189 -1.3140 -5.1042 -0.1088
13228TIP3    H261100   3.512   6.297   6.274 -2.1399 -4.1264 -1.3933
13229TIP3   OH261101   3.231   0.852  13.562  0.3010  0.1343  0.8173
13229TIP3    H161102   3.231   0.881  13.653  0.4061 -1.6772  1.4277
13229TIP3    H261103   3.324   0.835  13.543  0.3666  1.1822  0.1236
13230TIP3   OH261104   5.813   6.178  11.141 -0.2324  0.6519  0.3883
13230TIP3    H161105   5.801   6.188  11.046  0.1901 -1.1361  0.1070
13230TIP3    H261106   5.749   6.112  11.166 -1.0002  1.7875  1.5626
13231TIP3   OH261107   2.370   4.188   3.653  0.5255  0.0231  0.6212
13231TIP3    H161108   2.386   4.094   3.667 -0.1073 -0.1189  0.4183
13231TIP3    H261109   2.284   4.191   3.610 -0.5067  0.8291  2.6313
13232TIP3   OH261110   2.997   6.582   6.488  0.0346 -0.2468 -0.6638
13232TIP3    H161111   3.028   6.593   6.398  1.0715  1.8186 -0.1344
13232TIP3    H261112   3.077   6.571   6.539 -0.6333 -4.1511 -0.2051
13233TIP3   OH261113   2.963   0.985   1.797 -0.0502  0.2880  0.1587
13233TIP3    H161114   2.999   0.913   1.849 -0.8161 -1.3381 -1.4428
13233TIP3    H261115   2.883   1.011   1.843  1.0147  1.2089  1.5713
13234TIP3   OH261116   5.089   0.685  11.528  0.1317 -0.0648 -0.1039
13234TIP3    H161117   5.152   0.732  11.473  0.1614  0.9675  0.7895
13234TIP3    H261118   5.006   0.692  11.480 -0.1920  2.2068  0.7022
13235TIP3   OH261119   6.416   1.040   2.514  0.1879 -0.6329 -0.7867
13235TIP3    H161120   6.428   1.045   2.609 -1.4938  1.5630 -0.5882
13235TIP3    H261121   6.327   1.008   2.503  1.0830 -2.9615 -1.7412
13236TIP3   OH261122   4.939   2.452   5.603  0.1514 -0.0350  0.0282
13236TIP3    H161123   4.956   2.393   5.529 -2.2157  1.3087 -1.7300
13236TIP3    H261124   4.886   2.401   5.664 -0.1304 -0.3674 -0.4914
13237TIP3   OH261125   2.531   5.717  15.773 -0.0574  0.5101  0.1850
13237TIP3    H161126   2.493   5.750  15.691 -1.0632  1.2253  0.9031
13237TIP3    H261127   2.454   5.695  15.827  0.5919 -0.6304  0.6745
13238TIP3   OH261128   3.082   0.908  14.992  0.3887  0.1323 -0.1644
13238TIP3    H161129   3.014   0.842  15.006  0.1851  0.6399  1.3900
13238TIP3    H261130   3.124   0.918  15.077 -1.0566  3.5938  0.3221
13239TIP3   OH261131   4.078   6.390  17.156  0.2811  0.6668 -0.4124
13239TIP3    H161132   4.093   6.349  17.241  0.5391  1.3688 -0.1056
13239TIP3    H261133   4.071   6.317  17.094  0.2428  0.1583  0.1882
13240TIP3   OH261134   6.032   6.484  15.541  0.1461 -0.7417  0.3288
13240TIP3    H161135   6.002   6.558  15.594  0.1886 -1.1200  0.8876
13240TIP3    H261136   5.981   6.491  15.460  0.3076  0.0227  0.2858
13241TIP3   OH261137   4.131   1.526   3.050  0.2681  0.2822 -0.3024
13241TIP3    H161138   4.149   1.483   3.133  2.4254 -1.3651 -1.5328
13241TIP3    H261139   4.153   1.618   3.066 -0.8642  0.3122  1.3345
13242TIP3   OH261140   6.344   5.308   3.302 -0.5019  0.0419 -0.8630
13242TIP3    H161141   6.274   5.373   3.305 -0.3515  0.1780  0.1976
13242TIP3    H261142   6.301   5.228   3.271 -1.3435 -0.1079  0.6028
13243TIP3   OH261143   5.327   5.783  16.823 -0.4455  0.0231  0.3003
13243TIP3    H161144   5.290   5.754  16.906 -2.3869  1.1202 -0.1307
13243TIP3    H261145   5.382   5.858  16.846 -0.3158 -0.1868  0.6840
13244TIP3   OH261146   2.477   3.493  11.474  0.2469 -0.0289  0.8656
13244TIP3    H161147   2.546   3.466  11.414 -0.8758  1.3240 -1.1366
13244TIP3    H261148   2.413   3.423  11.470  0.0081  0.2215  0.1691
13245TIP3   OH261149   2.712   4.107  16.082 -0.3765  0.5186  0.3919
13245TIP3    H161150   2.621   4.123  16.105 -0.9178 -1.1382 -0.4942
13245TIP3    H261151   2.732   4.173  16.015 -0.5560  1.5812  1.3476
13246TIP3   OH261152   5.241   4.281  11.854  0.1726 -0.7170 -0.5080
13246TIP3    H161153   5.197   4.217  11.910 -1.4509 -1.9885 -3.0490
13246TIP3    H261154   5.173   4.345  11.833  1.1327  0.5234  0.0419
13247TIP3   OH261155   2.854   2.658   0.272  0.7041 -0.3808 -0.0775
13247TIP3    H161156   2.893   2.624   0.353 -0.8004  0.1798  0.9244
13247TIP3    H261157   2.890   2.746   0.262  1.5485 -0.7601 -0.5137
13248TIP3   OH261158   2.797   2.428   0.696 -0.5208  0.0598 -0.0561
13248TIP3    H161159   2.800   2.398   0.605 -0.3436 -1.4565  0.4307
13248TIP3    H261160   2.747   2.361   0.743  0.3160  0.2467  1.1646
13249TIP3   OH261161   5.435   5.123   4.840 -0.6616 -0.2324 -0.0554
13249TIP3    H161162   5.456   5.161   4.755 -1.3691  1.2039  0.3979
13249TIP3    H261163   5.496   5.164   4.900 -1.1125 -0.1744  0.3659
13250TIP3   OH261164   1.241   5.591   5.663  0.0653 -0.1778 -0.1608
13250TIP3    H161165   1.324   5.550   5.685 -0.2050 -0.1833  0.9231
13250TIP3    H261166   1.235   5.584   5.568  1.2037 -0.3583 -0.2362
13251TIP3   OH261167   1.293   5.216  17.176  0.0180 -0.4692 -0.3909
13251TIP3    H161168   1.255   5.131  17.155  1.1632 -0.9374 -0.6793
13251TIP3    H261169   1.385   5.208  17.150  0.3812  0.5233  0.4974
13252TIP3   OH261170   5.835   6.261  12.922 -0.1859 -0.2060 -0.1844
13252TIP3    H161171   5.914   6.312  12.907 -0.8319  0.6975 -0.6191
13252TIP3    H261172   5.833   6.198  12.850 -0.3725  0.4352 -0.7556
13253TIP3   OH261173   1.638   4.289  13.813  0.0299 -0.3205  0.3471
13253TIP3    H161174   1.665   4.225  13.747  0.1405 -1.4967  1.4938
13253TIP3    H261175   1.643   4.373  13.768 -1.3691 -1.2110 -1.6139
13254TIP3   OH261176   5.282   5.206  12.300  0.1747 -0.0508 -0.0492
13254TIP3    H161177   5.226   5.271  12.255  0.6264  0.1313 -0.3569
13254TIP3    H261178   5.318   5.254  12.374  0.3085 -0.0212 -0.1320
13255TIP3   OH261179   0.595   3.412   4.766  0.5353  0.1393  0.6577
13255TIP3    H161180   0.681   3.450   4.751 -0.2105  1.8868  0.5340
13255TIP3    H261181   0.559   3.399   4.678  0.1513  0.7232  0.7208
13256TIP3   OH261182   2.209   1.966  17.144  0.1605  0.2227  0.2891
13256TIP3    H161183   2.193   1.942  17.235 -1.2718 -0.4640 -0.1203
13256TIP3    H261184   2.297   1.933  17.126  0.2949  0.0029  1.3016
13257TIP3   OH261185   2.577   4.126   0.946 -0.2836  0.5503 -0.9298
13257TIP3    H161186   2.583   4.139   1.040 -1.0824  2.9915 -1.1463
13257TIP3    H261187   2.649   4.067   0.925 -1.3852 -1.8528  1.4508
13258TIP3   OH261188   1.588   6.735  17.058 -0.3337  0.2589  0.7844
13258TIP3    H161189   1.674   6.775  17.045 -0.0592 -0.6038 -0.1152
13258TIP3    H261190   1.598   6.680  17.135  0.3367 -0.9373 -0.1275
13259TIP3   OH261191   0.836   6.558   0.498 -0.2142  0.2071  0.1723
13259TIP3    H161192   0.831   6.560   0.594 -1.4288  1.8807  0.1205
13259TIP3    H261193   0.926   6.585   0.479  1.1332 -3.3230  0.8166
13260TIP3   OH261194   0.300   6.045   4.957  0.0170 -0.4070 -0.1243
13260TIP3    H161195   0.280   6.109   5.026 -1.1957  1.1749 -1.8267
13260TIP3    H261196   0.396   6.039   4.956  0.0753  0.0444  1.2320
13261TIP3   OH261197   0.848   2.061   3.588 -0.4930 -1.0634 -0.9506
13261TIP3    H161198   0.848   2.005   3.510  3.0725 -3.0162  0.2314
13261TIP3    H261199   0.932   2.106   3.586 -1.7146  1.4610  0.1331
13262TIP3   OH261200   2.561   5.477   0.491 -0.0136  0.4491 -0.5471
13262TIP3    H161201   2.588   5.566   0.468 -0.4725  0.6595 -0.2950
13262TIP3    H261202   2.588   5.466   0.582 -3.6523  1.9005  0.8877
13263TIP3   OH261203   0.316   1.771   2.653 -0.0005  0.4334 -0.0128
13263TIP3    H161204   0.320   1.823   2.733 -0.6885 -0.5630  0.6904
13263TIP3    H261205   0.313   1.836   2.582 -0.1762  1.3334  0.8024
13264TIP3   OH261206   5.363   5.789   0.277  0.4933  0.1672  0.3612
13264TIP3    H161207   5.453   5.773   0.247  1.0273  1.8707  0.9620
13264TIP3    H261208   5.370   5.791   0.372 -0.9131 -3.5720  0.7204
13265TIP3   OH261209   5.308   0.278  15.277 -0.1678  0.1205 -0.0957
13265TIP3    H161210   5.403   0.277  15.269 -0.0671  0.1561  0.9589
13265TIP3    H261211   5.291   0.338  15.350 -0.9220 -0.8521  0.5460
13266TIP3   OH261212   6.236   4.385   4.481  0.5910 -0.1862 -0.0069
13266TIP3    H161213   6.292   4.358   4.554  1.2882  0.2251 -0.3777
13266TIP3    H261214   6.181   4.454   4.517  1.0972  0.1813  0.0734
13267TIP3   OH261215   0.813   4.590  14.577  0.1239  0.4933 -0.5107
13267TIP3    H161216   0.779   4.671  14.539  1.1778  0.7729 -0.8803
13267TIP3    H261217   0.790   4.596  14.670 -0.0415  1.0931 -0.5837
13268TIP3   OH261218   6.397   1.615  14.662  0.5307 -0.1174  0.3638
13268TIP3    H161219   6.367   1.705  14.673  1.5814  0.2669  0.1249
13268TIP3    H261220   6.408   1.582  14.751  1.3190  0.3919  0.4646
13269TIP3   OH261221   2.544   4.801   1.468 -0.3215  0.4182 -0.5952
13269TIP3    H161222   2.568   4.854   1.544 -0.4940 -0.4917  0.1028
13269TIP3    H261223   2.602   4.725   1.472 -0.8250  0.0067 -0.9624
13270TIP3   OH261224   1.562   6.309   1.673  0.0934 -0.3544 -0.4083
13270TIP3    H161225   1.648   6.292   1.634  0.7954  1.6027  0.1839
13270TIP3    H261226   1.531   6.388   1.629 -0.4601  0.1510  0.8633
13271TIP3   OH261227   0.401   6.674   2.207 -0.5179  0.1488 -0.1625
13271TIP3    H161228   0.493   6.657   2.188 -0.9229 -2.0308 -0.3782
13271TIP3    H261229   0.369   6.722   2.131 -0.0634 -1.0076 -1.1123
13272TIP3   OH261230   4.695   1.788   2.952 -0.4318 -0.3362 -0.8463
13272TIP3    H161231   4.616   1.835   2.925 -0.5949  0.8408  1.4369
13272TIP3    H261232   4.767   1.838   2.912 -0.7141  0.6092 -0.2144
13273TIP3   OH261233   1.867   1.318   5.759  0.2032 -0.6845  0.5316
13273TIP3    H161234   1.917   1.393   5.727 -1.2898  0.1320  0.0173
13273TIP3    H261235   1.781   1.355   5.782  0.0689 -1.8889  2.1422
13274TIP3   OH261236   3.165   0.330  17.296 -0.2342  0.3349 -0.1537
13274TIP3    H161237   3.092   0.340  17.235  1.6620 -2.7530 -3.3451
13274TIP3    H261238   3.186   0.237  17.294  1.8204  0.5597  3.1353
13275TIP3   OH261239   0.469   2.830   5.424 -0.3485  0.5757  0.2873
13275TIP3    H161240   0.389   2.790   5.389  1.2852 -0.5661 -2.4881
13275TIP3    H261241   0.522   2.756   5.453  0.9491  1.0085 -0.8758
13276TIP3   OH261242   5.635   5.492   2.067  0.4607 -0.1445 -0.1936
13276TIP3    H161243   5.708   5.541   2.028  0.0593  0.0197 -0.7359
13276TIP3    H261244   5.556   5.534   2.032  0.0938 -0.0601  0.7075
13277TIP3   OH261245   0.830   6.516   4.162  0.1355  0.5564 -0.4510
13277TIP3    H161246   0.784   6.461   4.226  2.7188 -1.2318  0.0453
13277TIP3    H261247   0.813   6.474   4.078  1.9574 -1.0626 -0.0939
13278TIP3   OH261248   2.447   0.770   2.890 -0.0544  0.0176  0.0371
13278TIP3    H161249   2.505   0.701   2.857 -0.1775  0.2523 -0.7052
13278TIP3    H261250   2.376   0.723   2.934  0.9563 -0.2569  1.4213
13279TIP3   OH261251   6.571   3.214  12.319 -0.2944 -0.1994  0.3297
13279TIP3    H161252   6.499   3.161  12.353 -0.6487  0.4805  0.6509
13279TIP3    H261253   6.600   3.265  12.395 -1.0212  1.2594 -0.3359
13280TIP3   OH261254   4.933   1.962   0.979 -0.2318 -0.4361  0.5462
13280TIP3    H161255   4.969   2.020   0.913  0.1621 -0.4644  0.7327
13280TIP3    H261256   4.839   1.975   0.973 -0.0839  2.3246  2.4696
13281TIP3   OH261257   4.203   5.166   2.258  0.2725 -0.2008 -0.2294
13281TIP3    H161258   4.237   5.079   2.237 -0.7853 -0.6832  0.0016
13281TIP3    H261259   4.265   5.200   2.322 -0.9043 -2.0819  2.1033
13282TIP3   OH261260   3.049   0.947   2.341  0.0426 -0.0267 -0.4739
13282TIP3    H161261   3.016   1.033   2.314 -0.3437  0.0691  0.2521
13282TIP3    H261262   3.073   0.960   2.433  1.1890 -0.3666 -0.7221
13283TIP3   OH261263   5.713   3.961   1.852 -0.2410  0.3389 -0.0118
13283TIP3    H161264   5.785   3.899   1.846  0.1217  0.6154  1.1785
13283TIP3    H261265   5.655   3.938   1.779  0.3006 -0.8511 -0.0915
13284TIP3   OH261266   5.650   6.545   1.067  0.5839  0.6552 -0.0634
13284TIP3    H161267   5.579   6.554   1.131  0.5113 -0.0251 -0.0352
13284TIP3    H261268   5.719   6.499   1.114  0.5143  0.1175 -0.4718
13285TIP3   OH261269   6.019   5.685  15.141 -0.0563  0.1360 -0.0714
13285TIP3    H161270   6.107   5.651  15.157 -0.4363 -0.3949  0.9528
13285TIP3    H261271   6.000   5.660  15.050  0.8517  0.2782 -0.3082
13286TIP3   OH261272   4.440   4.802  15.526 -0.2188 -0.4189 -0.0578
13286TIP3    H161273   4.512   4.826  15.468 -1.1473  0.4120 -0.9011
13286TIP3    H261274   4.366   4.784  15.467 -1.1392  0.2882  0.8335
13287TIP3   OH261275   2.770   4.595   1.394 -0.2075  0.0768  0.0230
13287TIP3    H161276   2.848   4.649   1.406  0.3917 -0.4677 -1.2763
13287TIP3    H261277   2.745   4.609   1.303 -0.3144 -1.4770 -0.1975
13288TIP3   OH261278   3.811   3.041  12.915  0.8497 -0.1592 -0.3861
13288TIP3    H161279   3.824   3.093  12.835  0.0246 -0.2006 -0.5522
13288TIP3    H261280   3.842   2.953  12.891  0.1145 -0.3014 -0.8303
13289TIP3   OH261281   6.353   2.121  12.146  0.7091 -0.2458 -0.0253
13289TIP3    H161282   6.379   2.181  12.076  1.7163 -0.7319 -0.0987
13289TIP3    H261283   6.407   2.043  12.131  2.2134  0.2642  2.2863
13290TIP3   OH261284   5.684   0.061   1.309 -0.7055 -0.4103 -0.0761
13290TIP3    H161285   5.726   0.062   1.395 -1.2370 -0.3356  0.1904
13290TIP3    H261286   5.609   0.121   1.319 -0.1605  0.4395 -0.9020
13291TIP3   OH261287   4.788   3.648  11.269  0.1160  0.3341  0.4517
13291TIP3    H161288   4.711   3.685  11.312 -1.3741 -0.0616 -1.7205
13291TIP3    H261289   4.785   3.681  11.180  3.3040  1.4193  0.6115
13292TIP3   OH261290   2.548   5.276   4.810  0.2878 -0.5580  0.0018
13292TIP3    H161291   2.557   5.313   4.898 -0.3520 -0.0287 -0.1433
13292TIP3    H261292   2.454   5.268   4.797  0.3185  0.3887 -1.0372
13293TIP3   OH261293   4.654   6.020   0.255  0.6669 -0.3479  0.2292
13293TIP3    H161294   4.576   5.965   0.250  0.4079 -0.0439  0.9041
13293TIP3    H261295   4.713   5.973   0.315  0.9879 -0.5524 -0.2387
13294TIP3   OH261296   0.449   6.042  12.479 -0.2965  0.7110  0.1482
13294TIP3    H161297   0.539   6.064  12.452 -0.5419  0.2481 -1.0937
13294TIP3    H261298   0.394   6.075  12.408 -1.1183  0.8805  0.8451
13295TIP3   OH261299   5.339   5.210  16.136  0.7116  0.1696  0.1126
13295TIP3    H161300   5.336   5.259  16.218  0.9857  0.5388 -0.0923
13295TIP3    H261301   5.352   5.119  16.162  0.5994  0.2607  0.4832
13296TIP3   OH261302   6.632   4.268  14.578  0.0145 -0.1981  0.1276
13296TIP3    H161303   6.637   4.343  14.519 -0.5684 -0.1115  0.1803
13296TIP3    H261304   6.565   4.211  14.538  1.3988 -1.3514 -0.6597
13297TIP3   OH261305   3.582   5.511   2.334 -0.1194 -0.2264  0.4089
13297TIP3    H161306   3.633   5.552   2.405  1.0576  0.5671 -0.8302
13297TIP3    H261307   3.586   5.418   2.352  1.7503 -0.1916  0.4367
13298TIP3   OH261308   6.487   3.343   1.824 -1.1823 -0.3323 -0.5990
13298TIP3    H161309   6.532   3.380   1.749 -0.4386 -0.9359 -0.4640
13298TIP3    H261310   6.429   3.277   1.787 -0.0015 -1.4190 -0.5815
13299TIP3   OH261311   1.290   1.601   3.192 -0.2015 -0.0373  0.0185
13299TIP3    H161312   1.333   1.549   3.125 -0.8909 -1.7533  0.8418
13299TIP3    H261313   1.220   1.647   3.146  1.5201  1.6454 -1.0554
13300TIP3   OH261314   0.133   3.622   0.939  0.3313 -0.5971  0.4111
13300TIP3    H161315   0.213   3.643   0.891 -0.5431  0.2853 -0.7157
13300TIP3    H261316   0.158   3.548   0.995  2.4402  0.8337  1.5299
13301TIP3   OH261317   0.134   3.170   5.734 -0.4965 -0.7364 -0.1694
13301TIP3    H161318   0.102   3.256   5.761 -2.7400 -0.9045 -1.9580
13301TIP3    H261319   0.067   3.109   5.765  1.3908 -1.9995  1.6802
13302TIP3   OH261320   3.569   5.483   4.136  0.2312  0.0830  0.2296
13302TIP3    H161321   3.478   5.471   4.161  0.5766 -0.9463  1.0664
13302TIP3    H261322   3.577   5.577   4.117 -1.1003  0.0928 -0.3293
13303TIP3   OH261323   2.776   4.615   2.096 -0.1536  0.3141  0.6775
13303TIP3    H161324   2.787   4.702   2.133  0.7402  0.0728  0.9835
13303TIP3    H261325   2.861   4.594   2.058 -0.6527 -0.0127 -0.2956
13304TIP3   OH261326   5.253   1.568   4.734  0.4096  0.5490  0.5439
13304TIP3    H161327   5.211   1.483   4.747  1.3778 -0.4263 -1.9393
13304TIP3    H261328   5.181   1.630   4.729 -0.4609 -0.4370  0.5519
13305TIP3   OH261329   1.961   6.304  11.447 -0.3467  0.7675 -0.6363
13305TIP3    H161330   1.869   6.308  11.420 -0.9813 -0.0743  1.2448
13305TIP3    H261331   1.960   6.257  11.530  1.7628  1.0861 -0.3665
13306TIP3   OH261332   6.011   4.097  14.025 -0.1588  0.1496  0.3637
13306TIP3    H161333   6.022   4.002  14.034  3.6431  0.3348 -0.4371
13306TIP3    H261334   6.023   4.131  14.113  0.3351 -0.0565  0.3840
13307TIP3   OH261335   6.215   2.923   3.917  0.1836 -0.6857 -0.1537
13307TIP3    H161336   6.187   2.997   3.970  1.4916 -1.8051  2.2490
13307TIP3    H261337   6.310   2.934   3.909  0.3898 -2.0309  0.1868
13308TIP3   OH261338   5.212   6.406   1.732 -0.4470  0.2242 -0.0232
13308TIP3    H161339   5.267   6.400   1.654 -0.8693  2.0534 -0.5158
13308TIP3    H261340   5.132   6.358   1.709 -1.5127  2.6210 -1.6496
13309TIP3   OH261341   2.730   1.504  15.083  0.4782 -0.0066 -0.3661
13309TIP3    H161342   2.728   1.408  15.090  1.0917 -0.0441 -0.6271
13309TIP3    H261343   2.813   1.529  15.124  1.3655  0.2307 -2.1849
13310TIP3   OH261344   3.025   1.415  16.665  0.3307 -0.0265  0.2591
13310TIP3    H161345   2.975   1.334  16.671  1.7719 -1.0550 -0.8195
13310TIP3    H261346   3.061   1.427  16.753 -0.8433  0.1124  0.7371
13311TIP3   OH261347   3.160   0.570   3.348  0.0136  0.5324  0.3720
13311TIP3    H161348   3.223   0.546   3.416  2.8205  1.0043 -1.8817
13311TIP3    H261349   3.213   0.587   3.270 -2.9830  0.4242 -1.8839
13312TIP3   OH261350   4.435   2.408   2.978 -0.2266 -0.2840 -0.1575
13312TIP3    H161351   4.415   2.376   2.891  0.6104  0.3169 -0.5897
13312TIP3    H261352   4.351   2.433   3.015 -0.4670  0.6588 -1.2827
13313TIP3   OH261353   1.467   3.276   0.007 -0.1372  0.4001 -0.3233
13313TIP3    H161354   1.449   3.187  -0.023  1.6214  0.0124 -0.3481
13313TIP3    H261355   1.491   3.324  -0.072 -1.4864  1.0437 -0.3740
13314TIP3   OH261356   3.691   2.813   1.848  0.0983  0.4805 -0.1767
13314TIP3    H161357   3.605   2.823   1.890 -0.1751  1.4122 -0.9535
13314TIP3    H261358   3.749   2.871   1.898 -0.0588  1.0003 -0.5918
13315TIP3   OH261359   4.802   6.082   6.220  0.6250 -0.2263  0.1519
13315TIP3    H161360   4.769   5.997   6.246 -0.8242  0.0956 -0.5408
13315TIP3    H261361   4.857   6.110   6.293 -1.6385 -0.2425  1.9719
13316TIP3   OH261362   1.719   0.671  17.005  0.4507  0.0341  0.2477
13316TIP3    H161363   1.723   0.760  16.970 -2.7975  0.4827  0.6694
13316TIP3    H261364   1.673   0.680  17.088  2.5109 -1.7636  1.6874
13317TIP3   OH261365   4.162   6.765   1.523 -0.1314  0.1688  0.3209
13317TIP3    H161366   4.085   6.723   1.562 -0.3080 -1.1695 -1.3680
13317TIP3    H261367   4.142   6.769   1.430  2.3528 -1.4221 -0.3659
13318TIP3   OH261368   4.421   4.427  12.469 -0.3295  0.0988 -0.0507
13318TIP3    H161369   4.449   4.390  12.553 -0.1320  1.7543  0.6466
13318TIP3    H261370   4.502   4.438  12.419  0.2025  3.0691  1.2273
13319TIP3   OH261371   5.304   5.943  11.949  0.1658 -0.3506  0.5221
13319TIP3    H161372   5.347   6.025  11.924 -0.3536  0.4576  2.1540
13319TIP3    H261373   5.304   5.891  11.869  0.7221  1.1444 -0.4975
13320TIP3   OH261374   0.013   4.444   0.665 -0.3207  0.3082  0.0850
13320TIP3    H161375   0.021   4.539   0.674 -0.1099  0.2966  0.0222
13320TIP3    H261376  -0.065   4.422   0.715  0.1977  0.3897  0.9518
13321TIP3   OH261377   0.995   3.359   0.933 -0.5216  0.0268 -0.7163
13321TIP3    H161378   1.016   3.448   0.904 -0.6346  0.8748  1.5384
13321TIP3    H261379   1.075   3.328   0.975 -0.6308 -0.7597 -1.0833
13322TIP3   OH261380   1.451   2.481   5.916 -1.1545 -0.0404  0.1461
13322TIP3    H161381   1.546   2.466   5.912 -1.1902 -0.2609  0.1179
13322TIP3    H261382   1.442   2.576   5.931 -0.9334  0.0146 -0.0651
13323TIP3   OH261383   1.970   2.201   4.637 -0.0495  0.4186  0.2077
13323TIP3    H161384   1.970   2.123   4.581  0.0277 -0.1644  1.0142
13323TIP3    H261385   1.877   2.224   4.646 -0.0199  1.0780 -0.9080
13324TIP3   OH261386   1.508   0.836  14.539  0.2477  0.2974  0.0114
13324TIP3    H161387   1.507   0.741  14.556  1.0497 -0.1087 -1.9404
13324TIP3    H261388   1.538   0.874  14.621 -1.8877 -0.9343  1.4935
13325TIP3   OH261389   5.680   5.260  11.922  0.0294  0.6670 -0.1137
13325TIP3    H161390   5.744   5.282  11.990 -0.6651  1.4060  0.3063
13325TIP3    H261391   5.728   5.272  11.840  1.3183 -1.5925  0.2135
13326TIP3   OH261392   6.562   2.323   3.409  0.7948  0.3790  0.2873
13326TIP3    H161393   6.622   2.253   3.436 -0.1059  0.7944  3.9609
13326TIP3    H261394   6.567   2.387   3.480 -0.6064  2.6389 -1.5213
13327TIP3   OH261395   4.579   0.086  13.570 -1.2445  0.0453  0.2096
13327TIP3    H161396   4.661   0.130  13.596 -0.9415 -0.9306  0.9454
13327TIP3    H261397   4.518   0.158  13.555  0.2349  0.9374 -2.2117
13328TIP3   OH261398   4.172   2.848  12.364  0.0122  0.2238 -0.4143
13328TIP3    H161399   4.194   2.755  12.365 -1.0794 -0.0843 -1.5333
13328TIP3    H261400   4.249   2.891  12.329  0.7617 -0.1686  0.7012
13329TIP3   OH261401   4.796   0.713   2.987  0.2743 -0.4058  0.4561
13329TIP3    H161402   4.802   0.729   2.893  0.2153  0.9417  0.6664
13329TIP3    H261403   4.730   0.644   2.995 -1.8880  1.4212 -0.3618
13330TIP3   OH261404   0.014   0.250   4.291  0.0269 -0.2602 -0.1195
13330TIP3    H161405   0.010   0.313   4.362 -1.4992 -1.4387  0.8998
13330TIP3    H261406   0.085   0.282   4.235 -0.3635  2.0558  0.5945
13331TIP3   OH261407   2.944   2.526   1.825 -0.0160  0.1356 -0.0425
13331TIP3    H161408   2.939   2.492   1.736 -0.5597 -1.6353  0.6280
13331TIP3    H261409   2.873   2.590   1.831  2.0609  2.8311 -1.8429
13332TIP3   OH261410   4.936   0.141  13.314  0.7594 -0.6071 -0.5627
13332TIP3    H161411   4.856   0.170  13.358 -0.4282 -1.8004 -1.8518
13332TIP3    H261412   4.943   0.048  13.334  1.9110 -0.4932 -0.3615
13333TIP3   OH261413   2.846   5.172   3.242  0.1009  0.1155  0.0594
13333TIP3    H161414   2.917   5.231   3.217 -0.1757 -0.4380 -2.2879
13333TIP3    H261415   2.810   5.210   3.322  1.0074  2.1776 -0.4394
13334TIP3   OH261416   5.761   0.166   3.260  0.2801  0.3419  0.0823
13334TIP3    H161417   5.697   0.205   3.201 -1.8753  0.2079  2.1940
13334TIP3    H261418   5.793   0.089   3.213 -2.4959 -0.6361 -0.3918
13335TIP3   OH261419   0.263   4.730   4.437 -0.2835  0.3660 -0.1440
13335TIP3    H161420   0.340   4.697   4.483 -0.4077 -0.9907 -0.8313
13335TIP3    H261421   0.190   4.716   4.498  0.0265  1.8818  0.6040
13336TIP3   OH261422   0.176   4.286  15.605 -0.1389 -0.1659 -0.0634
13336TIP3    H161423   0.150   4.235  15.528  0.5657  0.8048 -0.9700
13336TIP3    H261424   0.192   4.374  15.571 -0.1906  0.3802  1.2707
13337TIP3   OH261425   2.177   0.828   5.997 -0.1010 -0.6663  0.3586
13337TIP3    H161426   2.098   0.866   6.036 -0.2806 -0.3414 -0.3183
13337TIP3    H261427   2.249   0.881   6.033 -0.2264 -0.6520  0.5922
13338TIP3   OH261428   3.944   2.658   5.709 -0.2171 -0.2527  0.3695
13338TIP3    H161429   3.985   2.708   5.638 -0.1152 -0.9777 -0.0962
13338TIP3    H261430   3.931   2.722   5.779 -1.1464  0.6913 -0.6229
13339TIP3   OH261431   3.306   0.820  15.163 -0.0035  0.3232 -0.0147
13339TIP3    H161432   3.327   0.807  15.070 -0.1759 -0.7616  0.0897
13339TIP3    H261433   3.381   0.870  15.197  0.5402 -0.1245 -0.5171
13340TIP3   OH261434   0.210   3.565   6.001 -0.0426 -0.1321 -0.2325
13340TIP3    H161435   0.257   3.582   5.919 -1.1771  1.7604 -0.5520
13340TIP3    H261436   0.171   3.650   6.025 -3.8620 -1.6145 -0.3911
13341TIP3   OH261437   3.944   3.908  16.623  0.1880  0.2402  0.4297
13341TIP3    H161438   3.932   3.914  16.718  1.6460 -0.5855  0.7117
13341TIP3    H261439   3.919   3.818  16.601  2.0417 -0.3298  0.4552
13342TIP3   OH261440   5.387   4.095   2.856 -0.1492 -0.3982  1.1180
13342TIP3    H161441   5.462   4.098   2.914 -0.5028 -1.0421  1.6146
13342TIP3    H261442   5.370   4.002   2.842 -1.0047 -0.2665  1.2172
13343TIP3   OH261443   2.058   3.643   0.228 -0.3530  0.6938  0.4898
13343TIP3    H161444   2.060   3.737   0.212  2.0602  0.4960 -0.8916
13343TIP3    H261445   2.127   3.628   0.293 -0.5857 -0.1436  0.5546
13344TIP3   OH261446   3.157   1.867   2.221 -0.0311 -0.5585 -0.1628
13344TIP3    H161447   3.087   1.841   2.161  0.6908 -1.9868 -0.4274
13344TIP3    H261448   3.231   1.887   2.164 -0.8432  3.5151 -0.1017
13345TIP3   OH261449   4.186   2.159   5.876 -0.6431  0.6685 -0.2062
13345TIP3    H161450   4.261   2.217   5.891 -0.8327  1.5502 -2.2595
13345TIP3    H261451   4.159   2.178   5.786 -1.4666 -1.7914 -0.5646
13346TIP3   OH261452   0.528   0.035   3.713 -0.2099  0.2310  0.6625
13346TIP3    H161453   0.515   0.026   3.618 -0.4586  0.8915  0.6258
13346TIP3    H261454   0.591  -0.033   3.735  1.6116  1.4899 -0.3865
13347TIP3   OH261455   5.951   6.021   0.972  0.0381 -0.9983 -0.5543
13347TIP3    H161456   5.971   6.046   0.881  0.1574 -1.6530 -0.7157
13347TIP3    H261457   5.869   6.066   0.992  1.1209  0.9211 -0.2279
13348TIP3   OH261458   4.279   5.605  15.992 -0.0879 -0.4189 -0.7224
13348TIP3    H161459   4.239   5.670  16.050 -0.0596  0.2267 -1.4126
13348TIP3    H261460   4.241   5.623  15.906  1.4885  0.0760 -1.3619
13349TIP3   OH261461   1.128   2.482   4.574 -0.2318  0.8492  0.0836
13349TIP3    H161462   1.167   2.477   4.486  1.6511 -0.0033  0.9118
13349TIP3    H261463   1.203   2.496   4.632 -1.1141 -1.1106  1.8102
13350TIP3   OH261464   5.906   2.100   5.405  0.0580  0.3120  0.0112
13350TIP3    H161465   5.877   2.068   5.320 -0.6014 -1.2705  0.8011
13350TIP3    H261466   5.829   2.096   5.460 -0.0019  3.0612  0.2800
13351TIP3   OH261467   2.929   1.222  13.277 -0.0517  0.2537 -0.1943
13351TIP3    H161468   2.979   1.142  13.296  0.1924 -0.1348 -2.2199
13351TIP3    H261469   2.842   1.190  13.254 -0.4606  0.7247  0.6789
13352TIP3   OH261470   3.430   5.626  12.978 -0.0282  0.0576 -0.4370
13352TIP3    H161471   3.399   5.708  12.939 -0.3429  0.5768  0.8438
13352TIP3    H261472   3.475   5.581  12.907 -0.1394  1.1911 -1.2537
13353TIP3   OH261473   1.272   3.994  16.376 -0.2740 -0.1320  0.0067
13353TIP3    H161474   1.347   3.935  16.370  0.6177  0.9440  0.2296
13353TIP3    H261475   1.233   3.974  16.461  0.9516  0.6361  0.7851
13354TIP3   OH261476   4.259   0.789  13.665 -1.1291  0.3732 -0.4229
13354TIP3    H161477   4.248   0.776  13.760 -0.7269 -0.2269 -0.4549
13354TIP3    H261478   4.201   0.863  13.645 -0.6135  1.0356  0.4344
13355TIP3   OH261479   2.714   6.656  14.439  0.5068 -0.9005 -0.5627
13355TIP3    H161480   2.769   6.579  14.456  2.3165  0.5732  0.7173
13355TIP3    H261481   2.770   6.713  14.385  0.1577  0.5001  0.4869
13356TIP3   OH261482   2.424   5.518  14.495  0.4707  0.3685 -0.6553
13356TIP3    H161483   2.350   5.461  14.477  1.0487 -0.9712  1.0256
13356TIP3    H261484   2.492   5.461  14.531  3.5148  0.9525 -4.6778
13357TIP3   OH261485   4.078   6.315   1.913  0.4019 -0.2718 -0.2448
13357TIP3    H161486   4.117   6.304   1.827  1.9469  1.4089  0.1915
13357TIP3    H261487   4.022   6.392   1.905  2.6209  1.5678  0.8404
13358TIP3   OH261488   6.243   5.735   3.979 -0.4593  0.2331 -0.7956
13358TIP3    H161489   6.230   5.782   4.061  1.6612  1.0916 -0.8790
13358TIP3    H261490   6.160   5.691   3.963 -0.5008 -1.2454  2.6011
13359TIP3   OH261491   2.007   0.972  15.652  0.0487 -0.1189 -0.4538
13359TIP3    H161492   1.945   0.899  15.647  0.4893 -0.4620 -0.9350
13359TIP3    H261493   2.056   0.969  15.570  0.5586  0.2836 -0.1735
13360TIP3   OH261494   2.991   3.411   0.910 -0.3200  0.0217 -0.5677
13360TIP3    H161495   3.058   3.449   0.966  1.1271 -0.2992 -2.0060
13360TIP3    H261496   3.016   3.319   0.900 -0.4664  0.0922 -1.7963
13361TIP3   OH261497   2.290   2.477  12.661  0.0788 -0.2177  0.3716
13361TIP3    H161498   2.375   2.473  12.703  0.1586 -0.5403  0.1821
13361TIP3    H261499   2.287   2.400  12.605 -0.2765 -0.1279  0.2620
13362TIP3   OH261500   1.470   3.638  10.877  0.0758  0.9142  0.2381
13362TIP3    H161501   1.551   3.604  10.839  0.5311  2.5066 -0.2979
13362TIP3    H261502   1.418   3.560  10.897  0.2733 -0.0669 -2.6299
13363TIP3   OH261503   4.412   6.402   0.052  0.2776  0.0391  0.3944
13363TIP3    H161504   4.411   6.496   0.035 -0.5586  0.0182  0.3134
13363TIP3    H261505   4.429   6.363  -0.034 -0.8358  0.0652  0.1444
13364TIP3   OH261506   4.182   5.217   5.068 -0.2746  0.2189  0.1558
13364TIP3    H161507   4.226   5.133   5.079  0.4631  0.2870 -1.8421
13364TIP3    H261508   4.253   5.279   5.048 -0.9073  1.1000  0.5489
13365TIP3   OH261509   5.357   4.058  11.370  0.2632  0.3805 -0.1704
13365TIP3    H161510   5.433   4.088  11.420  0.4948 -1.6672  0.8110
13365TIP3    H261511   5.295   4.130  11.376  2.2122  2.2682 -1.3081
13366TIP3   OH261512   2.767   1.417  12.844  0.3505  0.1099 -0.1669
13366TIP3    H161513   2.792   1.459  12.926  1.4183 -0.6085 -0.1005
13366TIP3    H261514   2.817   1.462  12.777  0.2142  0.0540 -0.3079
13367TIP3   OH261515   6.627   1.597   0.698  0.1316 -1.0454  0.3954
13367TIP3    H161516   6.695   1.537   0.667  0.5332 -0.4290  0.0880
13367TIP3    H261517   6.593   1.638   0.619 -2.0113 -2.7898  0.2994
13368TIP3   OH261518   2.779   6.632   1.192  0.4106 -0.2624 -0.0504
13368TIP3    H161519   2.858   6.579   1.187  0.2098 -0.4430 -1.9351
13368TIP3    H261520   2.779   6.684   1.111 -0.6344  0.8530  0.6223
13369TIP3   OH261521   2.292   3.299  15.685 -0.0144  0.2303 -0.0645
13369TIP3    H161522   2.383   3.303  15.716  0.1467  1.1906 -0.6217
13369TIP3    H261523   2.268   3.207  15.695  0.9400  0.0068  0.3288
13370TIP3   OH261524   0.399   6.074   2.653 -0.0263  0.3975  0.2135
13370TIP3    H161525   0.451   6.154   2.642 -1.1020  1.1361  0.4054
13370TIP3    H261526   0.397   6.059   2.748  2.3273 -1.3472  0.0839
13371TIP3   OH261527   3.502   0.645   4.976 -0.2149 -0.7945  0.6897
13371TIP3    H161528   3.485   0.568   5.030 -1.3217 -0.6167  0.6099
13371TIP3    H261529   3.447   0.713   5.012 -1.3672 -0.8031 -0.9328
13372TIP3   OH261530   0.912   4.377   4.872  0.5816 -0.7887 -0.4449
13372TIP3    H161531   0.939   4.287   4.860 -0.0893 -0.8632 -1.5254
13372TIP3    H261532   0.903   4.387   4.967 -1.6662 -2.5943 -0.3761
13373TIP3   OH261533   5.507   3.424   6.417 -0.0014  0.0014  0.0774
13373TIP3    H161534   5.469   3.506   6.448  0.0626  0.3920 -0.8729
13373TIP3    H261535   5.531   3.377   6.498 -0.5546  0.6606  0.6352
13374TIP3   OH261536   5.153   4.026  13.734  0.0259 -0.2923 -0.2853
13374TIP3    H161537   5.099   3.949  13.754 -1.6291  0.5037 -1.4283
13374TIP3    H261538   5.139   4.041  13.640  2.7160 -0.3469 -0.7786
13375TIP3   OH261539   4.605   6.634   2.923 -0.0883  0.1311  0.5349
13375TIP3    H161540   4.624   6.575   2.850 -1.1748 -0.2819  0.5682
13375TIP3    H261541   4.669   6.611   2.990 -0.0798 -0.5520  0.2994
13376TIP3   OH261542   6.569   5.888  14.290 -0.3919  0.6945 -0.6234
13376TIP3    H161543   6.588   5.970  14.244  0.4074  1.4147  0.9313
13376TIP3    H261544   6.479   5.898  14.321 -0.6257  0.5680 -1.2360
13377TIP3   OH261545   5.880   1.131   3.803 -0.0035  0.1628 -0.3475
13377TIP3    H161546   5.796   1.098   3.836  0.5598  0.4388  1.4752
13377TIP3    H261547   5.900   1.204   3.861  0.3423  1.6736 -2.2900
13378TIP3   OH261548   1.203   2.547  13.202 -0.2996 -0.3291  0.2968
13378TIP3    H161549   1.276   2.538  13.140  0.6376  0.3264  1.2787
13378TIP3    H261550   1.216   2.476  13.265  1.7466  1.9117  2.6527
13379TIP3   OH261551   2.047   5.511  16.586 -0.2182  0.2718  0.1852
13379TIP3    H161552   2.086   5.436  16.541  1.0268  0.1620  1.3980
13379TIP3    H261553   2.118   5.576  16.591 -1.5008  1.9593 -1.6426
13380TIP3   OH261554   4.821   6.522  13.977  0.1568 -0.6758 -0.7860
13380TIP3    H161555   4.864   6.460  14.036  0.6325  0.2645 -0.1098
13380TIP3    H261556   4.866   6.510  13.893  1.6420  0.1300 -0.1476
13381TIP3   OH261557   4.440   2.690   4.580 -0.0643  0.4988 -0.1157
13381TIP3    H161558   4.461   2.772   4.534  0.2064 -0.3224 -1.5137
13381TIP3    H261559   4.498   2.625   4.540 -0.0594 -0.3309  1.1856
13382TIP3   OH261560   4.043   1.940   6.307  0.6139 -0.0993  1.0146
13382TIP3    H161561   4.039   2.008   6.374  0.9064 -0.7793  1.7457
13382TIP3    H261562   3.953   1.930   6.277  0.5021  0.3100  1.2083
13383TIP3   OH261563   1.016   3.516   2.460  0.5391  0.5961  0.3698
13383TIP3    H161564   1.091   3.470   2.423  0.3647  0.9851 -0.4950
13383TIP3    H261565   0.987   3.576   2.390 -0.1218  0.9742  0.9493
13384TIP3   OH261566   6.525   3.118   0.622 -0.4795  0.1758 -0.0416
13384TIP3    H161567   6.610   3.127   0.665 -0.7341  1.5449  0.2231
13384TIP3    H261568   6.476   3.057   0.677  1.0189 -2.3726 -1.3493
13385TIP3   OH261569   0.798   1.978   2.712 -0.6157  0.6940  0.6399
13385TIP3    H161570   0.813   2.050   2.651  1.5653  0.4623  0.8007
13385TIP3    H261571   0.752   1.912   2.660  0.1195  0.9818 -0.4187
13386TIP3   OH261572   6.066   2.274   1.236  0.0889 -0.4156  0.1256
13386TIP3    H161573   6.027   2.343   1.289  0.0627 -0.9025  0.7457
13386TIP3    H261574   6.003   2.202   1.240 -0.0308 -0.3751 -0.7735
13387TIP3   OH261575   3.107   3.087  16.144 -0.4486  0.3534 -0.3455
13387TIP3    H161576   3.186   3.057  16.099 -0.1969 -2.4196  1.7010
13387TIP3    H261577   3.135   3.105  16.233 -1.8735  0.7530  0.0543
13388TIP3   OH261578   1.439   4.893   4.764  0.5241 -0.2748  0.3435
13388TIP3    H161579   1.396   4.933   4.840 -0.3883 -2.3051  0.9873
13388TIP3    H261580   1.383   4.818   4.742  1.6455 -0.6811 -1.3251
13389TIP3   OH261581   4.945   2.938   2.574  0.4446 -0.6428 -0.3199
13389TIP3    H161582   4.924   2.845   2.569  0.0544 -0.5784  0.0342
13389TIP3    H261583   5.034   2.945   2.539 -0.1442 -0.9096 -1.9330
13390TIP3   OH261584   1.837   5.124  13.547  0.2650  0.0240  0.3073
13390TIP3    H161585   1.743   5.109  13.534  0.1493  1.1679 -0.3362
13390TIP3    H261586   1.841   5.195  13.611  0.6308  1.1299 -0.8927
13391TIP3   OH261587   4.346   3.771  12.843 -0.6863  0.3002 -0.0183
13391TIP3    H161588   4.326   3.691  12.891 -1.0985  1.1782  1.3417
13391TIP3    H261589   4.306   3.758  12.757  1.1462 -1.8239 -0.6359
13392TIP3   OH261590   2.075   0.063   0.590  0.5248  0.2302 -0.2497
13392TIP3    H161591   2.153   0.062   0.646  0.5628 -1.1055 -0.2940
13392TIP3    H261592   2.103   0.018   0.510 -0.1592  0.1721 -0.4633
13393TIP3   OH261593   2.590   5.810   2.637 -0.5000 -0.7240  0.3522
13393TIP3    H161594   2.638   5.860   2.703 -1.4991  0.7253  0.0585
13393TIP3    H261595   2.635   5.727   2.631  0.5007 -0.3200  1.7912
13394TIP3   OH261596   0.398   3.071   4.213  0.0943  0.4856  0.1402
13394TIP3    H161597   0.434   3.044   4.129  0.2301  0.6946  0.1315
13394TIP3    H261598   0.471   3.112   4.259  0.1438 -0.0383  0.5453
13395TIP3   OH261599   3.997   0.713   3.951 -0.3341 -0.2520  0.3906
13395TIP3    H161600   3.983   0.787   3.891 -1.5632  0.6653  1.7001
13395TIP3    H261601   4.091   0.699   3.951  0.0018  1.6351  0.3927
13396TIP3   OH261602   5.946   5.478  15.441 -0.0038 -0.0129 -0.1391
13396TIP3    H161603   5.913   5.477  15.531  0.9457 -0.9275  0.2212
13396TIP3    H261604   5.895   5.546  15.397 -1.2635 -0.3098  0.7993
13397TIP3   OH261605   6.323   0.298  11.631  0.4469 -0.0206  0.0989
13397TIP3    H161606   6.244   0.315  11.580 -0.1836 -2.0720  0.3063
13397TIP3    H261607   6.392   0.346  11.584 -0.3628 -0.6572 -1.8509
13398TIP3   OH261608   0.183   2.103   6.439 -0.2794  0.4523 -0.6156
13398TIP3    H161609   0.147   2.064   6.518 -1.6182  2.1383 -0.3503
13398TIP3    H261610   0.262   2.149   6.468 -0.0651  0.0316 -0.5123
13399TIP3   OH261611   4.058   3.940   2.691 -0.0330  0.2514 -0.2969
13399TIP3    H161612   4.084   3.895   2.771 -1.2575  0.0473  0.0060
13399TIP3    H261613   4.045   3.871   2.627  0.9051  0.4119 -0.6795
13400TIP3   OH261614   6.406   5.211   0.733 -0.3406  0.4056  0.5651
13400TIP3    H161615   6.448   5.186   0.815 -1.8322 -1.5241  0.8004
13400TIP3    H261616   6.385   5.304   0.745  0.3104  0.3985  1.9886
13401TIP3   OH261617   4.987   1.238   2.013 -0.2887 -0.1649 -0.4184
13401TIP3    H161618   4.892   1.248   2.010 -0.0389  3.5599 -3.4273
13401TIP3    H261619   5.015   1.289   2.089 -0.6386 -0.2401 -0.2398
13402TIP3   OH261620   6.589   0.866   3.882 -0.6830 -0.2334 -0.2653
13402TIP3    H161621   6.525   0.937   3.889 -0.4142 -0.0664  0.6758
13402TIP3    H261622   6.667   0.907   3.845 -0.5635 -0.0530  0.1779
13403TIP3   OH261623   5.487   0.617   0.879 -0.3924  0.2041  0.2162
13403TIP3    H161624   5.481   0.702   0.922 -1.5443  0.4273 -0.3370
13403TIP3    H261625   5.466   0.635   0.787  2.3524 -0.1972 -0.5818
13404TIP3   OH261626   3.846   0.510  15.299  0.1231 -0.1241  0.4399
13404TIP3    H161627   3.804   0.520  15.214  1.1656  2.3231  0.1298
13404TIP3    H261628   3.788   0.554  15.360  0.1451 -0.5063  0.7420
13405TIP3   OH261629   6.633   3.750  13.073  0.0228 -0.1595 -0.1055
13405TIP3    H161630   6.693   3.731  13.145  0.4240 -2.4073 -0.9702
13405TIP3    H261631   6.567   3.809  13.111  0.4183 -1.0002  1.9873
13406TIP3   OH261632   6.268   5.595   5.883 -0.1963 -0.7055 -0.3850
13406TIP3    H161633   6.319   5.645   5.820 -1.2942  0.8298 -0.1231
13406TIP3    H261634   6.203   5.549   5.831 -2.3404  2.0427 -0.3694
13407TIP3   OH261635   4.680   5.122  12.501  0.1227  0.2485 -0.1981
13407TIP3    H161636   4.691   5.217  12.502  2.3901  0.0376  0.4121
13407TIP3    H261637   4.592   5.107  12.537  0.2599  2.0459  1.0018
13408TIP3   OH261638   3.463   6.731  15.275 -0.4192  0.1858  0.5927
13408TIP3    H161639   3.411   6.665  15.230 -0.7754 -0.8657  2.4537
13408TIP3    H261640   3.441   6.813  15.231 -0.7524 -0.7758 -1.0989
13409TIP3   OH261641   3.540   0.174  13.499  0.0013 -0.1423  0.1988
13409TIP3    H161642   3.550   0.238  13.569  0.7177 -0.2386  0.1905
13409TIP3    H261643   3.453   0.190  13.463 -0.8044 -0.7763  1.7979
13410TIP3   OH261644   4.135   4.382   2.179 -0.0382  0.1089 -0.4607
13410TIP3    H161645   4.113   4.345   2.094 -4.1175 -1.2938  0.9545
13410TIP3    H261646   4.201   4.323   2.215  0.2571 -0.4303 -1.8251
13411TIP3   OH261647   1.821   2.266  12.195 -0.1170 -0.1730  0.5814
13411TIP3    H161648   1.741   2.245  12.146 -1.6515  0.4414  2.6928
13411TIP3    H261649   1.878   2.190  12.181 -0.4793 -0.0597 -2.0299
13412TIP3   OH261650   6.133   5.259  15.966 -0.3721  0.1444  0.5664
13412TIP3    H161651   6.088   5.330  16.011 -0.7769  0.5720 -0.4870
13412TIP3    H261652   6.194   5.303  15.906 -0.6492 -0.3844 -0.1181
13413TIP3   OH261653   4.486   3.745  15.327  0.9318  0.1985  0.1260
13413TIP3    H161654   4.450   3.663  15.361 -1.2754  1.3628  0.7192
13413TIP3    H261655   4.546   3.775  15.395  2.3818 -1.2361 -0.4261
13414TIP3   OH261656   2.070   1.943   0.526  0.0604 -0.3862 -0.2499
13414TIP3    H161657   2.014   2.015   0.501 -2.7083 -2.3651 -0.1673
13414TIP3    H261658   2.121   1.976   0.600  0.9200  2.2549 -1.9087
13415TIP3   OH261659   1.118   6.559   0.446 -0.2152  0.0341 -0.2603
13415TIP3    H161660   1.141   6.617   0.519 -2.8278 -0.7490  1.3554
13415TIP3    H261661   1.186   6.492   0.447 -0.5907 -0.4123  2.0769
13416TIP3   OH261662   0.925   5.740   1.923 -0.4665  0.0920 -0.2994
13416TIP3    H161663   0.955   5.739   1.832  0.0030  0.1232 -0.1475
13416TIP3    H261664   0.935   5.649   1.953  0.2336  0.2548 -0.0105
13417TIP3   OH261665   6.166   1.727   0.950 -0.9273 -0.1638  0.0838
13417TIP3    H161666   6.155   1.691   0.862  0.5740  0.4439 -0.3902
13417TIP3    H261667   6.235   1.673   0.990 -0.6347  0.4235  0.3823
13418TIP3   OH261668   3.161   2.675  14.196  0.1203  0.5995  0.0092
13418TIP3    H161669   3.147   2.580  14.186  1.6410  0.5036 -1.6098
13418TIP3    H261670   3.075   2.709  14.220 -0.5602 -1.1436  0.1922
13419TIP3   OH261671   1.880   5.989  15.380 -0.2109 -0.2120 -0.7472
13419TIP3    H161672   1.928   5.916  15.341 -0.4313 -1.4086  1.1038
13419TIP3    H261673   1.793   5.984  15.340 -0.0325 -0.5787 -1.0998
13420TIP3   OH261674   3.523   0.165   4.736 -0.1590 -0.3714 -0.4437
13420TIP3    H161675   3.471   0.233   4.780  0.7367 -0.7297  1.2599
13420TIP3    H261676   3.606   0.207   4.717  0.2722 -0.8638  0.2972
13421TIP3   OH261677   2.309   3.780   2.145 -0.5777 -0.2125 -0.4948
13421TIP3    H161678   2.392   3.756   2.103 -0.9020 -0.4010 -1.0455
13421TIP3    H261679   2.311   3.875   2.151 -0.0922 -0.2527 -0.0230
13422TIP3   OH261680   6.030   5.680   5.661 -0.0947  0.3273 -0.8937
13422TIP3    H161681   6.066   5.755   5.613 -0.4076 -0.3630 -2.2526
13422TIP3    H261682   6.064   5.603   5.615  0.8505 -0.4209  0.9457
13423TIP3   OH261683   2.178   5.956  13.975 -0.4394 -0.4089  0.3338
13423TIP3    H161684   2.209   5.994  14.057 -1.5412 -0.1719  0.6551
13423TIP3    H261685   2.155   6.032  13.921 -0.5711 -0.5822  0.1443
13424TIP3   OH261686   5.690   4.093   2.090  0.5757  0.3422  0.6864
13424TIP3    H161687   5.684   4.078   1.996  1.1824  0.9503  0.5468
13424TIP3    H261688   5.716   4.185   2.098 -1.7420  1.0012  1.4922
13425TIP3   OH261689   5.534   5.031  13.788 -0.6524 -0.0624 -0.5509
13425TIP3    H161690   5.537   5.005  13.696 -0.1398 -0.3314 -0.4649
13425TIP3    H261691   5.483   4.963  13.832 -0.7280 -0.0379 -0.6013
13426TIP3   OH261692   5.695   5.978  14.493  0.0659  0.6329 -0.2353
13426TIP3    H161693   5.614   5.928  14.487  1.6519 -2.0230 -0.8943
13426TIP3    H261694   5.731   5.955  14.578  0.5226  1.1893 -0.2716
13427TIP3   OH261695   4.408   3.896   1.088  0.3503  0.1374 -0.6153
13427TIP3    H161696   4.386   3.832   1.156  1.9210  0.8080  0.5939
13427TIP3    H261697   4.337   3.961   1.092 -0.5512 -0.8039 -0.9425
13428TIP3   OH261698   0.957   4.355   3.195 -0.1260 -0.3407  0.2778
13428TIP3    H161699   0.972   4.398   3.279 -2.2519 -1.0995  1.1398
13428TIP3    H261700   1.001   4.270   3.203  0.7225  0.0871  0.1394
13429TIP3   OH261701   0.280   4.486   5.982  0.7093  0.3245  0.2991
13429TIP3    H161702   0.369   4.495   6.015  0.8094  1.0544 -0.1531
13429TIP3    H261703   0.224   4.495   6.059  1.0826 -3.0651  1.1291
13430TIP3   OH261704   0.932   3.835   4.852  0.5193 -0.1463 -0.0785
13430TIP3    H161705   0.846   3.861   4.883  0.6039  2.1098 -1.5307
13430TIP3    H261706   0.945   3.747   4.887 -2.1614 -0.3535  0.5547
13431TIP3   OH261707   5.977   4.190   3.917  0.2641  0.8155 -0.1780
13431TIP3    H161708   5.906   4.125   3.908  0.8548  0.0168  0.7399
13431TIP3    H261709   5.968   4.245   3.840 -0.6246 -0.0032 -0.6899
13432TIP3   OH261710   4.896   1.049   5.152 -0.1102  0.0975 -0.5252
13432TIP3    H161711   4.935   0.963   5.138  0.1107 -0.3194  2.2200
13432TIP3    H261712   4.802   1.033   5.160 -0.2520  0.3521 -1.5084
13433TIP3   OH261713   4.841   0.718   2.705 -0.7679  0.5575  0.1947
13433TIP3    H161714   4.883   0.754   2.626 -3.3394  0.5781 -1.2925
13433TIP3    H261715   4.849   0.623   2.695  0.7691  0.5770  1.0425
13434TIP3   OH261716   3.093   1.087  10.864 -0.2362 -0.1064  0.8180
13434TIP3    H161717   3.187   1.068  10.861 -0.7394 -3.1187 -0.3363
13434TIP3    H261718   3.086   1.179  10.840  2.3249 -0.4804 -2.1241
13435TIP3   OH261719   4.875   3.936  14.318 -0.2789  0.4577  0.8120
13435TIP3    H161720   4.841   3.951  14.230  0.1567 -0.6331  0.4440
13435TIP3    H261721   4.860   3.843  14.335  0.7184  0.3862  1.4140
13436TIP3   OH261722   5.286   5.640  17.051 -0.1874 -0.1965 -0.3351
13436TIP3    H161723   5.266   5.575  16.983  0.3986 -0.4031 -0.3138
13436TIP3    H261724   5.225   5.621  17.122 -0.3231 -0.4326 -0.5177
13437TIP3   OH261725   1.051   6.355  15.478  0.6003  0.5277 -0.0833
13437TIP3    H161726   1.125   6.360  15.417  1.8070  1.1857  1.3577
13437TIP3    H261727   0.979   6.398  15.432  1.5073  1.1355 -0.9880
13438TIP3   OH261728   1.702   3.684   2.739  0.5928  0.0988 -0.2892
13438TIP3    H161729   1.635   3.615   2.739  0.0752  0.5890  0.9258
13438TIP3    H261730   1.784   3.637   2.752  0.3036 -0.3352  0.0059
13439TIP3   OH261731   2.425   2.779   6.185  0.4085 -0.0847 -0.1515
13439TIP3    H161732   2.480   2.856   6.200  2.1142 -1.4801  1.1109
13439TIP3    H261733   2.422   2.734   6.270 -0.9757 -1.1722 -0.7235
13440TIP3   OH261734   1.413   2.241   4.633  0.1314 -0.0593 -0.0360
13440TIP3    H161735   1.410   2.325   4.679  0.4975  0.0246 -0.1588
13440TIP3    H261736   1.322   2.219   4.616  0.0581  0.6014 -0.5203
13441TIP3   OH261737   0.157   5.354   3.791 -0.2079 -0.5921  0.5898
13441TIP3    H161738   0.133   5.380   3.880 -1.0328 -1.5371  0.6588
13441TIP3    H261739   0.206   5.429   3.757  0.5660 -0.4128  2.0070
13442TIP3   OH261740   0.426   5.277   0.298 -0.4104  0.3502 -0.0505
13442TIP3    H161741   0.438   5.362   0.255  1.4444 -0.6139 -1.5597
13442TIP3    H261742   0.515   5.247   0.317 -1.0328 -1.2710  0.4262
13443TIP3   OH261743   3.099   6.214   5.113  0.5070 -0.3123 -0.3556
13443TIP3    H161744   3.009   6.214   5.147  0.2541 -1.1581 -1.0014
13443TIP3    H261745   3.154   6.211   5.191  0.0308  1.5748  0.1267
13444TIP3   OH261746   2.294   6.206  17.391  0.8778 -0.6693  0.5418
13444TIP3    H161747   2.225   6.157  17.436  0.3042  1.2809  1.8994
13444TIP3    H261748   2.248   6.256  17.323  1.2768 -0.9394  0.0597
13445TIP3   OH261749   3.900   0.071  10.810 -0.6258  0.6424  0.0811
13445TIP3    H161750   3.875  -0.007  10.860  0.3093  0.5894  0.4806
13445TIP3    H261751   3.841   0.070  10.735  0.0929 -1.0761 -0.5119
13446TIP3   OH261752   4.917   3.878  12.820 -0.1682 -0.7132  0.1282
13446TIP3    H161753   4.921   3.817  12.746  0.0548  0.8473 -1.2195
13446TIP3    H261754   4.908   3.964  12.779 -1.2552  0.1146  1.9724
13447TIP3   OH261755   5.996   1.239   1.861 -0.4967  0.3859  0.8272
13447TIP3    H161756   6.086   1.263   1.884  0.1379 -0.3897 -0.6963
13447TIP3    H261757   5.945   1.318   1.879  0.6064  1.0509  1.1140
13448TIP3   OH261758   6.370   3.334   0.523 -0.1080 -0.2096  0.6882
13448TIP3    H161759   6.417   3.258   0.556  1.8564  0.1814 -1.0267
13448TIP3    H261760   6.432   3.407   0.530 -0.7612  0.5442 -0.7389
13449TIP3   OH261761   3.474   5.592  15.535 -0.2949  0.4695 -0.2380
13449TIP3    H161762   3.512   5.585  15.447 -0.7637 -0.1206 -0.4026
13449TIP3    H261763   3.509   5.674  15.570 -0.9535  1.2537 -1.3776
13450TIP3   OH261764   4.464   4.693  14.627  0.3737 -1.2143  0.3795
13450TIP3    H161765   4.456   4.597  14.627  1.0307 -1.2986 -0.7906
13450TIP3    H261766   4.376   4.724  14.603  0.1575 -1.5266  0.7614
13451TIP3   OH261767   5.278   5.157  14.498 -0.7904  0.1482 -0.1263
13451TIP3    H161768   5.370   5.181  14.483 -1.0698  1.3230 -0.0520
13451TIP3    H261769   5.270   5.068  14.462  0.4697 -0.1373  0.2434
13452TIP3   OH261770   1.998   5.550   6.257 -0.0594  0.5761 -0.2464
13452TIP3    H161771   1.924   5.516   6.207  0.4000  0.1361 -0.6466
13452TIP3    H261772   1.982   5.519   6.347  1.7965 -3.4059 -1.0638
13453TIP3   OH261773   1.316   5.864  14.824 -0.4216 -0.2607 -0.0731
13453TIP3    H161774   1.302   5.933  14.760  0.2238 -1.1022 -1.1582
13453TIP3    H261775   1.334   5.785  14.772  0.9213 -0.7966  1.1161
13454TIP3   OH261776   2.579   6.137  14.926  0.3757  0.0071 -0.0539
13454TIP3    H161777   2.489   6.107  14.921  0.5194 -0.2150 -1.8053
13454TIP3    H261778   2.629   6.070  14.880  1.5515 -0.2139  1.4548
13455TIP3   OH261779   0.241   5.883  15.272 -0.2821  0.3143 -0.2235
13455TIP3    H161780   0.146   5.870  15.264 -0.2920 -0.1075  0.4317
13455TIP3    H261781   0.268   5.917  15.187 -0.7323 -1.3603 -1.0818
13456TIP3   OH261782   1.685   1.372   3.050  0.0384  0.2326  0.3950
13456TIP3    H161783   1.613   1.433   3.035 -0.2147 -0.1943 -0.1640
13456TIP3    H261784   1.644   1.286   3.047  0.6046 -0.0273 -0.1322
13457TIP3   OH261785   4.526   3.740  15.028 -0.2782 -1.0177  0.0203
13457TIP3    H161786   4.570   3.655  15.024  0.0239 -0.8264 -1.5694
13457TIP3    H261787   4.552   3.777  15.112  2.0201 -1.2402 -0.5295
13458TIP3   OH261788   3.292   2.971   3.618  0.4985  0.0095  0.3064
13458TIP3    H161789   3.303   2.877   3.606  0.6337 -0.1625  1.6017
13458TIP3    H261790   3.338   3.011   3.544  1.4681 -0.9205  0.3887
13459TIP3   OH261791   1.986   2.074   6.333 -0.2535 -0.6954  0.1164
13459TIP3    H161792   2.065   2.127   6.347  0.1670 -1.4797  0.8428
13459TIP3    H261793   1.947   2.067   6.420 -1.9484  0.8922 -0.4550
13460TIP3   OH261794   1.635   1.403  12.488 -0.6648  0.5446 -0.2433
13460TIP3    H161795   1.676   1.337  12.544  0.4924 -0.0119 -1.6716
13460TIP3    H261796   1.561   1.436  12.539  1.0417  0.9730  2.1355
13461TIP3   OH261797   4.986   4.752   0.657 -0.5497 -0.0026  0.8778
13461TIP3    H161798   5.081   4.761   0.656 -0.5029  0.1608  2.6585
13461TIP3    H261799   4.955   4.832   0.699 -1.2973 -0.9047  2.1405
13462TIP3   OH261800   6.314   4.425  15.511  0.2525 -0.5703  0.0521
13462TIP3    H161801   6.230   4.380  15.518 -1.2145  1.8730 -0.5529
13462TIP3    H261802   6.338   4.418  15.419  1.0453 -1.7604  0.3320
13463TIP3   OH261803   5.896   6.601  12.143 -0.1350 -0.2920  0.0422
13463TIP3    H161804   5.824   6.591  12.206 -0.8490  0.6688 -0.5690
13463TIP3    H261805   5.920   6.694  12.149 -0.2644 -0.1622 -1.1239
13464TIP3   OH261806   4.453   3.129  16.028  0.2040 -0.4095  0.2191
13464TIP3    H161807   4.450   3.091  15.940 -1.6123  0.2869 -0.0666
13464TIP3    H261808   4.460   3.223  16.013 -2.5761 -0.0518  0.6932
13465TIP3   OH261809   4.877   1.495   0.585 -0.0633 -0.0602  0.6939
13465TIP3    H161810   4.971   1.489   0.603 -0.4401  0.2797  3.0879
13465TIP3    H261811   4.872   1.535   0.499  2.0153  2.6199  1.6735
13466TIP3   OH261812   3.816   2.277   3.045 -0.5206 -0.0047  0.3632
13466TIP3    H161813   3.862   2.359   3.025 -1.6727  0.1336 -2.0969
13466TIP3    H261814   3.738   2.305   3.094  0.3508  0.0800  1.7350
13467TIP3   OH261815   2.620   1.728   5.855 -0.0742  0.0249  0.5244
13467TIP3    H161816   2.553   1.788   5.822  1.1947  0.9588 -0.4680
13467TIP3    H261817   2.700   1.780   5.858  0.6137 -1.0208  1.8009
13468TIP3   OH261818   5.918   6.424  16.157  0.4522  0.4159 -0.0256
13468TIP3    H161819   5.922   6.434  16.062  1.4430  0.8282  0.0446
13468TIP3    H261820   5.997   6.375  16.179  1.2397  1.9779  0.7603
13469TIP3   OH261821   1.522   2.581   2.241  0.2967 -0.1785  0.4690
13469TIP3    H161822   1.528   2.617   2.329  3.7817  0.1967  0.2124
13469TIP3    H261823   1.454   2.632   2.198 -1.1078 -0.0200  2.7177
13470TIP3   OH261824   5.452   3.926  13.550 -0.3596 -0.2475  0.1024
13470TIP3    H161825   5.444   3.910  13.456 -1.2011  0.3110  0.0577
13470TIP3    H261826   5.450   3.839  13.590 -0.7501 -0.4569 -0.3568
13471TIP3   OH261827   3.777   3.065   6.720 -0.0837  0.0112  0.0217
13471TIP3    H161828   3.812   3.094   6.805 -0.5511 -1.3716  0.7148
13471TIP3    H261829   3.786   2.970   6.722 -0.9366 -0.1051 -1.1149
13472TIP3   OH261830   3.847   6.694  12.102 -0.0227 -0.3627  0.2420
13472TIP3    H161831   3.909   6.742  12.047 -1.3286  1.8167  0.5818
13472TIP3    H261832   3.782   6.660  12.040 -0.0042 -0.2755  0.1743
13473TIP3   OH261833   4.507   3.460   1.519  0.2524  0.2314 -0.1756
13473TIP3    H161834   4.484   3.478   1.428  1.5130  0.0880 -0.5349
13473TIP3    H261835   4.431   3.490   1.569  0.4056  2.2847 -1.1015
13474TIP3   OH261836   5.193   0.133  17.262 -0.1806 -0.1815 -0.1125
13474TIP3    H161837   5.257   0.197  17.231 -0.7332  0.2768 -0.3245
13474TIP3    H261838   5.234   0.048  17.245  0.0609  0.0875 -0.9274
13475TIP3   OH261839   1.911   6.248   3.045 -0.1099  0.0967 -0.5878
13475TIP3    H161840   1.972   6.284   3.109  1.0201 -0.2482 -1.4432
13475TIP3    H261841   1.947   6.274   2.960  0.3875 -2.4257 -1.2274
13476TIP3   OH261842   6.117   3.249  14.749 -0.3194  0.2554 -0.0088
13476TIP3    H161843   6.140   3.246  14.656 -1.1768  0.7357 -0.2507
13476TIP3    H261844   6.022   3.237  14.750 -0.1211 -1.6633  0.9374
13477TIP3   OH261845   1.289   3.264   1.597 -0.0306  0.4042 -0.8589
13477TIP3    H161846   1.366   3.249   1.651  0.2247  1.3481 -0.9380
13477TIP3    H261847   1.290   3.358   1.579 -1.4691  0.5270 -0.4450
13478TIP3   OH261848   1.115   1.108  16.158  0.4175  0.0429 -0.2436
13478TIP3    H161849   1.133   1.018  16.131 -0.6590  0.3246 -2.1506
13478TIP3    H261850   1.025   1.106  16.190  0.2620  0.4827 -0.6299
13479TIP3   OH261851   2.328   1.577   3.520  0.9368 -0.1395  0.1430
13479TIP3    H161852   2.344   1.662   3.562  0.3085 -0.1588  0.4323
13479TIP3    H261853   2.391   1.574   3.448  0.8317  0.6698 -0.0012
13480TIP3   OH261854   0.494   5.532   0.186 -0.0244  0.0507  0.0256
13480TIP3    H161855   0.577   5.546   0.232 -1.7161  0.3874  3.2734
13480TIP3    H261856   0.461   5.620   0.168 -0.4663 -0.0340  0.3854
13481TIP3   OH261857   0.832   0.068   6.015  0.1415 -0.1724 -0.7412
13481TIP3    H161858   0.870   0.003   6.074  0.2064 -1.4428 -2.0892
13481TIP3    H261859   0.744   0.035   5.997  0.0949  0.2255 -1.2786
13482TIP3   OH261860   0.388   1.568   4.720  0.1044  0.1711  0.0515
13482TIP3    H161861   0.431   1.512   4.785  1.5414 -0.4096 -1.3374
13482TIP3    H261862   0.446   1.644   4.711 -0.2785  0.4310 -0.2628
13483TIP3   OH261863   1.329   1.053  13.446 -0.5365  0.3358  0.0681
13483TIP3    H161864   1.371   1.139  13.456 -2.8673  1.8156 -1.6548
13483TIP3    H261865   1.286   1.038  13.530  0.5440  0.4505  0.6578
13484TIP3   OH261866   1.528   5.601   0.266  0.1353 -0.0758  0.4239
13484TIP3    H161867   1.479   5.590   0.185  0.6400  1.6771 -0.1590
13484TIP3    H261868   1.594   5.532   0.264  0.6423  0.4178 -1.0546
13485TIP3   OH261869   5.464   6.289   5.794  0.3838  0.0818 -0.1886
13485TIP3    H161870   5.389   6.315   5.848  0.7242  1.4965 -0.3528
13485TIP3    H261871   5.425   6.269   5.709  0.1061  0.0442 -0.0566
13486TIP3   OH261872   0.581   1.774  11.887  0.7427 -0.9692 -0.1346
13486TIP3    H161873   0.533   1.844  11.931  1.2168 -0.6249 -0.1592
13486TIP3    H261874   0.532   1.760  11.805  1.1274 -0.0700 -0.5325
13487TIP3   OH261875   3.461   3.307  14.507  0.0087  0.3964 -0.0908
13487TIP3    H161876   3.502   3.298  14.593  0.5952  1.6349 -0.2237
13487TIP3    H261877   3.482   3.396  14.479  0.5112 -0.2261 -1.8725
13488TIP3   OH261878   2.758   1.792  11.873 -0.3398 -0.7032 -0.0577
13488TIP3    H161879   2.724   1.702  11.873 -0.5795 -0.6720 -2.1972
13488TIP3    H261880   2.806   1.799  11.791 -0.7515  1.2704 -0.1775
13489TIP3   OH261881   4.833   2.877   1.255 -0.0435 -0.3551  0.6610
13489TIP3    H161882   4.918   2.862   1.214 -0.6275 -0.4933 -0.5498
13489TIP3    H261883   4.853   2.893   1.347  1.4502  1.2671  0.1167
13490TIP3   OH261884   6.631   4.991   4.194 -0.8054 -0.2848  0.1403
13490TIP3    H161885   6.665   4.904   4.173  2.0247  0.9772 -0.9793
13490TIP3    H261886   6.643   4.999   4.288  0.3411 -0.6065  0.0420
13491TIP3   OH261887   0.074   6.191  10.815 -0.2959  0.1558  0.1789
13491TIP3    H161888   0.147   6.155  10.764 -0.8423 -0.8211  0.0563
13491TIP3    H261889   0.051   6.272  10.769  1.1610  0.8803  0.6376
13492TIP3   OH261890   2.747   0.620  12.296 -0.1352 -0.0944  0.7327
13492TIP3    H161891   2.814   0.591  12.357  1.9458 -0.3337 -1.4975
13492TIP3    H261892   2.751   0.715  12.299  1.5610 -0.0715 -0.5420
13493TIP3   OH261893   5.672   5.524  15.093 -0.1468 -0.5925 -0.5011
13493TIP3    H161894   5.754   5.495  15.054 -0.9782 -1.2901 -1.8103
13493TIP3    H261895   5.693   5.607  15.136  1.0585 -0.3368 -1.5319
13494TIP3   OH261896   3.759   4.588  16.677 -0.5352  0.5923 -0.0834
13494TIP3    H161897   3.671   4.616  16.703 -0.3983  0.9547 -0.0111
13494TIP3    H261898   3.749   4.494  16.659 -0.6606  0.3358  1.1957
13495TIP3   OH261899   5.576   5.390   0.114  0.0411  0.1949  0.4026
13495TIP3    H161900   5.543   5.338   0.040 -1.9668 -0.6487  1.8189
13495TIP3    H261901   5.510   5.458   0.127  0.6084  0.6208  1.1346
13496TIP3   OH261902   3.414   5.128  16.107  0.1988  0.2779  0.2973
13496TIP3    H161903   3.491   5.112  16.161 -0.3855  0.4420  1.2014
13496TIP3    H261904   3.443   5.189  16.039  1.0486 -0.2650  0.1614
13497TIP3   OH261905   6.623   1.541   6.114 -0.0429  0.2250  0.2338
13497TIP3    H161906   6.625   1.447   6.133 -1.0393  0.3270  0.9768
13497TIP3    H261907   6.549   1.551   6.054 -0.7919  0.6876  1.2105
13498TIP3   OH261908   2.464   2.634   2.080 -0.5072 -0.2456 -0.0366
13498TIP3    H161909   2.380   2.590   2.089 -1.4913  1.5417  0.1094
13498TIP3    H261910   2.463   2.701   2.149  1.2417 -0.4880  0.2636
13499TIP3   OH261911   0.929   3.542   3.807 -0.3824 -0.4618  0.1724
13499TIP3    H161912   0.924   3.544   3.903  1.0979 -1.7703  0.3175
13499TIP3    H261913   0.952   3.451   3.786  0.1414 -0.0093 -1.3778
13500TIP3   OH261914   1.724   6.569   4.860 -0.0863 -0.5414  0.0253
13500TIP3    H161915   1.674   6.488   4.854  1.9990 -1.8545 -0.3313
13500TIP3    H261916   1.678   6.630   4.801 -3.1030 -0.5741  2.0930
13501TIP3   OH261917   3.588   4.825  17.283  0.6297 -0.0811 -0.0131
13501TIP3    H161918   3.500   4.858  17.296  0.7299 -0.1183  0.8324
13501TIP3    H261919   3.642   4.904  17.270  0.6564  0.0195  0.6691
13502TIP3   OH261920   0.197   3.073   0.867  0.4291  0.0587 -0.3822
13502TIP3    H161921   0.240   3.004   0.918 -0.6741  0.1877  0.7588
13502TIP3    H261922   0.266   3.106   0.809  2.0087  0.5345  1.6582
13503TIP3   OH261923   4.957   3.001  14.885  0.5117 -0.3410  0.5686
13503TIP3    H161924   5.000   3.062  14.945  0.2434 -1.3270  1.8158
13503TIP3    H261925   4.864   3.006  14.907  0.2228  0.2708 -0.7115
13504TIP3   OH261926   1.309   3.210   2.844 -0.0500  0.2808 -0.0959
13504TIP3    H161927   1.320   3.127   2.798  0.8351  0.5933 -0.4611
13504TIP3    H261928   1.255   3.264   2.786 -0.6986 -0.0551  0.1800
13505TIP3   OH261929   1.842   1.540  13.103 -0.2210 -0.0936  0.2475
13505TIP3    H161930   1.843   1.447  13.080 -1.4045  0.3995 -2.1642
13505TIP3    H261931   1.762   1.552  13.153  1.2739 -0.7806  2.9900
13506TIP3   OH261932   0.790   1.727  11.708  0.2410  0.4831 -0.1711
13506TIP3    H161933   0.767   1.661  11.774 -1.1550 -0.5858 -1.6434
13506TIP3    H261934   0.717   1.788  11.709 -1.4001 -1.2289 -2.7418
13507TIP3   OH261935   2.270   6.304  11.554  0.0774  0.2802 -0.2426
13507TIP3    H161936   2.267   6.344  11.641  1.7309  4.4472 -1.8419
13507TIP3    H261937   2.178   6.295  11.528 -0.4873 -1.7898  2.0706
13508TIP3   OH261938   5.267   5.534   1.545 -0.2169  0.2791 -0.5025
13508TIP3    H161939   5.295   5.442   1.542  0.6207  0.4522  0.8491
13508TIP3    H261940   5.313   5.576   1.473  2.6930  0.4163  1.2755
13509TIP3   OH261941   3.119   0.594  16.671 -0.3199 -0.9086 -0.0724
13509TIP3    H161942   3.058   0.589  16.745 -1.5207 -0.5259 -1.0094
13509TIP3    H261943   3.206   0.591  16.711 -0.9008  1.5013  1.5246
13510TIP3   OH261944   0.373   4.726   1.566 -0.1971  0.7460 -0.3305
13510TIP3    H161945   0.385   4.701   1.658  1.2835  0.6060 -0.5442
13510TIP3    H261946   0.456   4.703   1.524 -0.9358  0.6024 -1.7543
13511TIP3   OH261947   6.202   1.591   0.712 -0.1368 -0.2372 -0.0722
13511TIP3    H161948   6.169   1.505   0.687  0.4294 -1.4730  2.9631
13511TIP3    H261949   6.280   1.604   0.658 -0.0692 -1.7822 -0.3967
13512TIP3   OH261950   6.152   4.117   1.303  0.3251 -0.2694 -0.2189
13512TIP3    H161951   6.078   4.059   1.285  0.4246 -0.5319  0.2222
13512TIP3    H261952   6.226   4.075   1.259  0.3970 -0.4808  0.0998
13513TIP3   OH261953   4.044   3.814  14.464  0.3196  0.0406  0.4704
13513TIP3    H161954   4.093   3.891  14.437  2.4724 -0.6919  1.9606
13513TIP3    H261955   4.009   3.836  14.550  0.2825 -0.3818  0.5672
13514TIP3   OH261956   1.306   0.472  13.271  0.0573 -0.0112  0.1842
13514TIP3    H161957   1.374   0.436  13.328  1.0104 -3.0235 -2.5417
13514TIP3    H261958   1.328   0.439  13.184 -1.5725  3.8978 -1.9485
13515TIP3   OH261959   5.053   4.403   0.857 -0.4676 -0.2753 -0.0174
13515TIP3    H161960   5.108   4.352   0.917 -0.6735 -0.3623  0.1002
13515TIP3    H261961   5.053   4.352   0.776 -2.6213 -1.7664  0.8135
13516TIP3   OH261962   2.077   6.063   1.649 -0.2378  0.3124  0.2610
13516TIP3    H161963   2.160   6.110   1.641  0.4917 -1.2102 -1.8671
13516TIP3    H261964   2.090   5.982   1.600 -2.5343 -0.6355  1.0680
13517TIP3   OH261965   0.229   2.773  13.734 -0.4940  0.0236 -1.5023
13517TIP3    H161966   0.175   2.694  13.734 -1.6031  0.7285  0.1960
13517TIP3    H261967   0.289   2.762  13.808 -0.2761  0.5170 -1.5976
13518TIP3   OH261968   0.115   4.436   5.067 -0.1208 -0.1491  0.3983
13518TIP3    H161969   0.165   4.469   4.992  0.4592 -1.3892  0.2127
13518TIP3    H261970   0.175   4.441   5.140  0.1772 -1.3231  0.2465
13519TIP3   OH261971   1.220   4.281  16.887 -0.9094  0.6211  0.6380
13519TIP3    H161972   1.302   4.247  16.924 -2.0715 -1.3707  1.5040
13519TIP3    H261973   1.151   4.229  16.927 -2.7116  2.7035  0.4714
13520TIP3   OH261974   3.998   3.770   4.870  0.1100  0.2948 -0.3069
13520TIP3    H161975   3.930   3.828   4.904  0.1356  0.4777 -0.5630
13520TIP3    H261976   3.988   3.774   4.775  1.0756  1.0565 -0.3886
13521TIP3   OH261977   6.455   5.613  15.816 -0.0678  0.3617  0.0078
13521TIP3    H161978   6.515   5.687  15.830  0.3970  0.1486 -0.8035
13521TIP3    H261979   6.417   5.629  15.730 -1.3907  0.6255  0.6170
13522TIP3   OH261980   0.667   1.146  16.231 -0.1881  0.2382 -0.2486
13522TIP3    H161981   0.610   1.099  16.291  1.0400 -0.1084  0.6706
13522TIP3    H261982   0.719   1.078  16.189  1.3855  0.7158  0.8664
13523TIP3   OH261983   6.465   2.534   6.120 -0.2913  0.7772  0.1065
13523TIP3    H161984   6.556   2.555   6.138 -0.8761  4.5470 -0.4476
13523TIP3    H261985   6.466   2.497   6.032  0.9244 -2.8158  1.4350
13524TIP3   OH261986   4.866   4.966   1.807 -0.0984 -0.5261  0.5844
13524TIP3    H161987   4.902   4.928   1.727 -1.7492 -1.1249  0.0732
13524TIP3    H261988   4.874   5.061   1.794 -0.0937 -0.6249 -0.1798
13525TIP3   OH261989   1.893   2.956   5.350 -0.0560 -0.1520  0.1007
13525TIP3    H161990   1.840   3.036   5.347 -0.2645 -0.2707  0.6606
13525TIP3    H261991   1.982   2.986   5.335 -0.2756  0.0437 -0.8972
13526TIP3   OH261992   4.591   3.691  15.745 -0.2935  0.0720  0.1757
13526TIP3    H161993   4.619   3.738  15.667  1.3735  0.0211  0.7031
13526TIP3    H261994   4.590   3.599  15.719  1.0742 -0.0325  0.3940
13527TIP3   OH261995   0.330   5.193   2.438  0.6847  0.0462 -0.0580
13527TIP3    H161996   0.286   5.121   2.394  2.8160 -1.7618  0.6058
13527TIP3    H261997   0.398   5.221   2.378  2.3901 -1.1725  1.2190
13528TIP3   OH261998   0.205   4.941   2.956  0.5968 -0.7847 -0.1500
13528TIP3    H161999   0.284   4.970   3.002  0.0969 -1.6924  1.3231
13528TIP3    H262000   0.147   5.017   2.958  1.1683 -0.3123 -0.6987
13529TIP3   OH262001   6.566   1.965  14.059 -0.4653  0.4679  0.3449
13529TIP3    H162002   6.587   2.047  14.015 -1.0849 -0.8726 -2.6662
13529TIP3    H262003   6.646   1.940  14.105  0.7810  1.1459 -1.4039
13530TIP3   OH262004   4.793   1.106   4.604  0.6264  0.2421 -0.7102
13530TIP3    H162005   4.882   1.110   4.571  1.3587 -0.6337  1.0337
13530TIP3    H262006   4.773   1.196   4.631  1.1821  0.3354 -0.6096
13531TIP3   OH262007   4.615   0.426   0.687 -0.4147  0.2372  0.2027
13531TIP3    H162008   4.590   0.334   0.696 -1.4247  0.6144  1.4675
13531TIP3    H262009   4.711   0.424   0.682 -0.4856 -1.0173 -1.9142
13532TIP3   OH262010   1.779   6.413  11.718 -0.0420 -0.1965  0.0382
13532TIP3    H162011   1.833   6.475  11.767  0.3664  0.4081 -1.1434
13532TIP3    H262012   1.749   6.463  11.642 -0.2421 -1.2560 -0.5897
13533TIP3   OH262013   1.467   2.558   0.654 -0.0776 -0.5018  0.2494
13533TIP3    H162014   1.407   2.622   0.693  0.2551  0.0201 -0.0752
13533TIP3    H262015   1.544   2.609   0.631  0.3443 -1.0977  0.3230
13534TIP3   OH262016   2.978   0.600   0.947  0.0122  0.1681  0.3085
13534TIP3    H162017   3.029   0.598   1.028 -0.3856  0.9624  0.5822
13534TIP3    H262018   2.934   0.514   0.945  0.3032  0.0032  0.7521
13535TIP3   OH262019   3.351   3.693  15.931  0.4812 -0.3770  0.3714
13535TIP3    H162020   3.257   3.708  15.936  0.6450  0.5790  0.6886
13535TIP3    H262021   3.380   3.747  15.857  0.9893  0.4427  1.1528
13536TIP3   OH262022   1.008   4.143   3.558  0.5074 -0.5883 -0.3068
13536TIP3    H162023   1.053   4.059   3.558  1.6727  0.0281 -0.5267
13536TIP3    H262024   1.072   4.205   3.524 -0.4854  0.3206 -0.5626
13537TIP3   OH262025   5.047   3.098  12.890  0.7364  0.8382  0.0370
13537TIP3    H162026   5.120   3.045  12.858 -0.5983 -0.2829 -1.3593
13537TIP3    H262027   5.083   3.149  12.962  2.1444 -2.0205  1.5459
13538TIP3   OH262028   1.850   6.082  11.301  0.6495  0.5761 -0.5679
13538TIP3    H162029   1.930   6.090  11.249  1.3897 -1.4345  0.1470
13538TIP3    H262030   1.882   6.067  11.390 -0.5605  1.0031 -0.0516
13539TIP3   OH262031   5.267   6.682  14.522 -0.3229  0.0104 -0.0964
13539TIP3    H162032   5.354   6.670  14.559  0.3047  0.4884 -1.3802
13539TIP3    H262033   5.270   6.769  14.481 -1.1575 -0.2790 -0.8077
13540TIP3   OH262034   4.276   4.854   5.470  0.1067  0.0658 -0.5215
13540TIP3    H162035   4.366   4.880   5.490  0.8722 -2.0360 -1.0608
13540TIP3    H262036   4.225   4.889   5.544  1.5250  0.2528  0.4151
13541TIP3   OH262037   4.934   6.229  13.189 -0.3700  0.0975 -0.1151
13541TIP3    H162038   4.875   6.243  13.116 -0.7847 -1.8370 -0.1950
13541TIP3    H262039   4.878   6.196  13.260  0.1727  1.0223  0.7708
13542TIP3   OH262040   0.698   0.460   4.881  0.6767 -0.1334  0.3493
13542TIP3    H162041   0.788   0.481   4.857  0.5021  0.4940  0.2493
13542TIP3    H262042   0.649   0.541   4.868  0.0609 -0.5173  0.2333
13543TIP3   OH262043   2.192   2.388  15.545 -0.0855 -0.4686 -0.1228
13543TIP3    H162044   2.145   2.308  15.523 -2.2178  0.5179  0.6251
13543TIP3    H262045   2.143   2.458  15.502  2.2350  0.4228 -1.4854
13544TIP3   OH262046   6.022   3.667  15.220  0.4397  0.3239 -0.0308
13544TIP3    H162047   6.001   3.581  15.258  2.4770 -0.6028 -0.8383
13544TIP3    H262048   5.953   3.682  15.155 -1.4562  0.5958  1.9351
13545TIP3   OH262049   3.227   5.034   1.029 -0.3784 -0.5191  0.5831
13545TIP3    H162050   3.132   5.045   1.031 -0.2776  0.6104  0.1807
13545TIP3    H262051   3.252   5.020   1.120 -0.8752 -0.2183  0.7696
13546TIP3   OH262052   0.565   1.429   4.238  0.3437  0.6409 -0.0923
13546TIP3    H162053   0.583   1.490   4.310 -0.7622  0.9700 -0.0638
13546TIP3    H262054   0.474   1.403   4.252  0.2126  0.4713 -1.1906
13547TIP3   OH262055   1.620   6.667  14.075  0.1420  0.6461  0.0562
13547TIP3    H162056   1.566   6.649  13.998  0.9554 -0.5113 -0.2824
13547TIP3    H262057   1.701   6.705  14.040  0.5980 -0.0726  0.2965
13548TIP3   OH262058   1.746   5.201   3.207  0.8455  0.0321  0.1529
13548TIP3    H162059   1.751   5.108   3.230 -3.6943 -0.9869 -1.8007
13548TIP3    H262060   1.781   5.205   3.118 -0.8858 -0.3977 -0.6089
13549TIP3   OH262061   2.285   5.749  14.680 -0.3184  0.3749 -0.2116
13549TIP3    H162062   2.354   5.734  14.744 -2.4398 -1.2145  1.8441
13549TIP3    H262063   2.291   5.674  14.621 -0.8860 -0.2904  0.5610
13550TIP3   OH262064   5.928   2.336   2.808  0.1535 -0.0200  0.3224
13550TIP3    H162065   5.937   2.253   2.855 -1.7220  0.3383  1.4090
13550TIP3    H262066   5.834   2.348   2.799  0.4210  1.5386 -0.6658
13551TIP3   OH262067   4.506   1.864   1.669  0.5885  0.2003 -0.6200
13551TIP3    H162068   4.438   1.893   1.729 -1.7211 -0.6594 -2.6662
13551TIP3    H262069   4.553   1.795   1.717  0.5814  1.3504  1.1116
13552TIP3   OH262070   0.530   0.283   4.729 -0.3796  0.6005  0.2557
13552TIP3    H162071   0.585   0.338   4.785 -0.4377  1.5618 -0.6066
13552TIP3    H262072   0.508   0.339   4.655 -0.1078 -0.7103 -0.8507
13553TIP3   OH262073   2.507   0.432   2.337  0.2530 -0.5309 -0.0739
13553TIP3    H162074   2.585   0.478   2.306 -0.7458  1.3380  0.0875
13553TIP3    H262075   2.455   0.498   2.383 -1.1177 -1.8785  0.4276
13554TIP3   OH262076   4.762   6.475  11.298 -0.0727  0.2985 -0.4545
13554TIP3    H162077   4.793   6.499  11.211  1.4738  0.8106  0.2068
13554TIP3    H262078   4.672   6.508  11.302  0.1216  0.9803 -1.5647
13555TIP3   OH262079   1.936   4.306   4.577 -0.4868 -0.1719  0.4919
13555TIP3    H162080   1.927   4.214   4.549 -1.2425 -0.1089  0.4968
13555TIP3    H262081   1.846   4.334   4.595 -0.3171  0.7259 -0.0084
13556TIP3   OH262082   6.678   0.276   5.398 -0.4435 -0.7308 -0.5044
13556TIP3    H162083   6.667   0.322   5.481 -0.2875 -0.7142 -0.4936
13556TIP3    H262084   6.672   0.344   5.331 -2.6992 -0.9893 -0.6496
13557TIP3   OH262085   5.839   6.707  14.820 -0.1308 -0.0829 -0.0631
13557TIP3    H162086   5.869   6.686  14.909 -0.6263  0.3761  0.2187
13557TIP3    H262087   5.900   6.661  14.763  1.0199  0.7061  0.4938
13558TIP3   OH262088   0.635   2.931  14.161 -0.6555  0.0611 -0.0743
13558TIP3    H162089   0.545   2.949  14.190 -0.2876 -0.7999  1.7036
13558TIP3    H262090   0.684   3.009  14.187 -0.6842  0.0971 -0.1268
13559TIP3   OH262091   0.880   1.699  13.661  0.2405  0.2641 -0.3613
13559TIP3    H162092   0.814   1.755  13.620 -1.0200 -0.9033 -0.0091
13559TIP3    H262093   0.838   1.667  13.741  2.0175  1.1312  0.9949
13560TIP3   OH262094   4.566   2.363  12.444 -0.6279 -0.6899  0.3004
13560TIP3    H162095   4.639   2.341  12.387  0.0651  0.4888  0.6999
13560TIP3    H262096   4.565   2.458  12.447 -0.0543 -0.6685  2.9428
13561TIP3   OH262097   3.501   1.529  14.343  0.4260 -0.2148  0.0810
13561TIP3    H162098   3.485   1.478  14.423 -0.5875 -2.4529 -1.4458
13561TIP3    H262099   3.557   1.601  14.372 -1.0653 -0.0764  3.0770
13562TIP3   OH262100   3.625   6.733   1.451  0.1549  0.3671  0.1506
13562TIP3    H162101   3.603   6.685   1.531 -0.5176 -0.0483 -0.2681
13562TIP3    H262102   3.697   6.683   1.413  0.0092  0.1533  0.1471
13563TIP3   OH262103   4.308   2.160  17.392 -0.0875 -0.2934  0.1833
13563TIP3    H162104   4.273   2.086  17.441  1.2155 -0.5929  0.7050
13563TIP3    H262105   4.339   2.122  17.310  0.2395 -0.2540  0.2899
13564TIP3   OH262106   6.540   3.900  14.815  0.6080 -0.4619 -1.0239
13564TIP3    H162107   6.492   3.883  14.897 -0.7361  1.6969 -1.2788
13564TIP3    H262108   6.476   3.885  14.746  1.5544 -1.6193 -1.7087
13565TIP3   OH262109   0.803   2.794   2.254 -0.2717 -0.4622 -0.1511
13565TIP3    H162110   0.825   2.821   2.343  1.0420 -2.2808  0.1332
13565TIP3    H262111   0.869   2.835   2.198  0.3922 -1.2698  0.0231
13566TIP3   OH262112   3.275   5.151  17.069  0.4682 -0.2625  0.0288
13566TIP3    H162113   3.296   5.092  16.997 -2.6292 -1.1080 -0.3567
13566TIP3    H262114   3.334   5.225  17.059  0.4355 -0.5463 -3.1541
13567TIP3   OH262115   3.178   3.774  10.737 -0.0932  0.1230  0.1451
13567TIP3    H162116   3.175   3.851  10.681 -0.1042  1.4256  1.8588
13567TIP3    H262117   3.101   3.723  10.711 -0.8555  1.3546 -0.1304
13568TIP3   OH262118   2.478   3.687   4.735  0.1125  0.4627 -0.1953
13568TIP3    H162119   2.430   3.699   4.817  2.0626  0.0858  1.0947
13568TIP3    H262120   2.567   3.666   4.764  0.9711  0.8185 -2.4369
13569TIP3   OH262121   3.561   6.381   3.453  0.9717  0.2448 -0.2036
13569TIP3    H162122   3.472   6.415   3.460  1.0358  0.1633  1.3741
13569TIP3    H262123   3.617   6.459   3.463  1.0753  0.2182 -0.5933
13570TIP3   OH262124   4.951   0.661  16.341 -0.0272  0.1467  0.0034
13570TIP3    H162125   4.979   0.621  16.259 -0.6160 -0.7946  0.2494
13570TIP3    H262126   4.873   0.712  16.319  0.0133  0.1707 -0.0833
13571TIP3   OH262127   2.288   0.806   5.278  0.7625  0.5523  0.1994
13571TIP3    H162128   2.215   0.799   5.340 -1.5574  1.6595 -2.2508
13571TIP3    H262129   2.297   0.717   5.243  2.8206 -0.3675  2.6936
13572TIP3   OH262130   2.488   3.454  14.851 -0.3224 -0.3999 -0.2057
13572TIP3    H162131   2.426   3.525  14.843  1.1293  1.1845  1.5412
13572TIP3    H262132   2.447   3.393  14.913 -1.3674 -0.8964 -1.3495
13573TIP3   OH262133   5.587   4.036  17.290 -0.0878  0.2577  0.0320
13573TIP3    H162134   5.616   4.127  17.287  2.3758 -0.4600 -0.5902
13573TIP3    H262135   5.571   4.013  17.198  0.2747 -0.2207  0.0892
13574TIP3   OH262136   4.772   6.387  15.576  0.3319 -0.6166  0.1363
13574TIP3    H162137   4.810   6.342  15.501 -2.6814 -1.9381 -0.7522
13574TIP3    H262138   4.778   6.323  15.647  0.6561 -0.4363  0.2740
13575TIP3   OH262139   5.942   0.072  12.249 -0.5930  0.2341  0.0416
13575TIP3    H162140   5.870   0.128  12.278 -0.1012  1.4377 -1.0081
13575TIP3    H262141   6.013   0.132  12.227  0.3679 -0.8704  0.0039
13576TIP3   OH262142   1.256   4.448   2.288 -0.2508 -0.1743 -0.5581
13576TIP3    H162143   1.243   4.525   2.343  1.3738 -0.3371  0.1050
13576TIP3    H262144   1.271   4.483   2.201 -1.3533  0.1569 -0.6266
13577TIP3   OH262145   0.898   6.422  17.047  0.1024 -0.0011  0.0730
13577TIP3    H162146   0.936   6.477  16.979 -0.1032  0.9562  0.7076
13577TIP3    H262147   0.848   6.483  17.101 -1.3668 -1.0524 -0.0639
13578TIP3   OH262148   4.112   5.372   3.944  0.1957  0.1441 -0.4100
13578TIP3    H162149   4.069   5.437   3.999 -1.1805 -1.7412  0.8633
13578TIP3    H262150   4.048   5.301   3.935  1.6872 -1.1342 -1.5553
13579TIP3   OH262151   6.579   2.997   3.057  0.0332  0.1431  0.1884
13579TIP3    H162152   6.592   2.925   2.995  0.3607 -0.5300  1.0195
13579TIP3    H262153   6.667   3.015   3.090  0.1918  1.9219 -1.0722
13580TIP3   OH262154   6.161   0.764   2.852  0.1814 -0.5135 -0.0689
13580TIP3    H162155   6.183   0.674   2.874  2.4851 -0.4206 -1.6116
13580TIP3    H262156   6.216   0.784   2.776  1.1956  2.8044  1.3662
13581TIP3   OH262157   4.268   0.694   4.015  0.0334  0.1398 -0.2558
13581TIP3    H162158   4.253   0.613   4.063  3.9533 -1.8246 -1.8160
13581TIP3    H262159   4.296   0.757   4.081  1.5956 -1.3422  0.5884
13582TIP3   OH262160   1.811   3.126   0.412  0.3475 -0.0682  0.6001
13582TIP3    H162161   1.736   3.170   0.372 -0.5604 -0.6140  1.6692
13582TIP3    H262162   1.885   3.149   0.356 -0.3557  1.6695  0.3277
13583TIP3   OH262163   2.618   3.871   0.680 -0.0252 -0.9950  0.1200
13583TIP3    H162164   2.561   3.817   0.734 -1.1482  0.7304  0.7258
13583TIP3    H262165   2.576   3.871   0.594 -1.6217  1.0961  0.8109
13584TIP3   OH262166   4.161   6.275   0.873  0.3465 -0.2087 -0.0413
13584TIP3    H162167   4.131   6.306   0.788 -0.8288 -0.5977  0.2114
13584TIP3    H262168   4.217   6.345   0.906 -1.2908  1.1343  0.0028
13585TIP3   OH262169   0.944   5.791   4.833 -0.4210  0.5744  0.5574
13585TIP3    H162170   0.990   5.735   4.896  2.0588  0.6873 -1.0097
13585TIP3    H262171   1.005   5.799   4.759 -2.1435  2.5126 -0.7704
13586TIP3   OH262172   6.097   5.544  11.450 -0.2769 -0.2089  0.5509
13586TIP3    H162173   6.138   5.559  11.365 -1.7510  2.3206  0.1804
13586TIP3    H262174   6.046   5.464  11.438  0.0444 -0.2488 -0.7498
13587TIP3   OH262175   1.542   1.340   0.483 -0.1423 -0.2259  0.0887
13587TIP3    H162176   1.537   1.426   0.525 -1.8158 -0.1368 -0.2086
13587TIP3    H262177   1.611   1.349   0.417  0.3726  0.5814  0.7107
13588TIP3   OH262178   2.182   0.923  13.758  0.3417  0.3958  0.1298
13588TIP3    H162179   2.133   0.844  13.784  0.8939 -0.0998 -0.3171
13588TIP3    H262180   2.243   0.938  13.830  0.1726  0.4752  0.2578
13589TIP3   OH262181   6.518   0.952  13.708 -0.1889  0.1587  0.2379
13589TIP3    H162182   6.545   0.934  13.618  0.2924  1.0608  0.1860
13589TIP3    H262183   6.601   0.961  13.756 -0.3776  1.7872  0.3208
13590TIP3   OH262184   2.345   5.047   3.603  0.3274 -0.0871  0.3014
13590TIP3    H162185   2.333   5.093   3.686  1.0396  1.6373 -0.5187
13590TIP3    H262186   2.402   4.973   3.624  0.5484  0.3674  1.3267
13591TIP3   OH262187   6.456   4.720  15.946 -0.1436 -0.0710  0.2016
13591TIP3    H162188   6.491   4.792  15.998 -1.5918  0.7403  0.0885
13591TIP3    H262189   6.463   4.643  16.002 -0.0614  0.4608  0.9234
13592TIP3   OH262190   3.677   3.442   5.187 -0.5567 -0.1512  0.0708
13592TIP3    H162191   3.731   3.481   5.118 -0.6019 -0.1060  0.0604
13592TIP3    H262192   3.607   3.397   5.140 -0.2247 -0.6728  0.0654
13593TIP3   OH262193   0.266   1.218  15.606 -0.9028 -0.2638  0.0399
13593TIP3    H162194   0.194   1.159  15.627  0.1760 -1.6781 -0.1200
13593TIP3    H262195   0.340   1.161  15.586 -0.0470  1.1203 -0.9935
13594TIP3   OH262196   0.679   4.722  13.675 -0.0565  0.3246 -0.3348
13594TIP3    H162197   0.747   4.703  13.740 -1.1541  1.5759  1.2577
13594TIP3    H262198   0.690   4.815  13.657  0.4550 -0.0631 -2.2887
13595TIP3   OH262199   1.190   2.397  12.190 -0.0337 -0.0922 -0.1728
13595TIP3    H162200   1.242   2.374  12.114  0.5941 -1.0213  0.5228
13595TIP3    H262201   1.242   2.462  12.237  0.0110 -0.2339 -0.0275
13596TIP3   OH262202   4.156   1.418   4.926  0.2666  0.1015  0.2656
13596TIP3    H162203   4.122   1.347   4.871  1.4763  0.5632 -1.1641
13596TIP3    H262204   4.250   1.403   4.929  0.7063  2.1262 -0.8991
13597TIP3   OH262205   0.795   2.600  12.928  0.5380  0.1851  0.6156
13597TIP3    H162206   0.817   2.683  12.972 -0.3855  0.2596  0.9494
13597TIP3    H262207   0.838   2.533  12.981  1.4438  0.4505  0.2426
13598TIP3   OH262208   6.579   4.087  15.682 -0.4489 -0.5654  0.4293
13598TIP3    H162209   6.656   4.067  15.735 -0.7004 -1.9418  0.3242
13598TIP3    H262210   6.563   4.180  15.697  1.3105 -0.2053  0.3339
13599TIP3   OH262211   4.864   5.449   4.720 -0.3766  0.0469 -0.6268
13599TIP3    H162212   4.917   5.441   4.640  0.1916 -1.8798 -0.1006
13599TIP3    H262213   4.925   5.433   4.791 -1.0213  1.1059  0.1947
13600TIP3   OH262214   3.707   3.408  12.886 -0.1398  0.0221 -0.3792
13600TIP3    H162215   3.721   3.502  12.897 -0.1563  0.0700 -0.7418
13600TIP3    H262216   3.720   3.371  12.973  1.2249  0.1909 -0.4906
13601TIP3   OH262217   2.459   5.252   0.192  0.0707 -0.4533  0.1364
13601TIP3    H162218   2.548   5.283   0.206  0.4028 -0.4230 -1.7447
13601TIP3    H262219   2.448   5.182   0.256  0.6199  1.0179  1.9199
13602TIP3   OH262220   3.464   4.850  14.200 -0.2283 -0.0549 -0.5561
13602TIP3    H162221   3.540   4.828  14.147 -0.0160  0.4229 -0.4507
13602TIP3    H262222   3.461   4.783  14.268  0.7153  0.5152  0.0710
13603TIP3   OH262223   6.366   6.691   1.264  0.2958  0.0812 -0.2913
13603TIP3    H162224   6.353   6.726   1.352 -0.8971 -0.8263 -0.0822
13603TIP3    H262225   6.303   6.738   1.209 -0.0249 -0.4236 -0.3599
13604TIP3   OH262226   0.936   5.884   1.587 -0.1407  0.0219  0.3415
13604TIP3    H162227   0.843   5.862   1.584  0.1036 -0.9449 -1.3878
13604TIP3    H262228   0.980   5.801   1.605  0.4447  0.2996  0.2032
13605TIP3   OH262229   0.511   2.536   6.109 -0.0358  0.1954 -0.2601
13605TIP3    H162230   0.549   2.522   6.023  1.8472 -0.0795  0.5628
13605TIP3    H262231   0.497   2.630   6.115  2.0740  0.5298 -0.0180
13606TIP3   OH262232   0.838   4.922   2.299 -0.1293 -0.3769  0.1779
13606TIP3    H162233   0.909   4.859   2.309  0.4570  0.1721 -0.4769
13606TIP3    H262234   0.773   4.876   2.245 -0.4829 -1.0366  1.1392
13607TIP3   OH262235   4.272   5.440   1.881  0.0832  0.2418 -0.9722
13607TIP3    H162236   4.270   5.530   1.849 -1.2554  1.3869  1.9482
13607TIP3    H262237   4.324   5.444   1.961  0.0877 -1.6387 -0.8334
13608TIP3   OH262238   0.426   2.160   2.203 -0.2809  0.2691  0.0990
13608TIP3    H162239   0.460   2.241   2.241  1.2858 -1.4854  2.7069
13608TIP3    H262240   0.487   2.140   2.132 -0.2380  0.9440 -0.0680
13609TIP3   OH262241   5.278   5.274   1.994 -0.7356 -0.0973 -0.2238
13609TIP3    H162242   5.194   5.245   2.030 -0.8475 -1.3960 -1.4301
13609TIP3    H262243   5.342   5.254   2.063 -1.1827 -0.7973  0.0027
13610TIP3   OH262244   5.663   5.418  15.357 -0.7665  0.3107  0.4103
13610TIP3    H162245   5.713   5.339  15.339 -0.3318  0.7506 -0.3875
13610TIP3    H262246   5.666   5.468  15.275 -0.5752  1.3899  1.0512
13611TIP3   OH262247   0.658   0.432   0.549  0.1366  0.2928 -0.3821
13611TIP3    H162248   0.657   0.525   0.575 -0.8149  0.4467 -0.9130
13611TIP3    H262249   0.653   0.434   0.454  2.9620 -0.2844 -0.6046
13612TIP3   OH262250   1.769   4.874   5.370 -0.9774  0.3864 -0.1366
13612TIP3    H162251   1.689   4.842   5.412 -1.7196  0.9323 -1.0977
13612TIP3    H262252   1.796   4.802   5.313  0.0941 -0.3997  1.3049
13613TIP3   OH262253   5.972   4.871  14.742  0.0460  0.5733  0.1479
13613TIP3    H162254   6.021   4.948  14.772 -0.9560  1.1875  0.2623
13613TIP3    H262255   5.881   4.891  14.764 -0.3209 -0.3282 -0.5067
13614TIP3   OH262256   0.267   0.249   0.104  0.3520  0.2727 -1.0169
13614TIP3    H162257   0.229   0.162   0.110  0.7982  0.0881 -0.8182
13614TIP3    H262258   0.224   0.299   0.174  0.9342 -0.1190 -0.3573
13615TIP3   OH262259   3.325   5.580  16.459 -0.3338 -0.1497 -0.0035
13615TIP3    H162260   3.398   5.636  16.435 -0.8766  0.0951 -1.1666
13615TIP3    H262261   3.345   5.495  16.418 -0.6004 -0.1313 -0.1798
13616TIP3   OH262262   5.341   1.339   4.323  0.0830  0.7490 -0.1017
13616TIP3    H162263   5.399   1.402   4.366  0.5925  1.6055 -1.9404
13616TIP3    H262264   5.396   1.299   4.255  0.1341 -2.5887  1.6915
13617TIP3   OH262265   6.102   6.587   2.954 -0.5257  0.2857 -0.2687
13617TIP3    H162266   6.027   6.620   3.004 -1.0552 -0.4933 -0.5344
13617TIP3    H262267   6.153   6.537   3.017 -1.7641 -1.6176 -0.6989
13618TIP3   OH262268   5.844   4.419   0.678 -0.5983 -0.8781 -0.4683
13618TIP3    H162269   5.757   4.440   0.712 -1.3998 -3.5400 -0.6634
13618TIP3    H262270   5.838   4.328   0.650  1.9829 -0.8390 -1.4677
13619TIP3   OH262271   3.323   3.077  11.764 -0.2296  0.0131 -0.5417
13619TIP3    H162272   3.278   3.038  11.840  0.4957  2.0644  1.0437
13619TIP3    H262273   3.381   3.008  11.733 -0.5451 -0.8909  0.7711
13620TIP3   OH262274   0.474   3.699  14.255  0.0669 -0.2497 -0.0598
13620TIP3    H162275   0.567   3.701  14.274 -0.0638  0.5560  0.5569
13620TIP3    H262276   0.468   3.674  14.163  0.9118  0.1581 -0.2315
13621TIP3   OH262277   6.272   2.466  12.580  1.0037  0.1237  0.7538
13621TIP3    H162278   6.361   2.452  12.612  0.3017  2.0579  3.8874
13621TIP3    H262279   6.245   2.550  12.616 -2.2961 -0.5932  0.3310
13622TIP3   OH262280   4.593   1.679  14.483 -0.4416  0.0893  0.0947
13622TIP3    H162281   4.544   1.761  14.486  1.1332  1.0556  2.2660
13622TIP3    H262282   4.662   1.696  14.419  0.7721  1.0968  1.5842
13623TIP3   OH262283   5.804   2.581   1.171  0.1091 -0.2347  0.8467
13623TIP3    H162284   5.764   2.668   1.177  1.0633  0.1150  3.1417
13623TIP3    H262285   5.878   2.585   1.232  1.1025 -2.1754 -0.1773
13624TIP3   OH262286   0.178   0.942  16.518 -0.0715 -0.1374  0.3198
13624TIP3    H162287   0.214   0.908  16.436 -0.0922 -1.4165  0.8248
13624TIP3    H262288   0.146   1.029  16.496  2.8564  0.8713 -0.2807
13625TIP3   OH262289   5.136   3.678   1.039 -0.3678  0.3845  0.2388
13625TIP3    H162290   5.192   3.695   0.963 -1.8421  0.5081 -0.8694
13625TIP3    H262291   5.049   3.663   1.002 -1.3247  1.3415  1.9677
13626TIP3   OH262292   2.105   5.400  12.133 -0.0740  0.2567 -0.3186
13626TIP3    H162293   2.148   5.351  12.203  1.1353  0.8258 -0.6378
13626TIP3    H262294   2.039   5.340  12.099  0.0634 -0.4253  0.5785
13627TIP3   OH262295   0.547   3.452   2.447  0.1152  0.1051  0.2432
13627TIP3    H162296   0.630   3.444   2.496 -0.4767 -1.3880  1.0754
13627TIP3    H262297   0.518   3.362   2.435 -0.1716  0.4560 -2.2459
13628TIP3   OH262298   6.582   4.419   3.604 -0.5173  0.4525  0.5390
13628TIP3    H162299   6.571   4.324   3.598  0.9929  0.3362 -0.9352
13628TIP3    H262300   6.627   4.444   3.524 -0.7464  2.4175  0.9597
13629TIP3   OH262301   1.368   6.199  13.304 -0.8124  0.3649 -0.3669
13629TIP3    H162302   1.366   6.224  13.212  1.5083 -1.2353 -0.9622
13629TIP3    H262303   1.439   6.134  13.310 -2.4766 -1.4356  2.0942
13630TIP3   OH262304   4.443   6.501   4.300 -0.2578 -0.0013  0.4500
13630TIP3    H162305   4.387   6.424   4.300  0.7719 -0.8142 -1.4169
13630TIP3    H262306   4.382   6.575   4.302 -1.2721 -0.8091  1.6715
13631TIP3   OH262307   4.041   1.201  16.672  0.8814  0.1370  0.2144
13631TIP3    H162308   4.073   1.170  16.587  1.2475  0.1148  0.3556
13631TIP3    H262309   3.950   1.226  16.656  0.2732 -1.8548  0.2909
13632TIP3   OH262310   2.246   2.587  15.243  0.8597  0.2953  0.0387
13632TIP3    H162311   2.301   2.665  15.242  1.8998 -0.3685  2.0439
13632TIP3    H262312   2.298   2.520  15.286 -1.3107 -0.4925  1.6427
13633TIP3   OH262313   4.200   3.936   2.156 -0.3212  0.5596  0.2557
13633TIP3    H162314   4.238   4.023   2.159  1.0191 -0.0246  1.4049
13633TIP3    H262315   4.206   3.904   2.246  0.5774 -1.2623 -0.3972
13634TIP3   OH262316   4.662   4.966   5.253  0.1155  0.2637  0.5235
13634TIP3    H162317   4.588   5.019   5.284  0.3500 -0.4505  2.4002
13634TIP3    H262318   4.739   5.007   5.293  0.5612 -0.0270 -0.0270
13635TIP3   OH262319   2.411   3.096   1.696  0.3609  0.3074  0.1428
13635TIP3    H162320   2.392   3.068   1.786  1.9192  0.6169  0.6103
13635TIP3    H262321   2.350   3.047   1.642  0.1227 -0.7134  1.2936
13636TIP3   OH262322   5.362   4.215   2.300  0.1289  0.0954 -0.7078
13636TIP3    H162323   5.385   4.183   2.387 -1.4811  0.4600 -0.1163
13636TIP3    H262324   5.380   4.141   2.242  2.5743  0.3043 -0.3208
13637TIP3   OH262325   5.746   2.649   0.143  0.0046 -0.6107  0.0290
13637TIP3    H162326   5.712   2.576   0.091  0.3932  0.0269 -1.1554
13637TIP3    H262327   5.699   2.726   0.111  0.8964 -0.0714 -0.0195
13638TIP3   OH262328   3.860   0.983  15.355  0.1613  0.3386 -0.6368
13638TIP3    H162329   3.772   1.020  15.363 -0.1164 -0.2870 -0.7327
13638TIP3    H262330   3.846   0.888  15.353  0.8945  0.1992  0.0917
13639TIP3   OH262331   1.417   2.741   2.942  0.2186 -0.4255 -0.2438
13639TIP3    H162332   1.471   2.809   2.982 -1.3245  1.5930 -1.4177
13639TIP3    H262333   1.480   2.678   2.907  1.7394  0.6905  0.3655
13640TIP3   OH262334   0.481   2.034  14.905  0.4920  0.4767  0.1118
13640TIP3    H162335   0.407   2.002  14.956 -0.0495  1.1557 -0.2280
13640TIP3    H262336   0.453   2.024  14.814  2.3107 -2.8371 -0.2298
13641TIP3   OH262337   4.444   6.235   2.540  0.5591  0.2086 -0.5423
13641TIP3    H162338   4.426   6.170   2.609  2.2758 -0.7312 -0.9258
13641TIP3    H262339   4.398   6.314   2.570 -0.4688 -0.7692  0.6161
13642TIP3   OH262340   1.414   3.876  16.709  0.2752 -0.4591  0.2224
13642TIP3    H162341   1.473   3.828  16.651  1.5959  0.6545  0.5936
13642TIP3    H262342   1.453   3.865  16.796 -0.6150 -0.4980  0.6277
13643TIP3   OH262343   2.107   3.450  15.900 -0.3774  0.6848 -0.1980
13643TIP3    H162344   2.156   3.414  15.826 -0.4985 -0.7973  0.3997
13643TIP3    H262345   2.171   3.504  15.947  0.3787 -0.2495 -0.1054
13644TIP3   OH262346   5.167   5.907   1.518 -0.0200 -0.2820  0.1188
13644TIP3    H162347   5.175   5.855   1.438 -1.0563 -1.2970  0.6320
13644TIP3    H262348   5.248   5.957   1.523  0.2441 -0.5239 -1.3387
13645TIP3   OH262349   1.217   5.002  14.254  0.6657  0.4682  0.2004
13645TIP3    H162350   1.277   4.942  14.299 -0.4901 -0.3960  0.6496
13645TIP3    H262351   1.152   5.024  14.321  0.0385  0.7589 -0.4969
13646TIP3   OH262352   4.415   1.383   4.650 -0.5532 -0.0164  0.1154
13646TIP3    H162353   4.424   1.478   4.642  2.0014 -0.3233 -2.0810
13646TIP3    H262354   4.483   1.358   4.714 -0.0126 -0.4768 -0.6170
13647TIP3   OH262355   3.958   0.147   3.399 -0.3086 -0.2241 -0.1625
13647TIP3    H162356   3.955   0.230   3.447  0.0128  1.1702 -2.3824
13647TIP3    H262357   3.897   0.160   3.326  0.5533 -1.5260 -1.1610
13648TIP3   OH262358   0.480   0.473   4.537 -0.1082 -0.1866 -0.2752
13648TIP3    H162359   0.415   0.487   4.468 -0.2083 -1.5142 -0.4917
13648TIP3    H262360   0.560   0.516   4.504 -0.7716  1.1988 -0.1398
13649TIP3   OH262361   0.508   4.254   5.363 -0.3473 -0.1444  0.2381
13649TIP3    H162362   0.580   4.223   5.307  0.1888  2.6333 -0.7611
13649TIP3    H262363   0.553   4.290   5.440 -0.3769  3.2856 -1.1980
13650TIP3   OH262364   1.167   1.923   0.993  0.2218  0.2367  0.2362
13650TIP3    H162365   1.144   1.894   0.906 -0.4073 -0.4034  0.6127
13650TIP3    H262366   1.091   1.904   1.047  0.1349  1.7170  0.6973
13651TIP3   OH262367   0.356   3.822   0.508 -0.1130 -0.6222 -0.6078
13651TIP3    H162368   0.319   3.814   0.420 -1.1684  2.9231 -0.6280
13651TIP3    H262369   0.384   3.913   0.514  0.9249 -1.0287  2.4019
13652TIP3   OH262370   3.669   0.841   4.124 -0.1436 -0.0189  0.8657
13652TIP3    H162371   3.735   0.781   4.160 -0.4393 -0.9519 -0.0884
13652TIP3    H262372   3.719   0.911   4.084  0.2363 -0.0359  1.3033
13653TIP3   OH262373   2.942   0.456  16.345  0.6722 -0.1126  0.0268
13653TIP3    H162374   2.920   0.460  16.438  2.4077 -1.2408  0.5433
13653TIP3    H262375   2.858   0.449  16.301 -0.3334  2.5383  1.3189
13654TIP3   OH262376   3.767   1.528   3.155  0.8901 -0.1300 -0.1981
13654TIP3    H162377   3.795   1.481   3.234  1.5361  0.3137 -0.1633
13654TIP3    H262378   3.805   1.615   3.164  0.3807  0.1431 -0.6653
13655TIP3   OH262379   5.562   1.145  17.187 -0.0934  0.3837 -0.7457
13655TIP3    H162380   5.597   1.223  17.228 -0.8291  1.0325 -1.3139
13655TIP3    H262381   5.576   1.075  17.250  0.2715  1.0442 -0.0945
13656TIP3   OH262382   6.480   0.280   2.098 -0.3963 -0.0150 -0.3384
13656TIP3    H162383   6.527   0.364   2.098  1.5878 -1.0476 -0.8659
13656TIP3    H262384   6.470   0.258   2.005 -1.9322  0.1361 -0.2376
13657TIP3   OH262385   4.278   5.548   4.822  0.1590 -0.3359  0.1966
13657TIP3    H162386   4.219   5.623   4.818  0.1583 -0.3769 -0.8130
13657TIP3    H262387   4.343   5.565   4.754 -0.3735 -1.6937 -0.6931
13658TIP3   OH262388   1.709   5.153   5.361  0.2240 -0.5135  0.0538
13658TIP3    H162389   1.730   5.060   5.351  0.1588 -0.3705 -1.8502
13658TIP3    H262390   1.665   5.159   5.445 -2.0837 -2.6577 -0.8613
13659TIP3   OH262391   2.224   5.013   4.050 -0.0415 -0.0817 -0.6589
13659TIP3    H162392   2.196   4.932   4.007 -2.0773  0.4819 -0.4751
13659TIP3    H262393   2.145   5.067   4.055  0.9515  1.3604  0.5003
13660TIP3   OH262394   4.023   3.039  15.992 -0.2947  0.2685  0.4957
13660TIP3    H162395   3.958   3.082  15.935 -1.7238  0.0026  1.8679
13660TIP3    H262396   4.002   2.946  15.986 -0.9275  0.2991  1.9878
13661TIP3   OH262397   0.046   0.291  11.624 -0.2988 -0.4037  0.1284
13661TIP3    H162398  -0.017   0.228  11.659 -0.4721 -0.5842 -0.4985
13661TIP3    H262399   0.083   0.249  11.546  0.1634 -0.0566  0.1505
13662TIP3   OH262400   2.202   1.469   1.927 -0.0306  0.1416  0.5490
13662TIP3    H162401   2.184   1.508   1.841  0.5504 -0.6390  0.0510
13662TIP3    H262402   2.154   1.386   1.926  1.0543 -0.5128  0.4164
13663TIP3   OH262403   6.156   0.525  16.324  0.0920 -0.1175  0.3020
13663TIP3    H162404   6.088   0.568  16.271  0.6284  0.6352  0.2075
13663TIP3    H262405   6.227   0.589  16.328 -0.5927  0.5795  3.3899
13664TIP3   OH262406   0.982   4.378  16.026 -0.1500 -0.1915  0.5783
13664TIP3    H162407   0.938   4.345  15.947 -0.6615 -0.0599  0.8079
13664TIP3    H262408   1.043   4.308  16.049 -1.3292 -1.0696  1.1395
13665TIP3   OH262409   0.759   4.686  13.180  0.1406  0.1602  0.2557
13665TIP3    H162410   0.686   4.702  13.120  1.6110 -1.9997 -2.3328
13665TIP3    H262411   0.717   4.672  13.265 -2.5409 -1.4085 -1.1871
13666TIP3   OH262412   3.875   3.062  12.125 -0.2286 -0.7689  0.3281
13666TIP3    H162413   3.816   3.007  12.075  0.4937 -1.3350  0.0741
13666TIP3    H262414   3.957   3.061  12.075 -0.7573  2.2336 -0.8483
13667TIP3   OH262415   5.139   0.953   4.863 -0.0300  0.0287  0.0588
13667TIP3    H162416   5.176   0.898   4.794 -0.6899 -3.3295  2.1772
13667TIP3    H262417   5.044   0.948   4.850 -0.1705 -0.7385  1.2147
13668TIP3   OH262418   2.457   2.658   1.360 -0.1129  0.4340 -0.1261
13668TIP3    H162419   2.521   2.595   1.326 -1.6099 -1.3204  0.2121
13668TIP3    H262420   2.491   2.682   1.446 -0.9945 -2.2502  1.0567
13669TIP3   OH262421   4.655   4.267  16.805  0.1348  0.0629  0.0731
13669TIP3    H162422   4.632   4.286  16.714  2.9150 -0.2899 -0.8006
13669TIP3    H262423   4.627   4.176  16.818  2.7281 -1.0750 -1.6301
13670TIP3   OH262424   5.683   3.061   5.516  0.2559 -0.4186 -0.0513
13670TIP3    H162425   5.647   2.985   5.472  0.5772 -1.3636  1.2436
13670TIP3    H262426   5.610   3.098   5.565 -0.2114  0.8940 -1.6468
13671TIP3   OH262427   6.681   5.049  12.319  0.1682  0.2549 -0.2003
13671TIP3    H162428   6.602   5.074  12.366  0.8436 -0.5829  1.4349
13671TIP3    H262429   6.726   5.132  12.302 -0.1083  0.5741  0.6115
13672TIP3   OH262430   4.246   4.545   6.151 -0.6404 -0.0274 -0.8091
13672TIP3    H162431   4.280   4.456   6.157  0.2487  0.2765 -1.0919
13672TIP3    H262432   4.233   4.572   6.241  3.6308  1.2019 -0.3622
13673TIP3   OH262433   5.146   5.160   1.283 -0.8892 -0.3332 -0.1028
13673TIP3    H162434   5.221   5.125   1.235  1.1066 -0.1456  2.6826
13673TIP3    H262435   5.073   5.102   1.259  0.5139 -1.5883 -1.5528
13674TIP3   OH262436   5.547   4.345   1.659 -0.2943 -0.1174 -0.2584
13674TIP3    H162437   5.571   4.332   1.750  0.7744 -1.4078 -0.6832
13674TIP3    H262438   5.621   4.310   1.610 -0.0686  2.1233 -1.6297
13675TIP3   OH262439   6.655   5.032   1.248 -0.1003 -0.3830 -0.5512
13675TIP3    H162440   6.596   5.107   1.241  0.9329  0.8088  1.9637
13675TIP3    H262441   6.707   5.050   1.327  0.1407 -3.8002  0.2396
13676TIP3   OH262442   1.490   3.349   5.754  0.0646  0.0991 -0.1196
13676TIP3    H162443   1.481   3.353   5.850  0.6929 -1.4548  0.0461
13676TIP3    H262444   1.530   3.263   5.738  0.2873  0.4799 -1.7631
13677TIP3   OH262445   3.840   6.087  13.047  0.2766 -0.3330  0.3369
13677TIP3    H162446   3.875   6.092  13.136  1.3796 -1.7908  0.0276
13677TIP3    H262447   3.917   6.101  12.991  0.0267 -1.5938 -0.3677
13678TIP3   OH262448   4.539   6.266  15.406 -0.7506 -0.4121 -0.6625
13678TIP3    H162449   4.473   6.196  15.397 -0.9655 -0.1767 -0.9174
13678TIP3    H262450   4.604   6.229  15.465 -0.1546 -1.3593 -1.8636
13679TIP3   OH262451   5.329   0.114  16.589 -0.2492 -0.2246 -0.1090
13679TIP3    H162452   5.241   0.120  16.625 -0.1285  1.7947 -0.0509
13679TIP3    H262453   5.320   0.141  16.497  0.1530 -0.9994 -0.3893
13680TIP3   OH262454   5.914   1.007  17.109  0.0588 -0.0618 -0.0145
13680TIP3    H162455   5.859   1.033  17.035  2.4677 -2.3631 -2.8745
13680TIP3    H262456   5.874   0.927  17.142  0.5642 -0.6703 -0.8356
13681TIP3   OH262457   6.646   4.857   3.583 -0.0883 -0.4858  0.1343
13681TIP3    H162458   6.679   4.839   3.494 -3.1106 -1.2951 -0.9295
13681TIP3    H262459   6.638   4.771   3.623 -2.8204 -0.5882 -0.4609
13682TIP3   OH262460   6.128   6.050   1.723  0.1319  0.1591  0.2022
13682TIP3    H162461   6.081   5.983   1.675  1.1154  0.0368 -0.6412
13682TIP3    H262462   6.079   6.061   1.805 -1.5770  0.3539 -0.8065
13683TIP3   OH262463   3.746   1.421   5.329  0.7990  0.0835 -0.4073
13683TIP3    H162464   3.752   1.496   5.387 -0.4284  0.3246 -0.5579
13683TIP3    H262465   3.688   1.450   5.258  0.4494 -0.9373 -0.5572
13684TIP3   OH262466   2.351   4.933   0.943 -0.1099 -0.2115  0.2214
13684TIP3    H162467   2.392   5.019   0.929  1.0778 -0.9559 -1.0763
13684TIP3    H262468   2.391   4.900   1.024 -1.9630  1.1954  1.8296
13685TIP3   OH262469   0.218   0.610  16.587 -0.4136  0.0688 -0.0609
13685TIP3    H162470   0.279   0.578  16.520  1.6367  1.8911  0.8311
13685TIP3    H262471   0.140   0.634  16.538  0.1468 -0.8546 -1.4774
13686TIP3   OH262472   0.514   3.165   3.232  0.6716  0.4379  0.1484
13686TIP3    H162473   0.530   3.254   3.264  0.4767  0.7369 -0.5556
13686TIP3    H262474   0.514   3.174   3.136  1.3324 -0.4437  0.0544
13687TIP3   OH262475   4.683   6.762   4.199 -0.2663 -0.1969 -0.5471
13687TIP3    H162476   4.742   6.824   4.243 -0.7119 -0.6396  0.7220
13687TIP3    H262477   4.740   6.689   4.174 -0.0829 -0.1275 -0.3319
13688TIP3   OH262478   4.972   2.129  11.817 -0.6162  0.0917  0.4646
13688TIP3    H162479   5.024   2.107  11.895  0.1143 -0.6688 -0.2173
13688TIP3    H262480   5.026   2.100  11.744 -1.0098  1.3912 -0.3635
13689TIP3   OH262481   1.230   1.419   4.888 -0.2263 -0.3422  0.0785
13689TIP3    H162482   1.145   1.384   4.915  0.0932  0.0578  1.7285
13689TIP3    H262483   1.270   1.348   4.836 -1.1812 -0.8819  0.0601
13690TIP3   OH262484   0.011   2.041   3.475 -0.2960 -0.0090  0.2561
13690TIP3    H162485  -0.031   2.066   3.557  0.4585 -0.4250  0.7841
13690TIP3    H262486  -0.052   1.984   3.432 -1.2656  1.2984 -0.0986
13691TIP3   OH262487   4.359   5.618   2.934 -0.0656  0.0019  0.0576
13691TIP3    H162488   4.420   5.580   2.870 -1.1588 -2.4096  0.3433
13691TIP3    H262489   4.312   5.542   2.970 -0.2874  1.3635  2.9185
13692TIP3   OH262490   1.345   1.899  12.878  0.3593  0.2082  0.0193
13692TIP3    H162491   1.362   1.943  12.962 -0.4656  1.4198 -0.4260
13692TIP3    H262492   1.318   1.811  12.903 -1.6010  1.0625  1.1565
13693TIP3   OH262493   0.435   0.775  13.038 -0.2074 -0.4458  0.5519
13693TIP3    H162494   0.438   0.852  12.981 -2.1702  0.0890  1.0855
13693TIP3    H262495   0.361   0.724  13.005 -0.1214 -1.1236  1.3864
13694TIP3   OH262496   1.740   5.442   0.171  0.2103 -0.4787 -0.0161
13694TIP3    H162497   1.790   5.466   0.093 -1.1793  2.9698 -0.0362
13694TIP3    H262498   1.807   5.424   0.238  1.5130  1.2417 -0.7663
13695TIP3   OH262499   0.014   5.795   1.508 -0.1559  0.4051 -0.0141
13695TIP3    H162500  -0.007   5.887   1.496  1.7163  0.8351 -0.3610
13695TIP3    H262501   0.083   5.778   1.443 -1.0720 -1.4746 -0.5666
13696TIP3   OH262502   5.450   4.059  11.984  0.1583 -0.1089  0.5052
13696TIP3    H162503   5.522   4.025  11.931  1.0717  0.6622  1.2033
13696TIP3    H262504   5.491   4.126  12.038 -1.1195  0.4109  0.8540
13697TIP3   OH262505   5.878   1.838  16.802 -0.1762  0.1200  1.2047
13697TIP3    H162506   5.878   1.890  16.883  0.4982  1.4160  0.4144
13697TIP3    H262507   5.826   1.889  16.741 -1.3139 -1.2236  1.0155
13698TIP3   OH262508   4.042   6.685  12.884  0.3262  0.2182  0.1336
13698TIP3    H162509   4.059   6.606  12.832 -0.1908  0.0499  0.2144
13698TIP3    H262510   3.971   6.661  12.943 -1.0306  1.2244 -1.0052
13699TIP3   OH262511   0.109   2.243  11.772  0.2103  0.5543 -0.0524
13699TIP3    H162512   0.036   2.299  11.800  0.1858  1.8513 -2.4127
13699TIP3    H262513   0.187   2.296  11.786  0.1919  1.2733 -2.2438
13700TIP3   OH262514   5.766   5.466  13.814 -0.2083  0.1977  0.4372
13700TIP3    H162515   5.802   5.479  13.726  0.4526 -0.7290  0.5559
13700TIP3    H262516   5.678   5.434  13.799 -0.0860  0.0048  0.1070
13701TIP3   OH262517   5.303   5.185   2.980 -0.5939 -0.2163 -0.6879
13701TIP3    H162518   5.235   5.245   3.011 -1.0028 -1.2953  0.6134
13701TIP3    H262519   5.375   5.196   3.042  0.4487  0.8691 -2.0174
13702TIP3   OH262520   1.472   1.639   5.107 -0.7255 -0.1599 -0.1241
13702TIP3    H162521   1.441   1.685   5.029  0.2832  0.7154 -0.0335
13702TIP3    H262522   1.563   1.666   5.116 -0.4690 -1.2060  0.6707
13703TIP3   OH262523   5.883   2.664  11.660  0.2315  0.5054 -0.3119
13703TIP3    H162524   5.868   2.752  11.693 -0.1825 -0.2530  1.6825
13703TIP3    H262525   5.976   2.647  11.676 -0.1796 -0.2252  1.5202
13704TIP3   OH262526   6.098   1.741  17.126  0.1596  0.3248 -0.0522
13704TIP3    H162527   6.095   1.667  17.187 -2.6493 -0.0792 -0.5187
13704TIP3    H262528   6.155   1.712  17.055 -1.8739 -2.0083 -0.8496
13705TIP3   OH262529   4.860   3.806   3.706  0.7443 -0.0525 -0.5476
13705TIP3    H162530   4.942   3.757   3.694  0.4015 -0.5896 -0.7099
13705TIP3    H262531   4.791   3.740   3.699  0.2650  0.4927 -1.0165
13706TIP3   OH262532   3.805   6.360  17.039 -0.0266  0.2117  0.0169
13706TIP3    H162533   3.753   6.372  17.119  0.0993  0.0650  0.1202
13706TIP3    H262534   3.891   6.394  17.061 -0.6810  2.6402 -0.8861
13707TIP3   OH262535   2.296   0.787   4.192 -0.4532  0.4962  0.1511
13707TIP3    H162536   2.299   0.778   4.287  2.1072 -0.5770  0.0568
13707TIP3    H262537   2.230   0.724   4.164 -0.7818  0.3714  1.1759
13708TIP3   OH262538   2.731   5.197   2.187 -0.1734  0.6427 -0.7153
13708TIP3    H162539   2.725   5.164   2.277 -1.0300 -0.4017 -1.1374
13708TIP3    H262540   2.805   5.151   2.149  0.8570  1.8569 -0.2609
13709TIP3   OH262541   1.196   2.710  11.348  0.3533 -0.1298  0.6427
13709TIP3    H162542   1.186   2.769  11.423 -0.2071  0.0430  0.4318
13709TIP3    H262543   1.258   2.643  11.379  1.1029  0.6341  0.8383
13710TIP3   OH262544   0.567   5.331  17.396 -0.3209 -0.7885  0.2136
13710TIP3    H162545   0.511   5.303  17.323 -0.8603  1.0790 -0.1437
13710TIP3    H262546   0.506   5.371  17.458  0.2750 -1.3905  1.2067
13711TIP3   OH262547   6.519   2.731  15.503  0.3421 -0.0779  0.0235
13711TIP3    H162548   6.608   2.768  15.500  0.0635  0.9203  2.0316
13711TIP3    H262549   6.521   2.673  15.579 -0.1857 -1.6743 -1.1445
13712TIP3   OH262550   1.887   3.666   5.717 -0.3186 -0.0241  0.4905
13712TIP3    H162551   1.945   3.742   5.709 -0.7943  0.2892 -0.1296
13712TIP3    H262552   1.809   3.700   5.761 -0.6718 -0.0582 -0.0877
13713TIP3   OH262553   0.036   0.462  17.258 -0.3601 -0.2059  0.3278
13713TIP3    H162554   0.077   0.539  17.298 -1.8900  1.2471 -0.7680
13713TIP3    H262555   0.010   0.491  17.171 -0.6092 -2.1066 -0.2685
13714TIP3   OH262556   4.443   4.068   1.957  0.5877  0.1020  0.0065
13714TIP3    H162557   4.414   4.022   1.878  0.2850  0.5206 -0.1320
13714TIP3    H262558   4.537   4.055   1.960  0.6985  0.6673 -0.8140
13715TIP3   OH262559   0.143   2.152  16.831  0.1567 -0.6242  0.7200
13715TIP3    H162560   0.118   2.070  16.874 -2.3125 -0.3788 -0.1243
13715TIP3    H262561   0.171   2.209  16.903 -2.1995 -0.8103  1.8806
13716TIP3   OH262562   3.818   6.613  13.409  0.3923  0.1027  0.3173
13716TIP3    H162563   3.867   6.554  13.352  1.7515  0.5220  1.0055
13716TIP3    H262564   3.736   6.630  13.362 -0.5758 -3.1893  0.5859
13717TIP3   OH262565   3.257   3.655  14.529 -0.5074 -0.3114  0.3418
13717TIP3    H162566   3.275   3.735  14.579 -0.9688 -0.0261  0.0484
13717TIP3    H262567   3.318   3.591  14.566  0.0065  0.2237  0.4460
13718TIP3   OH262568   2.505   4.296  15.702 -0.6326  0.3338 -0.3790
13718TIP3    H162569   2.578   4.358  15.698 -0.1375  0.1265  2.7114
13718TIP3    H262570   2.528   4.227  15.641  1.4954  0.5817  0.0665
13719TIP3   OH262571   3.210   5.541  15.538  0.0215 -0.5732  0.2310
13719TIP3    H162572   3.208   5.521  15.632  0.6916 -3.8555 -0.3106
13719TIP3    H262573   3.297   5.577  15.524  0.0115 -0.2980  0.8240
13720TIP3   OH262574   5.398   5.857   3.027  0.6852  0.5427  0.4215
13720TIP3    H162575   5.388   5.836   2.934 -0.4479 -1.0022  0.8451
13720TIP3    H262576   5.311   5.886   3.054  0.6207 -0.4151  1.3072
13721TIP3   OH262577   4.368   1.665  16.345 -0.4752 -0.0981 -0.2653
13721TIP3    H162578   4.280   1.642  16.372 -0.8922  1.7431  0.0350
13721TIP3    H262579   4.389   1.602  16.276 -1.5809 -1.2438  0.4158
13722TIP3   OH262580   0.023   1.821   2.073 -0.1317  0.3292 -0.2189
13722TIP3    H162581   0.013   1.914   2.050  1.5913  0.2963 -1.2723
13722TIP3    H262582   0.057   1.822   2.162 -1.8841  0.6233  0.4857
13723TIP3   OH262583   2.540   1.674  14.895  0.1060  0.6002 -0.1171
13723TIP3    H162584   2.630   1.646  14.880 -0.3379 -0.9668 -0.0478
13723TIP3    H262585   2.527   1.748  14.835  1.4113  0.8180 -0.1530
13724TIP3   OH262586   5.564   3.320   1.084 -0.7311  0.2078 -0.1280
13724TIP3    H162587   5.545   3.412   1.065  0.7798  1.0325  2.0426
13724TIP3    H262588   5.508   3.271   1.023  0.6413  2.5159 -3.4893
13725TIP3   OH262589   2.226   3.857  15.844  0.6830 -0.4424  0.0421
13725TIP3    H162590   2.181   3.822  15.768  0.6496 -1.3981  0.4910
13725TIP3    H262591   2.230   3.952  15.828 -2.2151 -0.1652  0.3582
13726TIP3   OH262592   2.054   3.572  14.627 -0.1716  0.1636  0.7923
13726TIP3    H162593   2.010   3.595  14.709 -0.6672  0.3792  0.4734
13726TIP3    H262594   2.080   3.481  14.638  1.2819  0.6790  1.8524
13727TIP3   OH262595   5.345   2.122   5.648  0.1836 -0.3813 -0.0033
13727TIP3    H162596   5.347   2.046   5.589  0.1773 -0.6411  0.3303
13727TIP3    H262597   5.406   2.184   5.608 -1.8551  0.6153 -1.8260
13728TIP3   OH262598   1.845   2.491   0.240  0.3110  0.0700 -0.5331
13728TIP3    H162599   1.864   2.569   0.188  3.9097  0.7561  1.4840
13728TIP3    H262600   1.929   2.444   0.243 -1.1101 -2.5935  0.4227
13729TIP3   OH262601   0.293   3.656   2.600  0.3058  0.1133  0.3314
13729TIP3    H162602   0.252   3.582   2.555  0.5934  0.4082 -0.4269
13729TIP3    H262603   0.348   3.615   2.667  1.9202 -0.4559 -1.2822
13730TIP3   OH262604   6.392   5.823   1.008 -0.0597 -0.4388  0.4193
13730TIP3    H162605   6.418   5.808   0.918 -1.0592  0.3226 -0.0127
13730TIP3    H262606   6.296   5.827   1.006 -0.1607 -1.4291  1.6745
13731TIP3   OH262607   3.524   3.832   3.826  0.4351 -0.1796  0.1388
13731TIP3    H162608   3.520   3.923   3.857  0.3467 -0.1654  0.0868
13731TIP3    H262609   3.584   3.789   3.887 -1.0294 -0.5488  1.3729
13732TIP3   OH262610   2.413   0.318   6.108 -0.3773 -0.4836 -1.0182
13732TIP3    H162611   2.442   0.227   6.116 -3.5629 -1.4456  2.8331
13732TIP3    H262612   2.475   0.368   6.161  0.2996 -0.6612 -1.6221
13733TIP3   OH262613   6.607   5.900   6.644 -0.1872  0.0708 -0.6476
13733TIP3    H162614   6.530   5.955   6.630  0.7371  2.0748  1.5701
13733TIP3    H262615   6.667   5.923   6.572 -2.0980 -2.7305 -3.4210
13734TIP3   OH262616   4.839   4.199   4.653 -0.5504 -0.3427 -0.4489
13734TIP3    H162617   4.899   4.264   4.689  1.9181 -2.8479  0.2924
13734TIP3    H262618   4.881   4.170   4.572 -1.9736 -0.5491 -1.1526
13735TIP3   OH262619   6.057   6.415  13.786 -0.6755 -0.9888 -0.5258
13735TIP3    H162620   6.076   6.401  13.879 -0.4617  0.4261 -0.3396
13735TIP3    H262621   5.981   6.359  13.769 -1.1573 -0.7470  0.6808
13736TIP3   OH262622   4.176   3.291   2.343  0.3194  1.1352 -0.0548
13736TIP3    H162623   4.110   3.227   2.372  1.5478  0.2259  0.8487
13736TIP3    H262624   4.178   3.356   2.413  0.5949  0.9813  0.0847
13737TIP3   OH262625   2.062   4.369   1.200  0.3108 -0.1294 -0.3274
13737TIP3    H162626   2.066   4.456   1.239  0.5100 -0.7864  1.2253
13737TIP3    H262627   2.084   4.381   1.108  0.6888  1.3956 -0.0513
13738TIP3   OH262628   4.469   6.561   3.398 -0.2545  1.0954  0.1272
13738TIP3    H162629   4.445   6.507   3.323  0.9091  0.7658 -0.0239
13738TIP3    H262630   4.390   6.564   3.452  0.1280 -2.2847  1.0511
13739TIP3   OH262631   4.059   4.645  12.036 -0.3632 -0.1587 -0.3499
13739TIP3    H162632   4.094   4.701  11.967  0.9759 -0.9633 -0.3574
13739TIP3    H262633   4.121   4.653  12.108 -0.3943 -1.2557 -0.1810
13740TIP3   OH262634   5.334   3.570  12.855 -0.5910 -0.2758 -0.4608
13740TIP3    H162635   5.282   3.645  12.824  1.6675  0.7934 -1.8885
13740TIP3    H262636   5.413   3.610  12.893  0.1597 -1.9152 -0.2306
13741TIP3   OH262637   3.995   2.848  16.635 -0.5485 -0.5888  0.5676
13741TIP3    H162638   4.017   2.755  16.644 -0.3630 -0.6763 -0.5996
13741TIP3    H262639   4.032   2.873  16.550 -1.0727  0.4156  0.6211
13742TIP3   OH262640   2.503   6.135  12.415 -0.0877  0.2793  0.7290
13742TIP3    H162641   2.520   6.069  12.348 -1.0866 -0.0206  0.7529
13742TIP3    H262642   2.550   6.104  12.492  0.0073 -0.0473  0.5410
13743TIP3   OH262643   2.565   2.771   3.599 -0.2743  0.2832  0.5243
13743TIP3    H162644   2.615   2.694   3.570 -0.8604 -0.2451  0.8980
13743TIP3    H262645   2.478   2.737   3.621  0.0349  0.6928  2.6018
13744TIP3   OH262646   5.526   1.788   2.742  0.2905  0.7481  0.2230
13744TIP3    H162647   5.531   1.761   2.833  1.3643 -0.6910 -0.2163
13744TIP3    H262648   5.557   1.711   2.693 -2.6480  0.5119 -1.5148
13745TIP3   OH262649   4.225   4.017  15.144 -0.3841 -0.8710  0.0134
13745TIP3    H162650   4.245   3.993  15.235 -1.1119 -0.5366  0.2716
13745TIP3    H262651   4.192   4.107  15.150  0.6050 -0.4450 -0.7235
13746TIP3   OH262652   0.363   4.887  13.818  0.8726  0.3839  0.7831
13746TIP3    H162653   0.313   4.875  13.737  0.9342  0.5588  0.7178
13746TIP3    H262654   0.348   4.807  13.868  0.8892  0.2460  0.5678
13747TIP3   OH262655   3.289   4.574  15.668 -0.3230  0.3410  0.3406
13747TIP3    H162656   3.325   4.510  15.729  0.6761 -0.2209 -0.8020
13747TIP3    H262657   3.268   4.524  15.589 -0.3484  1.2652 -0.2599
13748TIP3   OH262658   3.665   3.069  16.038 -0.3504 -0.7282  0.0645
13748TIP3    H162659   3.708   2.988  16.010  1.4445  1.2224 -3.5164
13748TIP3    H262660   3.730   3.137  16.022 -2.8874  1.7914 -0.1902
13749TIP3   OH262661   6.437   4.315   0.576 -0.0449  0.3427 -0.4218
13749TIP3    H162662   6.508   4.257   0.603 -0.6809 -0.4842 -0.4631
13749TIP3    H262663   6.362   4.287   0.628 -0.5429  0.6726 -0.9434
13750TIP3   OH262664   5.121   0.586   4.048 -0.2697 -0.1700  0.5444
13750TIP3    H162665   5.207   0.625   4.064 -0.4492  0.0190  1.0837
13750TIP3    H262666   5.062   0.633   4.107 -0.6510 -0.6554  0.5617
13751TIP3   OH262667   0.904   2.647  17.269 -0.5187 -0.0372  0.5276
13751TIP3    H162668   0.815   2.642  17.303  0.1962  0.3059  2.5818
13751TIP3    H262669   0.955   2.589  17.326  0.7741  0.6480  0.1116
13752TIP3   OH262670   2.096   2.610   3.846  0.1209 -0.1412  0.4392
13752TIP3    H162671   2.086   2.515   3.842 -2.8730  0.0733  0.4702
13752TIP3    H262672   2.161   2.630   3.778  1.7361 -2.2287  1.2323
13753TIP3   OH262673   5.739   6.489   5.721 -0.6717  0.1975  0.1007
13753TIP3    H162674   5.699   6.566   5.681 -0.5741  1.0645  1.6249
13753TIP3    H262675   5.675   6.419   5.706 -0.2909  0.2617 -2.2469
13754TIP3   OH262676   1.729   2.918  17.184 -0.1005 -0.6297 -0.2104
13754TIP3    H162677   1.753   2.862  17.258  0.5752 -0.7429 -0.5091
13754TIP3    H262678   1.645   2.956  17.209 -0.6031 -1.8229 -0.0164
13755TIP3   OH262679   3.937   2.699  14.852  0.6026  0.3929 -0.3988
13755TIP3    H162680   3.937   2.777  14.907  0.7207  1.3382 -1.6971
13755TIP3    H262681   3.980   2.726  14.771  1.2312 -1.1967 -0.6452
13756TIP3   OH262682   0.158   1.939  12.405 -0.5872  0.0925  0.1129
13756TIP3    H162683   0.077   1.919  12.452 -1.5107  1.0763 -0.9777
13756TIP3    H262684   0.131   1.946  12.313  0.5095  1.5993 -0.1342
13757TIP3   OH262685   5.748   4.921  16.634  0.3648  0.4107 -0.0021
13757TIP3    H162686   5.833   4.884  16.657  0.0367  0.0750  0.7118
13757TIP3    H262687   5.689   4.889  16.702 -1.0278 -1.9612 -2.1496
13758TIP3   OH262688   5.598   5.602   1.703  0.5252 -0.4646 -0.5248
13758TIP3    H162689   5.511   5.602   1.744  1.2102 -0.4133  1.0037
13758TIP3    H262690   5.658   5.614   1.776  2.0391 -3.7288 -1.0569
13759TIP3   OH262691   1.634   0.625  16.135  0.1856 -0.3719 -0.6787
13759TIP3    H162692   1.668   0.676  16.208  0.5574  1.0732 -1.8280
13759TIP3    H262693   1.684   0.543  16.138  1.2077  0.2469 -0.1522
13760TIP3   OH262694   5.528   0.468  14.835  0.1588 -0.0121 -0.6205
13760TIP3    H162695   5.582   0.434  14.764  0.4253  0.2949 -0.5653
13760TIP3    H262696   5.509   0.559  14.810  0.8685  0.3367  0.0484
13761TIP3   OH262697   3.473   1.102  13.742 -0.0689 -0.1249 -0.6944
13761TIP3    H162698   3.463   1.030  13.680 -1.2902 -1.3414  0.8149
13761TIP3    H262699   3.428   1.072  13.821  0.0380  2.0040  0.2587
13762TIP3   OH262700   0.513   0.290   3.816  0.1106  0.3729  0.0539
13762TIP3    H162701   0.470   0.330   3.741 -1.0915  0.9567  1.0311
13762TIP3    H262702   0.517   0.197   3.794  1.4729  0.7595 -1.5258
13763TIP3   OH262703   2.100   1.783   5.801  0.1895 -0.2908  0.1123
13763TIP3    H162704   2.109   1.854   5.863 -0.4109 -0.1987  0.0988
13763TIP3    H262705   2.119   1.822   5.716  1.0950 -0.4360  0.2366
13764TIP3   OH262706   3.156   2.054   5.030 -0.0755  1.0843  1.0983
13764TIP3    H162707   3.177   2.134   5.079 -0.1613  1.7808  0.0149
13764TIP3    H262708   3.238   2.029   4.989 -0.0538  0.6077  1.4234
13765TIP3   OH262709   6.190   2.935   0.477 -0.2105 -0.2741 -0.1308
13765TIP3    H162710   6.175   3.016   0.525  0.2375  0.0274 -0.4968
13765TIP3    H262711   6.122   2.934   0.410 -0.2227 -0.2089 -0.1196
13766TIP3   OH262712   6.448   0.247  14.146  0.2502  0.0331 -1.0352
13766TIP3    H162713   6.387   0.178  14.119  0.8260 -1.1967  0.6501
13766TIP3    H262714   6.529   0.201  14.166  0.1723  0.9153  1.7491
13767TIP3   OH262715   3.133   4.366  15.887  0.2225  0.0845  0.4215
13767TIP3    H162716   3.102   4.349  15.976 -0.6734 -0.1364  0.0770
13767TIP3    H262717   3.222   4.399  15.899  1.1474 -2.4757  1.2674
13768TIP3   OH262718   5.757   1.657   4.661 -0.0140  0.9462 -0.5205
13768TIP3    H162719   5.824   1.724   4.652 -2.1416  3.1188 -1.2265
13768TIP3    H262720   5.728   1.639   4.572 -1.9237  1.8036 -0.1323
13769TIP3   OH262721   2.982   4.904   0.324 -0.4577  0.0744 -0.4353
13769TIP3    H162722   2.911   4.908   0.387  2.3980  0.6060  3.0686
13769TIP3    H262723   3.008   4.812   0.322 -2.0171 -0.4163 -2.8862
13770TIP3   OH262724   3.074   4.266  16.733  0.2641 -0.5407 -0.2567
13770TIP3    H162725   3.105   4.227  16.814  0.0652  1.0146  0.5975
13770TIP3    H262726   3.014   4.335  16.760  1.6208  1.2789 -1.5963
13771TIP3   OH262727   5.095   0.958   2.995 -0.5250  0.0312  0.1408
13771TIP3    H162728   5.123   0.923   3.080  2.6590  0.3300 -0.6905
13771TIP3    H262729   5.090   1.053   3.009 -0.2489  0.0579  0.0579
13772TIP3   OH262730   1.464   0.309  11.507 -0.0167  0.2226  0.2358
13772TIP3    H162731   1.420   0.227  11.482  2.4674 -1.7964  1.9502
13772TIP3    H262732   1.495   0.346  11.425 -0.2807 -1.1151 -0.4950
13773TIP3   OH262733   0.385   5.094  12.834 -0.3135 -0.3545 -0.3812
13773TIP3    H162734   0.315   5.124  12.892  0.0798 -1.0093  0.4578
13773TIP3    H262735   0.420   5.016  12.877  2.2084  0.9927  0.2222
13774TIP3   OH262736   3.760   5.964   3.493  0.4300  0.3353  0.1907
13774TIP3    H162737   3.698   5.927   3.556  0.5495  0.8591  0.6231
13774TIP3    H262738   3.778   5.892   3.432  0.9603 -0.4563  1.2466
13775TIP3   OH262739   6.219   2.077   5.561 -0.4880 -0.6359 -0.3155
13775TIP3    H162740   6.163   2.148   5.594 -0.2880 -0.0260 -1.2450
13775TIP3    H262741   6.166   2.034   5.494 -0.3165 -0.8651 -0.3046
13776TIP3   OH262742   1.082   4.219   2.349 -0.0017  0.1072 -0.2406
13776TIP3    H162743   1.119   4.187   2.431  1.3518  0.7150 -0.5989
13776TIP3    H262744   1.150   4.274   2.311 -1.2407  1.1926 -0.9725
13777TIP3   OH262745   3.538   3.640   5.330  0.0491 -0.0104 -0.2792
13777TIP3    H162746   3.610   3.587   5.295 -0.7271  0.0972 -2.1182
13777TIP3    H262747   3.561   3.730   5.307  0.0867  0.2081  0.5578
13778TIP3   OH262748   0.799   0.727  15.940  0.1898  0.9303  1.0734
13778TIP3    H162749   0.737   0.723  16.012 -1.2334  2.5920  0.0473
13778TIP3    H262750   0.835   0.816  15.944 -1.1285  1.6664 -1.1030
13779TIP3   OH262751   0.632   5.004  13.210  0.3335 -0.6942  0.3284
13779TIP3    H162752   0.634   4.916  13.172  0.7958 -1.2746  1.6224
13779TIP3    H262753   0.556   5.002  13.269 -0.3740  0.1838 -0.5272
13780TIP3   OH262754   1.139   6.249  15.236  0.4084  0.0401 -0.3672
13780TIP3    H162755   1.067   6.271  15.176  0.1334 -1.1052 -0.4832
13780TIP3    H262756   1.159   6.157  15.217  0.1028 -0.4520  1.5037
13781TIP3   OH262757   2.994   0.983  11.123  0.1161  0.2007  0.3448
13781TIP3    H162758   3.036   0.898  11.110 -1.1659 -0.1448 -2.1790
13781TIP3    H262759   3.057   1.047  11.091  0.4293  0.0860  0.7189
13782TIP3   OH262760   4.910   6.103  16.700 -0.3077 -0.3256 -0.3093
13782TIP3    H162761   4.985   6.089  16.642 -1.6707 -0.8108 -2.0294
13782TIP3    H262762   4.929   6.050  16.777  0.4923 -1.5179 -1.2936
13783TIP3   OH262763   5.957   6.550   1.555  0.0434 -0.5154 -0.3136
13783TIP3    H162764   5.868   6.523   1.535 -0.0258  0.0214 -0.7580
13783TIP3    H262765   5.993   6.580   1.471 -1.0345  4.0683  0.6033
13784TIP3   OH262766   6.318   0.358  12.367  0.1913  0.3515 -0.3356
13784TIP3    H162767   6.328   0.288  12.430 -0.5871  0.2114 -0.3494
13784TIP3    H262768   6.353   0.436  12.410 -0.1083  0.2052  0.1748
13785TIP3   OH262769   3.097   1.061   2.610  0.6247 -0.1750  0.4523
13785TIP3    H162770   3.136   1.034   2.693  0.7585  0.5759  0.6405
13785TIP3    H262771   3.156   1.129   2.578  0.3864 -0.2261 -0.0989
13786TIP3   OH262772   4.247   1.674  12.976 -0.2810 -0.0619 -0.2370
13786TIP3    H162773   4.243   1.687  13.070  1.0327 -0.3134 -0.1268
13786TIP3    H262774   4.338   1.694  12.952 -0.5408 -0.1867 -1.4167
13787TIP3   OH262775   3.261   3.098   0.079  0.1317  0.0560  0.6807
13787TIP3    H162776   3.302   3.028   0.130 -0.3824 -0.3715  0.5128
13787TIP3    H262777   3.167   3.084   0.089 -0.0458 -1.1738 -1.8387
13788TIP3   OH262778   5.155   6.407  14.576 -0.9996  0.1891 -0.0371
13788TIP3    H162779   5.207   6.427  14.498 -0.0235 -1.0362  0.2528
13788TIP3    H262780   5.097   6.336  14.548  0.0003 -0.9087  0.5405
13789TIP3   OH262781   0.393   1.799   3.336  0.2172  0.6657 -0.1092
13789TIP3    H162782   0.472   1.770   3.289 -0.0715 -0.4570  0.0544
13789TIP3    H262783   0.426   1.827   3.422  0.2744 -1.6847  0.7097
13790TIP3   OH262784   2.605   2.765   0.001  0.2870 -0.1048  0.0980
13790TIP3    H162785   2.675   2.700  -0.011  0.7946  0.8831 -3.6252
13790TIP3    H262786   2.631   2.815   0.078  1.4954 -2.3232  1.2124
13791TIP3   OH262787   1.316   2.630  12.352  0.7546 -0.7815 -0.7692
13791TIP3    H162788   1.366   2.613  12.432  0.0045  2.4913  0.5931
13791TIP3    H262789   1.371   2.690  12.302 -0.1924 -0.1203 -1.0516
13792TIP3   OH262790   3.072   2.920  12.215  0.1131  0.1819  0.3307
13792TIP3    H162791   3.076   2.824  12.225  0.4812 -0.1031 -2.0228
13792TIP3    H262792   3.011   2.948  12.282  0.2250 -1.6685  1.2847
13793TIP3   OH262793   5.656   1.715  16.594  0.5491  0.2031 -0.6426
13793TIP3    H162794   5.674   1.631  16.636 -0.3130 -0.4656 -1.5506
13793TIP3    H262795   5.729   1.771  16.619  0.3331 -0.3123  1.2786
13794TIP3   OH262796   0.098   4.060   1.168 -0.5916 -0.2431 -0.3833
13794TIP3    H162797   0.132   4.023   1.086  1.3919 -0.4312  0.4572
13794TIP3    H262798   0.094   4.154   1.151 -1.4944 -0.4014 -1.1198
13795TIP3   OH262799   0.066   0.745  11.079  0.4036 -0.6211  0.7363
13795TIP3    H162800   0.039   0.814  11.140  0.2612 -1.0302  1.1458
13795TIP3    H262801   0.087   0.670  11.136  0.7836 -0.8393  0.3137
13796TIP3   OH262802   0.933   2.387   4.049  0.2546  0.4130 -0.3466
13796TIP3    H162803   0.930   2.380   3.953  1.0876 -3.5184 -0.2536
13796TIP3    H262804   1.017   2.429   4.067  0.1967  0.9875 -1.3122
13797TIP3   OH262805   4.584   3.916   6.401  0.4170 -0.2954 -0.2683
13797TIP3    H162806   4.517   3.981   6.380  0.3250 -1.1111 -2.6955
13797TIP3    H262807   4.661   3.968   6.423 -0.2443  0.6269 -0.0749
13798TIP3   OH262808   0.934   2.847   5.618  0.3346 -0.4593 -0.1734
13798TIP3    H162809   0.963   2.883   5.702 -0.9001  2.0137 -0.7231
13798TIP3    H262810   0.842   2.825   5.632  0.3711 -0.9036 -0.6211
13799TIP3   OH262811   1.475   0.830  13.412  0.1703 -0.1246  0.3646
13799TIP3    H162812   1.428   0.911  13.432 -0.1176  0.2002 -1.4864
13799TIP3    H262813   1.439   0.766  13.475 -2.2666  0.2913 -0.4720
13800TIP3   OH262814   3.145   5.326  11.536 -0.2110 -0.3765 -0.4103
13800TIP3    H162815   3.152   5.285  11.450 -0.3837 -1.2381 -0.0237
13800TIP3    H262816   3.207   5.279  11.591 -0.5072 -0.2103  0.0800
13801TIP3   OH262817   2.186   4.794  11.215  0.0252 -0.0076  0.1233
13801TIP3    H162818   2.143   4.721  11.172  0.8961 -0.1382 -0.5817
13801TIP3    H262819   2.116   4.854  11.238 -0.5499 -0.3024 -0.8057
13802TIP3   OH262820   6.567   1.684   0.370  0.6123  0.4154  0.0231
13802TIP3    H162821   6.594   1.773   0.346  2.2475 -0.0156  0.1565
13802TIP3    H262822   6.585   1.632   0.292  0.1635  0.0854  0.1352
13803TIP3   OH262823   2.484   4.754  11.328  0.4755 -0.3046  0.0886
13803TIP3    H162824   2.395   4.783  11.309 -0.0419 -0.9200  1.3760
13803TIP3    H262825   2.519   4.821  11.386  0.3726 -0.6966  0.6147
13804TIP3   OH262826   6.708   0.111   5.772  0.1629  0.0076  0.3789
13804TIP3    H162827   6.707   0.018   5.751 -0.3932  0.0772  0.0650
13804TIP3    H262828   6.703   0.115   5.867 -2.5329 -0.2783  0.3261
13805TIP3   OH262829   0.500   2.035  17.209 -0.4184  0.2405 -0.0509
13805TIP3    H162830   0.465   2.069  17.127  0.8563  3.2031  0.4857
13805TIP3    H262831   0.589   2.006  17.186  0.4250  2.2589  0.3994
13806TIP3   OH262832   4.039   0.939  15.593  0.4746 -0.3831 -0.2760
13806TIP3    H162833   4.017   1.006  15.528 -0.0418 -0.3641 -0.0894
13806TIP3    H262834   4.075   0.867  15.542 -2.3703 -1.4603 -0.9289
13807TIP3   OH262835   2.252   5.052  12.949 -0.0206 -0.5133 -0.2800
13807TIP3    H162836   2.288   5.072  12.863  0.4469  0.0754  0.0492
13807TIP3    H262837   2.304   4.978  12.980 -0.9938 -1.5448 -1.0068
13808TIP3   OH262838   2.955   1.059  13.674  0.4916 -0.3401  0.6032
13808TIP3    H162839   2.955   1.141  13.624  0.5069 -0.5636  0.2370
13808TIP3    H262840   2.881   1.068  13.734 -0.4156 -0.6775 -0.4420
13809TIP3   OH262841   3.537   0.158  15.065  0.1144  0.4750 -0.1164
13809TIP3    H162842   3.479   0.134  14.993  1.2900 -1.6717 -0.4464
13809TIP3    H262843   3.625   0.152  15.028  0.7844 -1.2018  1.5562
13810TIP3   OH262844   3.199   0.462   3.824 -0.0858  0.2930 -0.1660
13810TIP3    H162845   3.144   0.426   3.894 -0.4786  0.4747 -0.3781
13810TIP3    H262846   3.151   0.539   3.792 -0.3094 -0.2600 -1.1909
13811TIP3   OH262847   2.521   1.528   3.326 -0.3542  0.4203  0.7831
13811TIP3    H162848   2.454   1.520   3.258  0.0870  2.4438  0.0019
13811TIP3    H262849   2.604   1.513   3.279 -0.1451  0.1407  1.2415
13812TIP3   OH262850   6.015   0.422   3.898 -0.1697  0.4250 -0.2478
13812TIP3    H162851   6.000   0.506   3.855 -1.8144  0.9261  1.1654
13812TIP3    H262852   5.931   0.400   3.938  0.4706 -1.4560  0.1972
13813TIP3   OH262853   2.191   1.337  15.955 -0.7972  0.1692  0.3827
13813TIP3    H162854   2.148   1.283  15.888  0.8563  0.1867 -0.7756
13813TIP3    H262855   2.144   1.420  15.953 -2.0901 -0.5370  0.7378
13814TIP3   OH262856   3.806   6.574   3.233  0.6336  0.1400  0.8850
13814TIP3    H162857   3.712   6.592   3.241  0.4225 -0.6778  0.3230
13814TIP3    H262858   3.815   6.533   3.147  1.4166 -0.3757  1.2065
13815TIP3   OH262859   1.719   4.895  13.227  0.4023 -0.2526  0.3414
13815TIP3    H162860   1.640   4.892  13.281  0.7343 -0.8638  0.7955
13815TIP3    H262861   1.742   4.988  13.225 -0.1441 -0.1087  0.4672
13816TIP3   OH262862   0.717   1.024  16.505  0.0360  0.4931  0.2175
13816TIP3    H162863   0.705   1.032  16.599 -0.4825  1.1435  0.1020
13816TIP3    H262864   0.782   1.091  16.483  1.3108 -0.6682  0.3214
13817TIP3   OH262865   5.438   3.998   4.403  0.4070 -0.9523  0.4082
13817TIP3    H162866   5.401   3.910   4.408  1.4671 -1.4570 -0.3982
13817TIP3    H262867   5.400   4.044   4.478  0.3135 -2.2673  1.1949
13818TIP3   OH262868   4.968   2.522   1.444 -0.2791  0.4202 -0.4316
13818TIP3    H162869   5.037   2.540   1.507 -1.2234  0.8542  0.5042
13818TIP3    H262870   4.891   2.566   1.479 -2.0636 -3.2068  0.6355
13819TIP3   OH262871   6.611   1.515  14.492  0.0910  0.1764  0.3002
13819TIP3    H162872   6.541   1.512  14.558  0.2219  1.8045  0.5480
13819TIP3    H262873   6.571   1.561  14.418  0.4360 -0.2660 -0.1658
13820TIP3   OH262874   3.989   1.673  14.189 -0.1716 -0.1283 -0.5336
13820TIP3    H162875   4.004   1.695  14.097  0.4955 -0.9027 -0.6235
13820TIP3    H262876   3.919   1.731  14.217 -0.5628 -0.0693 -1.6067
13821TIP3   OH262877   2.046   0.280  11.762  0.3654 -0.3407  0.1964
13821TIP3    H162878   1.986   0.282  11.688 -0.2677 -0.1055  0.7107
13821TIP3    H262879   2.123   0.328  11.732 -0.3442  0.7537  0.0795
13822TIP3   OH262880   1.772   3.801  14.900  0.7889  0.4853 -0.1108
13822TIP3    H162881   1.679   3.798  14.921  0.4784 -1.7795 -1.3852
13822TIP3    H262882   1.777   3.853  14.819  0.7692  1.3379  0.4269
13823TIP3   OH262883   4.268   0.230   4.184  0.9616  0.1278 -0.1518
13823TIP3    H162884   4.340   0.169   4.166  1.0183 -0.2175  1.1919
13823TIP3    H262885   4.200   0.204   4.122  0.5610 -2.0670  1.1192
13824TIP3   OH262886   5.737   3.017  16.017 -0.0703 -0.7184  0.0117
13824TIP3    H162887   5.758   3.067  15.939 -0.0996 -0.6346  0.0567
13824TIP3    H262888   5.804   2.949  16.022 -1.2069 -2.0198 -1.2219
13825TIP3   OH262889   2.450   4.236   2.518  0.1255 -0.5235 -0.2931
13825TIP3    H162890   2.534   4.201   2.548  1.8406 -0.2910 -4.2033
13825TIP3    H262891   2.420   4.291   2.590  2.2593 -2.2303  2.0663
13826TIP3   OH262892   4.910   4.947   3.737  0.3003 -0.1979 -0.4815
13826TIP3    H162893   4.941   5.038   3.742 -1.8273  0.6433 -1.5667
13826TIP3    H262894   4.967   4.906   3.672  2.7232 -0.3568  1.5600
13827TIP3   OH262895   1.140   3.853  15.936 -0.2172 -0.0322 -0.3253
13827TIP3    H162896   1.135   3.853  16.031 -0.6127 -0.6388 -0.3406
13827TIP3    H262897   1.116   3.764  15.911 -1.3758  0.4542 -1.0498
13828TIP3   OH262898   0.837   6.358   2.301  0.3819  0.4443 -0.2148
13828TIP3    H162899   0.774   6.315   2.358 -0.6076  0.3110 -1.3669
13828TIP3    H262900   0.813   6.329   2.213 -0.4327  3.4158 -1.0869
13829TIP3   OH262901   5.390   4.667   4.853  0.3556  0.5128 -0.5455
13829TIP3    H162902   5.302   4.639   4.825 -0.3203  1.5412  0.4940
13829TIP3    H262903   5.380   4.759   4.875  1.3755  0.3145  0.8905
13830TIP3   OH262904   0.249   1.941  17.302  0.2480 -0.8000  0.4642
13830TIP3    H162905   0.321   1.989  17.263 -0.8211  1.8496  1.5008
13830TIP3    H262906   0.195   2.008  17.344 -2.1661 -2.7860  0.7897
13831TIP3   OH262907   0.745   0.697  14.750  0.1962  0.2269  0.4468
13831TIP3    H162908   0.810   0.767  14.752 -0.5855  1.0038 -0.4376
13831TIP3    H262909   0.769   0.645  14.674 -0.0989  0.4054  0.2296
13832TIP3   OH262910   3.891   2.749  12.807 -0.2758  0.1082 -0.1712
13832TIP3    H162911   3.982   2.776  12.817 -0.2050 -0.6129  1.3603
13832TIP3    H262912   3.891   2.696  12.727  0.2650  1.5660 -1.2010
13833TIP3   OH262913   3.413   6.442   1.017  0.9199 -0.1067 -0.1273
13833TIP3    H162914   3.380   6.353   1.030  0.8154 -0.2363 -1.2307
13833TIP3    H262915   3.487   6.449   1.078 -0.4463 -0.1565  1.6215
13834TIP3   OH262916   4.792   2.935   4.554  0.3624 -0.8890  0.1480
13834TIP3    H162917   4.774   3.028   4.566  1.8743 -0.4427 -0.8017
13834TIP3    H262918   4.802   2.900   4.642 -1.6352 -0.4944  0.5882
13835TIP3   OH262919   3.759   0.252  11.960 -0.2803 -0.2601 -0.9937
13835TIP3    H162920   3.730   0.205  11.881  0.3590  0.5310 -1.7163
13835TIP3    H262921   3.846   0.218  11.978  0.1817  0.6299 -1.5154
13836TIP3   OH262922   2.379   1.207  11.039 -0.0468  0.6297  0.0674
13836TIP3    H162923   2.378   1.303  11.041  1.8048  0.7813 -2.2548
13836TIP3    H262924   2.323   1.184  10.966 -1.1174 -0.1579  1.0961
13837TIP3   OH262925   3.545   2.691  13.963  0.2204 -0.1479 -0.2769
13837TIP3    H162926   3.528   2.768  13.909  0.3026 -0.0528 -0.1643
13837TIP3    H262927   3.462   2.643  13.962  0.3439 -0.3620 -0.8404
13838TIP3   OH262928   0.369   4.780  11.541  0.3793 -0.5236  0.1606
13838TIP3    H162929   0.289   4.833  11.540  0.5800 -0.2145  0.2684
13838TIP3    H262930   0.433   4.832  11.491  0.0724 -1.4775 -1.2766
13839TIP3   OH262931   1.384   4.774  15.585  0.2120  0.1569 -0.0039
13839TIP3    H162932   1.316   4.757  15.520 -0.6276 -0.7390  1.0595
13839TIP3    H262933   1.462   4.797  15.533 -0.1126 -1.6086 -1.3922
13840TIP3   OH262934   6.210   6.701  16.555 -0.0379 -0.1003 -0.0478
13840TIP3    H162935   6.127   6.657  16.539  0.4973 -1.1526 -0.0388
13840TIP3    H262936   6.213   6.713  16.650  0.0749 -0.5944  0.0133
13841TIP3   OH262937   1.493   2.096   5.790  0.3275 -0.2134 -0.4004
13841TIP3    H162938   1.510   2.089   5.697  0.5633 -0.9207 -0.3067
13841TIP3    H262939   1.412   2.146   5.796  0.5725  0.2671 -0.9629
13842TIP3   OH262940   5.931   0.232  15.304  0.2374 -0.0146 -0.1641
13842TIP3    H162941   6.013   0.269  15.336  0.6396 -0.0197 -1.1395
13842TIP3    H262942   5.864   0.271  15.359  0.9165 -0.2647  0.8683
13843TIP3   OH262943   4.476   4.394   0.077  0.7182  0.8678  0.4752
13843TIP3    H162944   4.421   4.469   0.100 -0.6855  0.6497 -1.7869
13843TIP3    H262945   4.508   4.360   0.160 -0.0857  2.8812  1.6674
13844TIP3   OH262946   0.230   0.741   3.614 -0.6191 -0.0439  0.3425
13844TIP3    H162947   0.291   0.815   3.615 -1.0240  0.2979  0.9154
13844TIP3    H262948   0.218   0.721   3.522 -0.6886  0.7753  0.1616
13845TIP3   OH262949   1.868   1.819   2.252 -0.4296  0.2347  0.2741
13845TIP3    H162950   1.931   1.773   2.307 -0.7944 -0.8267 -0.1578
13845TIP3    H262951   1.921   1.874   2.194  0.0919 -0.4702  0.0725
13846TIP3   OH262952   4.147   2.413  12.978  0.4665 -0.2090 -0.0488
13846TIP3    H162953   4.081   2.411  13.047  1.1451  1.6494  0.7259
13846TIP3    H262954   4.221   2.365  13.015  0.0962 -1.0167 -0.3339
13847TIP3   OH262955   0.378   0.657  12.387 -0.4848 -0.4680 -0.0355
13847TIP3    H162956   0.413   0.701  12.465 -3.6753 -0.1526  1.3962
13847TIP3    H262957   0.393   0.719  12.316  1.4784 -0.2628  0.4988
13848TIP3   OH262958   4.390   6.148  14.790 -0.7607  0.1800  0.0001
13848TIP3    H162959   4.334   6.225  14.799 -0.6795  0.1476  0.8585
13848TIP3    H262960   4.432   6.138  14.875  1.5112  0.9141 -0.9640
13849TIP3   OH262961   2.593   4.054  13.570 -0.4061 -0.5601 -0.0140
13849TIP3    H162962   2.685   4.039  13.549 -0.1810 -0.5392  0.8883
13849TIP3    H262963   2.594   4.080  13.662 -1.3499 -0.9183  0.1079
13850TIP3   OH262964   6.089   5.416   2.138 -0.2855 -0.0964 -0.6444
13850TIP3    H162965   6.038   5.496   2.126 -1.5313 -1.0311 -1.8957
13850TIP3    H262966   6.164   5.426   2.079  0.1203  0.5630 -0.0371
13851TIP3   OH262967   5.052   0.114   3.254 -0.0457 -0.2158  0.5682
13851TIP3    H162968   5.022   0.144   3.340 -2.4782  0.2406 -0.3420
13851TIP3    H262969   5.018   0.179   3.193  1.5001 -0.6177 -0.7655
13852TIP3   OH262970   2.023   5.764   2.612 -0.3388  0.3064 -0.4511
13852TIP3    H162971   1.956   5.806   2.558 -2.4573 -1.7517  0.4310
13852TIP3    H262972   2.023   5.815   2.693  1.3056  2.0521 -1.4421
13853TIP3   OH262973   3.049   3.783  13.356  0.3447 -0.0929 -0.2809
13853TIP3    H162974   3.015   3.732  13.430  2.3417 -1.7979 -0.4660
13853TIP3    H262975   3.036   3.727  13.280  2.8462 -0.5246 -0.4590
13854TIP3   OH262976   4.300   2.208   1.266  0.7904  0.3650 -0.2579
13854TIP3    H162977   4.385   2.207   1.222  0.5514 -0.3196 -0.7196
13854TIP3    H262978   4.243   2.257   1.207 -0.0551 -2.2955 -1.7586
13855TIP3   OH262979   4.488   4.579   3.592 -0.7715  0.2202  0.5987
13855TIP3    H162980   4.473   4.563   3.685 -0.9835  0.3374  0.5849
13855TIP3    H262981   4.502   4.492   3.554  0.5879  0.2642  0.9588
13856TIP3   OH262982   0.238   6.454  16.894  0.5697  0.7330 -0.2695
13856TIP3    H162983   0.202   6.483  16.810 -1.6515 -2.2281 -0.4878
13856TIP3    H262984   0.321   6.412  16.872 -1.1733 -2.3421 -1.5192
13857TIP3   OH262985   6.491   4.613  12.335 -0.3535  0.1799 -0.2228
13857TIP3    H162986   6.563   4.582  12.389 -0.6851 -0.1330  0.0438
13857TIP3    H262987   6.437   4.666  12.394 -0.6220 -0.0154 -0.2904
13858TIP3   OH262988   6.358   1.000   5.353  0.3054  0.0225 -0.2937
13858TIP3    H162989   6.417   1.021   5.281  0.4126 -1.0566 -0.5448
13858TIP3    H262990   6.331   0.909   5.335  0.0247 -0.1201  0.8092
13859TIP3   OH262991   2.499   3.230  11.382  0.4488  0.5370 -0.5492
13859TIP3    H162992   2.515   3.136  11.393  0.9504  0.7801  0.9878
13859TIP3    H262993   2.584   3.266  11.355  0.6912  0.7744  0.4930
13860TIP3   OH262994   5.889   4.469  13.670  0.3579  0.6304  0.3356
13860TIP3    H162995   5.951   4.460  13.597  0.2669  1.5587  0.1348
13860TIP3    H262996   5.916   4.401  13.732 -1.5949 -2.4639 -1.9325
13861TIP3   OH262997   5.330   2.446   1.281 -0.1252 -0.2314  0.4368
13861TIP3    H162998   5.308   2.355   1.260 -0.5987 -0.9293  3.4856
13861TIP3    H262999   5.424   2.453   1.263 -0.1405 -1.2447 -0.0725
13862TIP3   OH263000   6.529   5.750  12.864  0.2178 -0.5784  0.3693
13862TIP3    H163001   6.574   5.769  12.946 -1.1077  0.6132  0.8582
13862TIP3    H263002   6.446   5.797  12.871 -0.0961 -0.7995 -1.4857
13863TIP3   OH263003   0.646   5.359  14.501 -0.3829  0.3504 -0.1338
13863TIP3    H163004   0.560   5.363  14.543 -0.4077 -0.9351 -0.0032
13863TIP3    H263005   0.650   5.270  14.465 -0.1099  1.1989 -2.3213
13864TIP3   OH263006   0.375   2.405  16.735 -0.8535  0.1700 -0.3459
13864TIP3    H163007   0.410   2.344  16.671 -0.9558 -0.3654  0.0956
13864TIP3    H263008   0.285   2.419  16.708 -1.0869 -0.5423  0.0144
13865TIP3   OH263009   1.875   5.003  12.034  0.1554 -0.6544  0.3291
13865TIP3    H163010   1.797   4.990  12.088 -1.0359 -1.1091 -1.4255
13865TIP3    H263011   1.865   5.092  12.000  0.2707 -0.8125 -0.1146
13866TIP3   OH263012   1.375   1.625   1.192 -0.0616  0.0145 -0.4997
13866TIP3    H163013   1.393   1.539   1.230  0.1811  0.6350  0.8361
13866TIP3    H263014   1.290   1.615   1.150  0.4818 -1.1946 -1.3824
13867TIP3   OH263015   6.130   2.153   1.749 -0.5221  0.2473 -0.7665
13867TIP3    H163016   6.096   2.068   1.723  0.0964  0.2686 -1.7165
13867TIP3    H263017   6.053   2.205   1.773 -0.9142 -0.5158 -0.3684
13868TIP3   OH263018   4.419   4.123   4.342 -0.0998  0.4499  0.2255
13868TIP3    H163019   4.477   4.173   4.400  0.2794  0.3613 -0.0694
13868TIP3    H263020   4.407   4.039   4.386  1.9613 -0.4617 -0.8260
13869TIP3   OH263021   5.300   2.514  16.376  0.1768 -0.2782  1.0003
13869TIP3    H163022   5.270   2.444  16.319  0.1141 -0.9399  1.8235
13869TIP3    H263023   5.394   2.517  16.364 -0.1469  2.3910 -2.2617
13870TIP3   OH263024   2.486   4.878  16.172 -0.0887  0.1789  0.6108
13870TIP3    H163025   2.519   4.868  16.083 -0.3284  1.0651  0.4156
13870TIP3    H263026   2.560   4.910  16.222 -0.2120  0.6171  0.5170
13871TIP3   OH263027   1.846   0.350  12.597 -0.3293 -0.4613  0.5839
13871TIP3    H163028   1.911   0.363  12.665  0.5628  3.3523 -0.7758
13871TIP3    H263029   1.762   0.370  12.639  0.1832  1.5971  0.7073
13872TIP3   OH263030   2.680   5.791  17.266  0.2375  0.2892  0.4757
13872TIP3    H163031   2.663   5.704  17.230  1.0275  1.3320 -2.8585
13872TIP3    H263032   2.764   5.782  17.311  0.8924 -0.4818 -0.8317
13873TIP3   OH263033   5.283   2.949  13.494  0.2267  0.2492  0.1213
13873TIP3    H163034   5.332   2.972  13.573 -1.1581 -0.3373  1.1982
13873TIP3    H263035   5.319   2.865  13.467  0.7540  0.4847  0.0746
13874TIP3   OH263036   5.523   0.584   3.286 -1.0389 -0.5720  0.1311
13874TIP3    H163037   5.491   0.568   3.197 -0.5999  1.5846 -0.4660
13874TIP3    H263038   5.618   0.593   3.275 -1.0392  0.2059  0.7354
13875TIP3   OH263039   4.404   0.382   6.188  0.3869  0.1249 -0.2841
13875TIP3    H163040   4.428   0.374   6.281  0.7384 -0.5457 -0.4285
13875TIP3    H263041   4.361   0.300   6.167  0.5050  0.1858 -0.7722
13876TIP3   OH263042   5.367   1.329   4.985  0.0010 -0.2236 -0.3407
13876TIP3    H163043   5.355   1.239   5.015  1.3680 -0.8175 -1.4676
13876TIP3    H263044   5.434   1.323   4.916 -0.3025  1.5777 -0.8433
13877TIP3   OH263045   3.316   5.468   4.269 -0.5172 -0.0209 -0.2540
13877TIP3    H163046   3.367   5.404   4.319  0.0178  0.4075 -0.2351
13877TIP3    H263047   3.226   5.456   4.299 -0.8111 -2.2016 -1.7524
13878TIP3   OH263048   6.636   3.135   0.056  0.0155 -0.0380  0.4093
13878TIP3    H163049   6.578   3.085   0.114  1.1811 -0.2295  1.4681
13878TIP3    H263050   6.595   3.130  -0.030  0.0511 -2.8663  0.4482
13879TIP3   OH263051   3.622   2.710  17.246  0.1376  0.6520  0.4313
13879TIP3    H163052   3.600   2.797  17.278 -0.6861 -0.0720  1.9247
13879TIP3    H263053   3.686   2.676  17.308 -1.9056 -0.9929  1.7896
13880TIP3   OH263054   2.986   6.362  16.986  0.1201  0.5141  0.0041
13880TIP3    H163055   2.957   6.358  17.077 -0.7566  0.8696 -0.2573
13880TIP3    H263056   2.955   6.447  16.955 -0.4328 -0.0153 -0.9103
13881TIP3   OH263057   4.717   1.005   1.729 -0.2503 -0.0636 -0.1433
13881TIP3    H163058   4.734   0.998   1.635  1.7214  1.7596  0.0101
13881TIP3    H263059   4.739   1.096   1.751  0.3119 -0.7230  2.2677
13882TIP3   OH263060   1.350   1.246  14.854  0.2535 -0.0268 -0.5129
13882TIP3    H163061   1.436   1.223  14.818  0.9001  0.9955  0.3293
13882TIP3    H263062   1.337   1.183  14.925  0.0644 -0.5026 -0.9597
13883TIP3   OH263063   4.763   6.448  11.706  0.0324  0.1057 -0.0977
13883TIP3    H163064   4.684   6.398  11.688  0.4620 -0.1344 -1.4040
13883TIP3    H263065   4.831   6.408  11.652  0.3826  2.0772 -1.2448
13884TIP3   OH263066   2.975   6.515  14.777  0.0177 -0.1774  0.1160
13884TIP3    H163067   2.956   6.423  14.759  1.8931 -0.4904 -0.4542
13884TIP3    H263068   2.899   6.545  14.827 -1.0772 -1.7636 -0.4889
13885TIP3   OH263069   0.992   4.693   2.313  0.4101 -0.0604  0.7722
13885TIP3    H163070   0.930   4.658   2.248  0.7933  0.1227  0.2960
13885TIP3    H263071   0.974   4.643   2.392 -1.1535  0.8016  0.9956
13886TIP3   OH263072   2.819   2.755  11.802 -0.5094  0.0467  0.1620
13886TIP3    H163073   2.861   2.741  11.887 -2.1857 -0.1719  0.9923
13886TIP3    H263074   2.781   2.670  11.780 -0.4654  0.2188 -0.6081
13887TIP3   OH263075   5.977   5.498   4.919 -0.3795  0.5296 -0.2026
13887TIP3    H163076   5.958   5.470   5.009 -1.5713  1.5011 -0.1221
13887TIP3    H263077   5.920   5.443   4.865  1.0179 -0.7117 -0.4732
13888TIP3   OH263078   0.378   1.918  13.833 -0.4011  0.0399 -0.7206
13888TIP3    H163079   0.284   1.919  13.850 -0.0396  2.0521  1.8652
13888TIP3    H263080   0.396   1.998  13.785  0.0878  0.1237 -0.4112
13889TIP3   OH263081   5.969   6.100  17.129  0.2103  0.0309 -0.2601
13889TIP3    H163082   5.880   6.064  17.139  0.2271  0.2992  0.9729
13889TIP3    H263083   5.966   6.183  17.176  1.6256 -0.8262  1.4726
13890TIP3   OH263084   0.794   1.615   3.022  0.0208 -0.4696 -0.1608
13890TIP3    H163085   0.753   1.551   2.964 -0.1612 -0.3944 -0.1158
13890TIP3    H263086   0.721   1.655   3.070 -0.0852  1.1644 -1.5687
13891TIP3   OH263087   4.043   6.191  12.888  0.0991 -0.4357  0.2285
13891TIP3    H163088   4.005   6.271  12.853  0.5105 -0.6956 -0.8521
13891TIP3    H263089   4.127   6.183  12.844 -0.6413 -2.3305 -1.0088
13892TIP3   OH263090   3.015   5.635   2.657  0.2995  0.0679 -0.6694
13892TIP3    H163091   3.024   5.727   2.685  1.0922 -0.1251 -0.2596
13892TIP3    H263092   2.924   5.613   2.677  0.6712  0.1174  1.3005
13893TIP3   OH263093   2.984   1.275   4.906 -0.6119  0.5772  0.3599
13893TIP3    H163094   3.060   1.329   4.932 -0.4201  0.2791  0.4251
13893TIP3    H263095   2.919   1.291   4.974 -1.5357  2.6799 -0.8952
13894TIP3   OH263096   2.585   2.588   4.361 -0.6109  1.0786  0.0506
13894TIP3    H163097   2.574   2.682   4.376 -2.4776  0.5528  2.6552
13894TIP3    H263098   2.509   2.564   4.308 -1.0311  0.8062  0.7601
13895TIP3   OH263099   1.438   5.034   0.962  0.2220 -0.2877  0.5867
13895TIP3    H163100   1.500   5.021   0.889  1.0533 -1.4038  1.4483
13895TIP3    H263101   1.479   5.102   1.016 -0.5085  0.7084 -0.0830
13896TIP3   OH263102   3.577   6.331   2.266  0.0240 -0.0075 -0.1201
13896TIP3    H163103   3.668   6.359   2.277 -0.3950  1.2381  0.3513
13896TIP3    H263104   3.529   6.412   2.249 -1.0754 -0.5803  0.1729
13897TIP3   OH263105   5.208   1.645   5.338 -0.2633  0.4270 -0.1441
13897TIP3    H163106   5.238   1.724   5.294 -2.3301 -0.3622 -3.3583
13897TIP3    H263107   5.285   1.589   5.342  1.0683  2.2263  1.5831
13898TIP3   OH263108   3.320   5.330   5.036  0.1380  0.3754  0.0062
13898TIP3    H163109   3.321   5.424   5.022  0.3326  0.1424 -1.8516
13898TIP3    H263110   3.339   5.293   4.949 -1.3298 -1.3920  0.3808
13899TIP3   OH263111   5.674   3.239  13.052 -0.5650  0.0595  0.8184
13899TIP3    H163112   5.764   3.236  13.019 -0.9555 -1.1603 -0.2320
13899TIP3    H263113   5.639   3.322  13.021 -1.0666 -1.2097 -2.4494
13900TIP3   OH263114   2.495   0.471   1.260  0.7228  0.2987  0.1645
13900TIP3    H163115   2.476   0.504   1.172  1.1764  0.9985  0.3192
13900TIP3    H263116   2.464   0.381   1.259 -0.8525  0.8093 -0.1878
13901TIP3   OH263117   0.729   5.899  11.399 -0.0703 -0.0091 -0.5493
13901TIP3    H163118   0.679   5.980  11.404 -0.4259 -0.2607  0.1266
13901TIP3    H263119   0.670   5.836  11.359 -0.4659 -0.4127  0.6174
13902TIP3   OH263120   1.598   6.244   2.485  0.2331 -0.6369  0.1209
13902TIP3    H163121   1.605   6.184   2.560 -0.6402  0.9167  1.5011
13902TIP3    H263122   1.510   6.228   2.450  0.6365 -1.3539 -0.5935
13903TIP3   OH263123   4.521   3.879   1.738  0.5905  0.2230  0.1603
13903TIP3    H163124   4.594   3.819   1.756  0.5328  0.5796  1.6366
13903TIP3    H263125   4.557   3.942   1.676  0.7169 -1.1741 -1.2781
13904TIP3   OH263126   5.519   1.196  14.259  0.5257  0.0528 -0.4606
13904TIP3    H163127   5.446   1.139  14.235 -0.3139  0.6452  0.6071
13904TIP3    H263128   5.562   1.150  14.332 -0.7620  1.1963  1.0892
13905TIP3   OH263129   0.184   3.751  12.714 -0.3020  0.4933  0.0811
13905TIP3    H163130   0.134   3.826  12.745 -0.4432 -0.0282  1.1487
13905TIP3    H263131   0.128   3.676  12.731  0.9440 -0.1363  1.5871
13906TIP3   OH263132   4.535   0.739  14.870 -0.6287  0.0641  0.3448
13906TIP3    H163133   4.536   0.834  14.879  0.2381  0.2390 -1.2480
13906TIP3    H263134   4.583   0.722  14.788 -3.5649 -1.5040 -1.2284
13907TIP3   OH263135   5.350   1.247  16.375 -0.4052  0.3807 -0.0129
13907TIP3    H163136   5.334   1.333  16.336  0.5503  1.1653  1.2492
13907TIP3    H263137   5.444   1.233  16.364 -0.6595 -0.7979 -0.7607
13908TIP3   OH263138   1.824   4.406   2.467 -0.2219 -0.6863 -0.4919
13908TIP3    H163139   1.831   4.311   2.472 -1.4680 -0.7168  1.4995
13908TIP3    H263140   1.857   4.437   2.551  1.0645  0.7333 -1.4748
13909TIP3   OH263141   3.635   3.387   3.160 -0.5018 -0.5516 -0.2411
13909TIP3    H163142   3.724   3.371   3.192 -0.8810 -0.6235  0.8046
13909TIP3    H263143   3.620   3.480   3.177 -1.6329 -1.1147  2.2453
13910TIP3   OH263144   0.405   3.554  13.305  0.4650 -0.4503  0.4086
13910TIP3    H163145   0.386   3.485  13.241 -0.9563  0.4099 -0.1348
13910TIP3    H263146   0.361   3.525  13.385  0.1109 -0.3169  0.2639
13911TIP3   OH263147   2.507   2.617  16.155  0.3706 -0.2817  0.1667
13911TIP3    H163148   2.529   2.571  16.236  0.3799  1.9587  1.5179
13911TIP3    H263149   2.433   2.568  16.118 -1.3440  0.0771  2.8973
13912TIP3   OH263150   3.653   4.952   1.807  0.0152 -0.2046  0.0945
13912TIP3    H163151   3.660   4.858   1.823 -1.1950 -0.3882 -0.3478
13912TIP3    H263152   3.689   4.993   1.886  0.3430 -1.0319  0.3870
13913TIP3   OH263153   2.379   6.407  16.662  0.2061  0.3882  0.0279
13913TIP3    H163154   2.295   6.367  16.685 -0.5272  0.8929 -1.5956
13913TIP3    H263155   2.389   6.479  16.724  0.0981 -0.4976  1.0897
13914TIP3   OH263156   5.702   2.712  11.986 -0.1883  0.0791 -0.1025
13914TIP3    H163157   5.734   2.640  12.039 -0.4491 -0.3547 -0.5309
13914TIP3    H263158   5.767   2.722  11.916  1.2119  1.9275  1.3533
13915TIP3   OH263159   5.061   4.302  16.603  0.2552 -0.8106 -0.3592
13915TIP3    H163160   5.079   4.394  16.620 -1.7379  0.1547 -2.7889
13915TIP3    H263161   5.024   4.269  16.685  1.8336  0.2661  0.8311
13916TIP3   OH263162   3.271   5.347   5.879 -0.1232 -0.4655  0.2621
13916TIP3    H163163   3.350   5.293   5.887 -0.0303 -0.6388 -1.4760
13916TIP3    H263164   3.295   5.429   5.922  1.1088 -0.4224 -0.4449
13917TIP3   OH263165   1.417   5.873   3.890  0.5430  0.3235 -0.3745
13917TIP3    H163166   1.400   5.965   3.910  1.6805  0.3894  0.3756
13917TIP3    H263167   1.336   5.843   3.848 -1.2727  0.7123  2.5631
13918TIP3   OH263168   4.829   3.657  15.995 -0.0234 -0.0034 -0.1585
13918TIP3    H163169   4.815   3.564  15.979 -0.0224 -0.4202  1.9877
13918TIP3    H263170   4.751   3.685  16.043 -0.1927  1.2183 -1.0974
13919TIP3   OH263171   2.476   4.998  12.533 -0.4946  0.2138  0.3202
13919TIP3    H163172   2.498   4.942  12.607  0.2958  2.2437  1.7079
13919TIP3    H263173   2.550   4.989  12.473  0.2062  0.6526  1.0945
13920TIP3   OH263174   5.093   3.388  13.509  0.4948 -0.3741 -1.1730
13920TIP3    H163175   5.133   3.469  13.542  0.8170 -1.3585  0.9901
13920TIP3    H263176   5.063   3.342  13.587 -0.0138 -2.2059 -2.3790
13921TIP3   OH263177   4.419   0.069  12.406  0.3168 -0.7182  0.1348
13921TIP3    H163178   4.442   0.153  12.446 -0.1358 -1.1973  1.4313
13921TIP3    H263179   4.326   0.078  12.385  0.2063 -0.9857  0.5065
13922TIP3   OH263180   2.692   6.509   3.152  0.4140 -0.1900 -0.4327
13922TIP3    H163181   2.694   6.415   3.171  1.4701 -0.1501 -0.2493
13922TIP3    H263182   2.642   6.547   3.224 -0.6568 -0.6791 -0.8939
13923TIP3   OH263183   1.767   0.196   0.009 -0.4458  1.0443  0.3370
13923TIP3    H163184   1.769   0.173   0.102  1.5168 -2.5969 -0.4142
13923TIP3    H263185   1.707   0.132  -0.029  2.2955 -0.6850 -1.4228
13924TIP3   OH263186   0.740   1.896  17.164 -0.4275 -0.0659 -0.0227
13924TIP3    H163187   0.703   1.809  17.158  0.1554 -0.3669  0.5616
13924TIP3    H263188   0.805   1.899  17.094  0.0271 -0.3478  0.3821
13925TIP3   OH263189   0.026   0.211  17.128  0.3279  0.5066 -0.1617
13925TIP3    H163190   0.014   0.297  17.168  0.5373  0.0844  0.8375
13925TIP3    H263191   0.116   0.188  17.147  0.2990  0.0965 -0.5045
13926TIP3   OH263192   6.440   1.319   3.224  0.4728 -0.5529 -0.1890
13926TIP3    H163193   6.503   1.259   3.183  0.1486 -0.9917 -0.0560
13926TIP3    H263194   6.354   1.283   3.201  0.2818 -0.4783  0.3972
13927TIP3   OH263195   5.048   4.471   3.015 -0.6096  0.3126 -0.6129
13927TIP3    H163196   5.120   4.527   3.042 -0.6222  0.4181 -0.7959
13927TIP3    H263197   5.085   4.414   2.947 -0.2185 -0.8802  0.5604
13928TIP3   OH263198   3.999   4.841  17.350  0.4592  0.6620  0.0945
13928TIP3    H163199   4.045   4.882  17.423 -0.1466  0.3928  0.6350
13928TIP3    H263200   3.953   4.767  17.388  1.7922 -0.7642 -0.9300
13929TIP3   OH263201   4.992   5.547   3.324  0.1272 -0.0589 -0.1044
13929TIP3    H163202   4.988   5.452   3.338  0.9043 -0.3474 -1.6710
13929TIP3    H263203   4.902   5.573   3.305 -0.1230 -0.4243  0.5296
13930TIP3   OH263204   5.710   2.498   3.570  0.7090  0.1183  0.3257
13930TIP3    H163205   5.702   2.590   3.545  0.8847  0.6893  2.2395
13930TIP3    H263206   5.709   2.451   3.486 -2.1863  1.5998 -0.6139
13931TIP3   OH263207   6.617   1.372   5.767 -0.1384 -0.0768 -0.7469
13931TIP3    H163208   6.690   1.429   5.793  0.9838 -0.1511 -3.3930
13931TIP3    H263209   6.613   1.381   5.672 -3.0707 -0.7704 -0.7708
13932TIP3   OH263210   0.418   6.688  14.223 -0.0601  0.0707  0.5304
13932TIP3    H163211   0.365   6.651  14.153  1.7966 -1.1364 -0.3320
13932TIP3    H263212   0.362   6.686  14.300 -1.8205  0.5064 -0.6840
13933TIP3   OH263213   1.097   3.937   6.162 -0.4775 -0.2932  0.6160
13933TIP3    H163214   1.029   3.923   6.229 -0.0945  0.4058  1.1630
13933TIP3    H263215   1.166   3.985   6.208 -0.0261 -0.1703 -0.1822
13934TIP3   OH263216   1.175   0.378  14.970 -0.7184  0.3312 -0.0121
13934TIP3    H163217   1.253   0.323  14.982  0.4777  1.6008 -1.3886
13934TIP3    H263218   1.191   0.453  15.028 -0.5483  0.9310 -0.8211
13935TIP3   OH263219   1.008   3.669   1.130  0.2457 -0.0383  0.2928
13935TIP3    H163220   1.081   3.613   1.155 -0.4149 -0.4904  1.2952
13935TIP3    H263221   0.933   3.633   1.177 -0.9779 -0.5605 -1.9110
13936TIP3   OH263222   6.230   3.018   4.925  0.7701 -0.6992 -0.4495
13936TIP3    H163223   6.234   2.923   4.936 -0.3142 -0.6173  0.9993
13936TIP3    H263224   6.227   3.053   5.015 -2.1242  0.4896 -0.8857
13937TIP3   OH263225   4.801   4.416  17.197 -0.1591  0.0447  0.1743
13937TIP3    H163226   4.731   4.442  17.137  0.8744  1.4629 -0.4768
13937TIP3    H263227   4.796   4.480  17.268  0.4862  0.1756  0.1073
13938TIP3   OH263228   1.562   5.618   3.842 -0.2756 -0.0036 -0.2628
13938TIP3    H163229   1.615   5.694   3.863  0.3076  0.1011 -1.9379
13938TIP3    H263230   1.477   5.654   3.817  0.0652  0.1295 -1.2589
13939TIP3   OH263231   5.638   3.107  12.022 -0.0694 -0.4580  0.0974
13939TIP3    H163232   5.710   3.061  12.065 -0.6204  0.2917  1.9020
13939TIP3    H263233   5.680   3.160  11.954  0.7208 -2.4534 -1.0580
13940TIP3   OH263234   5.444   4.367   2.987  0.2156 -0.8494  0.4260
13940TIP3    H163235   5.447   4.288   2.935 -2.0535  0.7060 -2.3211
13940TIP3    H263236   5.474   4.436   2.928 -0.9240  0.7866  1.6534
13941TIP3   OH263237   1.632   5.442   5.354 -0.8804 -0.1257  0.1222
13941TIP3    H163238   1.620   5.473   5.264 -0.2365 -1.1776 -0.3492
13941TIP3    H263239   1.690   5.366   5.345 -0.4438  0.0287  1.4792
13942TIP3   OH263240   3.201   5.436   3.768 -0.1931  1.4243 -0.0892
13942TIP3    H163241   3.167   5.459   3.854  0.7437 -0.3416  0.7956
13942TIP3    H263242   3.210   5.341   3.769  1.5290  1.5059 -1.4763
13943TIP3   OH263243   3.853   2.095   5.525  0.0988 -0.2561  0.3189
13943TIP3    H163244   3.909   2.154   5.475  1.9281 -2.0613  0.1176
13943TIP3    H263245   3.843   2.017   5.469 -0.0126 -1.2351  1.6523
13944TIP3   OH263246   2.372   0.097  11.644  0.2470 -0.9334  0.2042
13944TIP3    H163247   2.338   0.184  11.668 -3.5932 -1.2923 -2.8733
13944TIP3    H263248   2.433   0.115  11.572  0.5510 -0.7135  0.5131
13945TIP3   OH263249   5.433   3.220   6.652 -0.0871 -0.0858  0.1062
13945TIP3    H163250   5.405   3.181   6.734  1.2123 -0.9031  0.1986
13945TIP3    H263251   5.364   3.198   6.589 -1.2115  0.7549  0.9974
13946TIP3   OH263252   0.707   0.848   1.130 -0.4042 -0.4127  0.5812
13946TIP3    H163253   0.676   0.778   1.073 -0.1571 -0.7633  0.8711
13946TIP3    H263254   0.766   0.804   1.192  0.9281  0.2784 -0.1518
13947TIP3   OH263255   3.949   2.307  15.438  0.2832 -0.1165 -0.0927
13947TIP3    H163256   4.032   2.294  15.483  0.3572 -2.5093 -0.7724
13947TIP3    H263257   3.973   2.321  15.346 -0.0086 -3.1954 -0.7566
13948TIP3   OH263258   1.636   5.656   2.620 -0.0897  0.1736 -0.2909
13948TIP3    H163259   1.542   5.669   2.607  0.0251  1.1382 -0.2265
13948TIP3    H263260   1.651   5.684   2.711  0.1979 -0.3663 -0.1670
13949TIP3   OH263261   6.642   1.175   2.716  0.2162  0.2821 -0.5521
13949TIP3    H163262   6.553   1.144   2.729  0.2207  0.3510 -0.3510
13949TIP3    H263263   6.637   1.232   2.639  0.2090 -0.2140 -0.9205
13950TIP3   OH263264   4.299   4.481  16.809  0.1719 -0.4413  0.0453
13950TIP3    H163265   4.352   4.412  16.770 -0.5710 -1.3215  0.5410
13950TIP3    H263266   4.209   4.451  16.799 -0.0754 -0.5042  1.9846
13951TIP3   OH263267   1.176   4.392  11.449  0.1486 -0.2120 -0.8827
13951TIP3    H163268   1.251   4.449  11.433  1.3187 -1.6824 -0.8533
13951TIP3    H263269   1.197   4.311  11.403 -0.6391 -1.2540  0.5101
13952TIP3   OH263270   6.292   1.075  15.497 -0.3166 -0.3892 -0.4255
13952TIP3    H163271   6.237   1.093  15.573 -0.9109 -2.2769 -0.3450
13952TIP3    H263272   6.291   0.979  15.490  1.4755 -0.3655 -1.5320
13953TIP3   OH263273   5.919   1.321   2.779  0.6577  0.3071 -0.2633
13953TIP3    H163274   5.852   1.386   2.801 -0.2194  0.2661 -2.5145
13953TIP3    H263275   5.984   1.329   2.849 -1.0403  1.2572  1.3174
13954TIP3   OH263276   0.849   0.094   6.388  0.3266 -0.7511  0.6929
13954TIP3    H163277   0.857  -0.002   6.381 -0.5006 -0.7404 -1.1632
13954TIP3    H263278   0.934   0.122   6.422  1.2125 -2.0339 -0.3192
13955TIP3   OH263279   3.178   3.225   3.229 -0.7212  0.2343 -0.0263
13955TIP3    H163280   3.231   3.248   3.305 -0.0467 -1.4151  0.0387
13955TIP3    H263281   3.110   3.293   3.226  0.8651  1.9161  0.3715
13956TIP3   OH263282   1.430   1.420   2.718  0.2077  0.0488 -0.6302
13956TIP3    H163283   1.371   1.403   2.644  0.4508 -1.0671 -0.5852
13956TIP3    H263284   1.463   1.508   2.701 -0.4503  0.1774 -1.3593
13957TIP3   OH263285   3.154   2.320  12.029  0.2999  0.0866 -0.0381
13957TIP3    H163286   3.139   2.265  11.952  1.1651  0.6467 -0.6308
13957TIP3    H263287   3.075   2.309  12.082  1.0401 -2.8688  0.6104
13958TIP3   OH263288   6.182   1.330  17.109  0.0573  0.4617 -0.5586
13958TIP3    H163289   6.155   1.239  17.099  2.3503 -0.2187 -1.2968
13958TIP3    H263290   6.148   1.374  17.031 -0.7222  0.1683 -0.3968
13959TIP3   OH263291   2.094   1.922   1.647 -0.1769  0.0645  0.3137
13959TIP3    H163292   2.143   1.999   1.616  0.2907  0.2570  1.4864
13959TIP3    H263293   2.102   1.859   1.576  3.5227 -0.6903  1.1969
13960TIP3   OH263294   5.545   5.294  13.827  0.1642  0.2316 -1.0516
13960TIP3    H163295   5.473   5.315  13.887  0.0903  2.0884 -1.7244
13960TIP3    H263296   5.530   5.203  13.803 -0.4438 -0.2266  0.8508
13961TIP3   OH263297   0.602   3.517  17.374 -0.3743 -0.8558 -0.1692
13961TIP3    H163298   0.515   3.543  17.342 -0.2988 -0.9581 -0.4575
13961TIP3    H263299   0.602   3.421  17.368  0.0419 -0.8173 -0.9120
13962TIP3   OH263300   6.570   4.418   0.833  0.0445  0.6662  0.6844
13962TIP3    H163301   6.503   4.485   0.831 -2.7119 -1.8520  1.1190
13962TIP3    H263302   6.591   4.408   0.926  0.7213  1.1408  0.5888
13963TIP3   OH263303   3.587   6.424  11.832 -0.4103  0.1876  0.5321
13963TIP3    H163304   3.550   6.338  11.852 -1.4023  0.0990 -1.4187
13963TIP3    H263305   3.571   6.436  11.739 -0.6690  2.6770  0.8245
13964TIP3   OH263306   4.331   6.229   3.716  0.0974 -0.0960  0.9774
13964TIP3    H163307   4.329   6.308   3.770 -0.7521  1.7511 -1.5640
13964TIP3    H263308   4.243   6.191   3.725  0.1878 -0.1950  1.4372
13965TIP3   OH263309   6.036   2.687  14.628 -0.5136  0.0269 -0.0711
13965TIP3    H163310   5.987   2.628  14.571  0.7138 -0.4567 -0.6601
13965TIP3    H263311   6.079   2.630  14.692 -1.6942  0.5418  1.2509
13966TIP3   OH263312   3.630   4.394   0.257 -0.0955  0.8962 -0.4119
13966TIP3    H163313   3.604   4.460   0.192  0.0948  1.3918  0.0071
13966TIP3    H263314   3.688   4.442   0.317  0.5019  0.2071 -0.4277
13967TIP3   OH263315   5.054   2.373  17.366  0.0299  0.1646 -0.1015
13967TIP3    H163316   5.135   2.423  17.353  1.5159 -1.5894  1.7613
13967TIP3    H263317   5.062   2.299  17.306  0.5693 -0.8126  1.1371
13968TIP3   OH263318   6.431   3.669   4.986  0.2205  0.1537  0.2066
13968TIP3    H163319   6.383   3.675   5.068 -1.1081 -0.0265 -0.5389
13968TIP3    H263320   6.399   3.743   4.934  0.5789 -0.1025 -0.3885
13969TIP3   OH263321   4.932   6.737   0.687  0.1145  0.1715 -0.0829
13969TIP3    H163322   4.853   6.727   0.740  0.3940 -0.0831  0.2838
13969TIP3    H263323   4.979   6.655   0.698  1.0354  0.7759  0.6826
13970TIP3   OH263324   2.589   6.740   3.020 -0.0592  0.1747 -0.2992
13970TIP3    H163325   2.620   6.666   3.073  1.9568 -0.2983 -2.0161
13970TIP3    H263326   2.564   6.806   3.085 -0.2673 -1.3361  1.2546
13971TIP3   OH263327   6.399   3.820  16.021 -0.1580 -0.0795  0.2043
13971TIP3    H163328   6.477   3.793  15.972 -0.1037 -2.8656  1.6151
13971TIP3    H263329   6.348   3.870  15.958  1.5915 -0.3454 -1.5436
13972TIP3   OH263330   3.912   2.637   4.216 -0.1531 -0.1564  0.2799
13972TIP3    H163331   3.898   2.547   4.185 -1.8191 -0.1600  0.9084
13972TIP3    H263332   3.972   2.676   4.153  0.5936 -1.7009 -0.0174
13973TIP3   OH263333   5.870   1.887   6.267 -0.0861 -0.0947 -0.2235
13973TIP3    H163334   5.774   1.885   6.263 -0.0840 -1.3491 -0.1051
13973TIP3    H263335   5.890   1.958   6.327 -0.9272  0.4589 -0.5767
13974TIP3   OH263336   2.092   5.230   2.975  0.0817 -0.2940 -0.0374
13974TIP3    H163337   2.135   5.145   2.973  1.9686  0.5297  1.8064
13974TIP3    H263338   2.063   5.240   3.066 -2.1466  0.1354 -0.7231
13975TIP3   OH263339   5.088   2.854  11.897 -0.1577  0.3466 -1.1211
13975TIP3    H163340   5.164   2.872  11.952 -1.3518  0.5854  0.5246
13975TIP3    H263341   5.093   2.919  11.827 -0.3508  2.2135  0.5393
13976TIP3   OH263342   4.211   5.907   5.871 -0.8278  0.1515  0.0584
13976TIP3    H163343   4.139   5.944   5.820 -0.1339  1.1747 -0.2089
13976TIP3    H263344   4.270   5.980   5.886  1.0868 -1.0007 -1.2952
13977TIP3   OH263345   1.035   5.688  15.420 -0.0724 -0.0842  0.0394
13977TIP3    H163346   1.094   5.675  15.495 -1.2932 -0.7053  0.9354
13977TIP3    H263347   1.054   5.615  15.362 -0.0877 -0.3970  0.4183
13978TIP3   OH263348   1.121   6.040  17.328 -0.7546  0.3727  0.6644
13978TIP3    H163349   1.092   6.073  17.243 -0.7319  0.3638  0.6532
13978TIP3    H263350   1.089   6.105  17.390  0.1454  0.9475  0.5485
13979TIP3   OH263351   5.938   3.483   4.246 -0.4683 -0.0391 -0.2940
13979TIP3    H163352   5.878   3.434   4.189 -2.7484 -0.3901  2.2360
13979TIP3    H263353   5.904   3.572   4.246 -1.4498 -0.3670  1.6254
13980TIP3   OH263354   6.774   2.695  13.476  0.1468 -0.4114 -0.4525
13980TIP3    H163355   6.772   2.765  13.410 -1.0806  0.7139  0.7003
13980TIP3    H263356   6.708   2.632  13.446  1.1575 -1.0281 -1.4260
13981TIP3   OH263357   1.525   1.133  16.413  0.0372 -0.0849 -0.2797
13981TIP3    H163358   1.558   1.043  16.416 -0.5782 -0.3645 -1.3948
13981TIP3    H263359   1.432   1.124  16.394  0.1689  0.8155 -1.4167
13982TIP3   OH263360   6.157   0.075  15.391  0.4219  0.4157  0.5586
13982TIP3    H163361   6.210   0.022  15.332  0.8187 -0.1464  1.3971
13982TIP3    H263362   6.123   0.013  15.456 -0.7294  0.8764  0.4210
13983TIP3   OH263363   5.454   2.238   1.636 -0.3665 -0.6085 -0.1915
13983TIP3    H163364   5.453   2.334   1.627 -2.1895 -0.3788  1.6002
13983TIP3    H263365   5.510   2.222   1.711 -0.0189 -0.9729 -0.5250
13984TIP3   OH263366   4.136   1.020   2.342  0.2280 -0.2557 -0.4551
13984TIP3    H163367   4.071   0.973   2.394 -0.3523 -0.8250 -1.6554
13984TIP3    H263368   4.220   0.984   2.370 -0.0419 -0.3105  0.3100
13985TIP3   OH263369   5.023   1.838   0.567 -0.0740 -0.1038  0.5812
13985TIP3    H163370   5.055   1.748   0.565  2.5935  0.7447  0.6936
13985TIP3    H263371   4.935   1.832   0.602 -0.0360 -2.6702  0.3980
13986TIP3   OH263372   5.306   4.475  13.105 -0.1182 -0.2317  0.5953
13986TIP3    H163373   5.232   4.417  13.089  0.6500 -1.3748  1.0404
13986TIP3    H263374   5.270   4.545  13.159 -1.6645  1.1916 -2.0833
13987TIP3   OH263375   4.471   4.346   6.160 -0.2626 -0.0715  0.7545
13987TIP3    H163376   4.488   4.280   6.226  1.3629  0.9257  1.3866
13987TIP3    H263377   4.524   4.421   6.186 -0.1316  0.6133 -1.2842
13988TIP3   OH263378   3.919   4.333  13.937  0.1352 -0.3359  0.2836
13988TIP3    H163379   3.893   4.393  14.006  0.9609 -3.0115  3.1365
13988TIP3    H263380   3.871   4.252  13.956  1.1514 -1.4812 -1.6874
13989TIP3   OH263381   3.816   5.803  14.431  0.1934 -0.3453 -0.6817
13989TIP3    H163382   3.860   5.827  14.513 -0.4445 -2.5577  0.4248
13989TIP3    H263383   3.886   5.792  14.368  0.6943  1.5235 -0.4953
13990TIP3   OH263384   5.041   5.793  11.047  0.4124 -0.1117 -0.2645
13990TIP3    H163385   4.990   5.867  11.013 -1.6735 -1.3693 -0.0283
13990TIP3    H263386   5.008   5.717  10.999 -0.4409 -1.4937  2.3341
13991TIP3   OH263387   5.850   6.188   0.692  0.1132  0.0479 -0.1473
13991TIP3    H163388   5.938   6.218   0.668  0.5826 -0.8890  0.3432
13991TIP3    H263389   5.832   6.229   0.776  0.0702  0.2748 -0.2690
13992TIP3   OH263390   3.527   6.105  10.745  0.0128 -0.2957 -0.2615
13992TIP3    H163391   3.549   6.193  10.714 -1.1453 -0.5650 -2.0603
13992TIP3    H263392   3.435   6.111  10.770 -0.1171 -1.0138 -0.5405
13993TIP3   OH263393   1.217   5.897   2.507 -0.1695  0.4746 -0.7085
13993TIP3    H163394   1.188   5.929   2.422 -0.8193 -0.2609 -0.7776
13993TIP3    H263395   1.138   5.900   2.562 -0.3248 -1.1488 -0.7747
13994TIP3   OH263396   5.547   3.663  13.573 -0.3569 -0.5319 -0.3184
13994TIP3    H163397   5.612   3.733  13.564  1.0392 -1.7241  0.1198
13994TIP3    H263398   5.580   3.591  13.520 -1.5143 -1.0628 -0.3677
13995TIP3   OH263399   5.780   5.184   5.902  0.0721 -0.2154  0.2947
13995TIP3    H163400   5.805   5.154   5.814 -1.7427  1.1665 -0.7320
13995TIP3    H263401   5.717   5.254   5.887 -1.4076 -0.9242  2.7233
13996TIP3   OH263402   0.189   0.818  15.608  0.2137  0.0133  0.2134
13996TIP3    H163403   0.104   0.861  15.623 -0.6687 -1.3468 -0.7051
13996TIP3    H263404   0.169   0.745  15.550  1.8156 -1.1441  1.0588
13997TIP3   OH263405   4.152   4.659  14.215 -0.0556 -0.2061  0.4750
13997TIP3    H163406   4.080   4.667  14.152 -1.0454  0.1662  1.6156
13997TIP3    H263407   4.196   4.744  14.211 -0.0487 -0.2206  0.2116
13998TIP3   OH263408   2.123   6.214   3.255  0.2390 -0.0064  0.0310
13998TIP3    H163409   2.102   6.122   3.245  0.8233 -0.0931 -0.4575
13998TIP3    H263410   2.066   6.245   3.326 -1.4412 -0.2562 -1.1491
13999TIP3   OH263411   2.562   4.041  14.782  0.6720  0.3126  0.2656
13999TIP3    H163412   2.571   3.974  14.849  1.0324  1.2995  1.2321
13999TIP3    H263413   2.470   4.066  14.785  0.7523  0.5810  0.6349
14000TIP3   OH263414   4.409   2.689  14.211  0.0255  0.0992  0.7324
14000TIP3    H163415   4.355   2.767  14.223  0.7163  0.5284  1.1098
14000TIP3    H263416   4.466   2.687  14.288  0.5343 -0.3544  0.3507
14001TIP3   OH263417   0.389   5.570   6.621  0.1738  0.1829  0.0868
14001TIP3    H163418   0.411   5.526   6.538 -1.1384  1.8640 -1.2298
14001TIP3    H263419   0.463   5.629   6.637  0.0264  0.5075 -0.3971
14002TIP3   OH263420   2.124   3.742  14.424 -0.1028 -1.2709 -0.0209
14002TIP3    H163421   2.068   3.813  14.455  0.1334 -1.1574  0.1483
14002TIP3    H263422   2.116   3.674  14.491  0.4112 -1.0242  0.2877
14003TIP3   OH263423   1.722   0.576  15.118  0.1749 -0.6148  0.4657
14003TIP3    H163424   1.816   0.592  15.125  0.2623  0.9276 -2.5998
14003TIP3    H263425   1.682   0.660  15.139 -0.2806 -0.3754 -1.2067
14004TIP3   OH263426   5.377   1.747  12.995  0.1833  0.2609  0.0804
14004TIP3    H163427   5.330   1.668  12.969  0.6669 -0.3489  0.9974
14004TIP3    H263428   5.348   1.814  12.933 -1.5274 -0.2019  0.3345
14005TIP3   OH263429   4.026   2.898  13.696 -0.2457 -0.2553  0.1705
14005TIP3    H163430   3.996   2.947  13.620  0.5059 -0.5068 -0.2929
14005TIP3    H263431   4.120   2.887  13.683 -0.2565 -1.0766  0.6915
14006TIP3   OH263432   0.698   3.384   3.111 -0.6263 -0.2329 -0.1981
14006TIP3    H163433   0.729   3.294   3.099  2.2267  0.7657 -1.0940
14006TIP3    H263434   0.734   3.432   3.036 -2.4763  1.5986  0.0018
14007TIP3   OH263435   5.367   2.606   2.519  0.0222  0.2289 -0.1638
14007TIP3    H163436   5.325   2.662   2.585 -0.4071  2.2344 -2.0286
14007TIP3    H263437   5.459   2.600   2.548 -0.0426  1.4822  0.3872
14008TIP3   OH263438   0.135   1.175   1.598 -0.0134  0.8832 -0.3678
14008TIP3    H163439   0.143   1.247   1.535 -0.4762  3.1607  2.0077
14008TIP3    H263440   0.060   1.199   1.652 -1.6779 -2.6191 -0.8356
14009TIP3   OH263441   2.062   6.230   2.546 -0.0827  0.5802  0.1020
14009TIP3    H163442   2.084   6.206   2.455 -0.6992  2.2095 -0.5105
14009TIP3    H263443   2.127   6.183   2.599 -2.3665 -4.1170 -0.7022
14010TIP3   OH263444   3.699   2.433   3.909  0.0595 -0.3825  0.6186
14010TIP3    H163445   3.683   2.523   3.937 -0.6903 -0.5779  0.8495
14010TIP3    H263446   3.681   2.380   3.987  1.7463 -0.6421  0.8508
14011TIP3   OH263447   5.397   1.058   2.147 -0.2745  0.4249 -0.0078
14011TIP3    H163448   5.334   1.095   2.085  0.1379  0.7817 -0.2192
14011TIP3    H263449   5.343   1.007   2.208 -0.8158  1.0407  0.0438
14012TIP3   OH263450   4.039   2.752  15.999 -0.0633 -0.1524 -0.2250
14012TIP3    H163451   4.021   2.718  16.087 -0.6758 -2.2274 -1.0816
14012TIP3    H263452   4.129   2.784  16.003  0.2841 -1.1930  0.8894
14013TIP3   OH263453   3.623   5.100   1.584  0.6082  0.1568  0.2253
14013TIP3    H163454   3.587   5.183   1.614  0.8373  0.5120 -0.4637
14013TIP3    H263455   3.660   5.060   1.663  0.6599  0.7855  0.5262
14014TIP3   OH263456   1.645   2.623   6.536  0.0994  0.2479  0.4433
14014TIP3    H163457   1.597   2.585   6.463 -0.7470  1.7173  0.1813
14014TIP3    H263458   1.577   2.662   6.591  0.6651 -1.4080  2.3999
14015TIP3   OH263459   3.433   4.355  15.154  0.0350  0.0684  0.3948
14015TIP3    H163460   3.375   4.412  15.103  1.4119  0.1004 -1.2040
14015TIP3    H263461   3.518   4.399  15.152  0.8364 -1.4254  0.1628
14016TIP3   OH263462   4.244   5.871   2.909 -0.3484 -0.2240 -0.0833
14016TIP3    H163463   4.261   5.777   2.902  1.1029 -0.0681  0.9654
14016TIP3    H263464   4.151   5.876   2.933 -0.0369 -1.4998  1.6286
14017TIP3   OH263465   3.425   5.067  12.243 -0.1041 -0.1412  0.0962
14017TIP3    H163466   3.357   5.037  12.302 -1.0088 -1.8877 -1.7285
14017TIP3    H263467   3.507   5.043  12.287 -0.7150 -0.5319  1.0566
14018TIP3   OH263468   0.649   3.206   1.374 -0.2282 -0.1516  0.1062
14018TIP3    H163469   0.722   3.208   1.435 -0.0976 -0.1501 -0.0521
14018TIP3    H263470   0.687   3.178   1.290 -0.4769 -0.5459  0.1204
14019TIP3   OH263471   1.186   6.463  13.565  0.0296  0.1363 -0.6803
14019TIP3    H163472   1.220   6.524  13.500  0.8055  2.0999  1.4172
14019TIP3    H263473   1.121   6.515  13.614 -0.5790 -1.2769  0.0654
14020TIP3   OH263474   6.460   0.353  15.770  0.1285  0.2887 -0.4132
14020TIP3    H163475   6.418   0.404  15.840 -0.8744  1.6193 -1.9056
14020TIP3    H263476   6.427   0.264  15.782  1.4581  0.0275  1.9055
14021TIP3   OH263477   1.765   2.900   2.672  0.4862  0.0101  0.0037
14021TIP3    H163478   1.686   2.906   2.725  0.3260  1.3547 -0.3673
14021TIP3    H263479   1.826   2.962   2.711  0.0693  1.6781 -1.8102
14022TIP3   OH263480   3.510   4.433   1.051 -0.3102  0.5278 -0.2096
14022TIP3    H163481   3.577   4.502   1.049  0.0331  0.1897 -0.5913
14022TIP3    H263482   3.556   4.354   1.024 -1.2971  0.6728 -2.5891
14023TIP3   OH263483   4.955   1.447  15.394 -0.2807  0.9042 -0.0176
14023TIP3    H163484   4.984   1.360  15.422 -0.6693  0.7586 -0.0612
14023TIP3    H263485   4.880   1.467  15.450 -0.4036  1.0668 -0.2359
14024TIP3   OH263486   5.227   4.882  14.992 -0.0226  0.2258  0.6087
14024TIP3    H163487   5.164   4.901  15.062 -4.1264 -1.2833 -2.2909
14024TIP3    H263488   5.208   4.791  14.968  0.2105  1.0548 -3.2591
14025TIP3   OH263489   4.974   3.619  16.755 -0.0421 -0.6456 -0.3767
14025TIP3    H163490   4.959   3.536  16.709  0.1260 -0.3210 -1.0408
14025TIP3    H263491   4.989   3.682  16.684  0.9651 -0.2746  0.1587
14026TIP3   OH263492   0.480   5.648   1.820  0.3770  0.7066  0.6149
14026TIP3    H163493   0.434   5.675   1.900 -0.3471  2.4916 -0.3599
14026TIP3    H263494   0.412   5.613   1.763  0.7013  0.5772  0.2972
14027TIP3   OH263495   3.255   4.476   5.849  0.1778  0.4611  0.8242
14027TIP3    H163496   3.174   4.525   5.860 -0.0160 -0.0136  1.6212
14027TIP3    H263497   3.237   4.391   5.892  1.0866  0.3532  1.0081
14028TIP3   OH263498   6.426   5.348   3.842 -0.1826 -0.2583 -0.2378
14028TIP3    H163499   6.406   5.319   3.931 -0.2931  0.8533  0.1095
14028TIP3    H263500   6.475   5.429   3.853 -2.9044  1.6388 -1.1979
14029TIP3   OH263501   4.895   2.333   1.943 -0.0864 -0.2271 -0.6287
14029TIP3    H163502   4.977   2.317   1.896 -0.7858 -0.9052 -1.6497
14029TIP3    H263503   4.880   2.427   1.932  1.2904  0.2300  0.8562
14030TIP3   OH263504   6.322   5.820   3.527 -0.3487 -0.0893 -0.0971
14030TIP3    H163505   6.391   5.886   3.523 -1.5615  1.1999 -0.5615
14030TIP3    H263506   6.369   5.738   3.543  1.2095  0.8520  0.4473
14031TIP3   OH263507   3.149   5.089  15.413  0.1507 -0.5562  0.1139
14031TIP3    H163508   3.060   5.078  15.378  0.8798 -1.3838 -1.6271
14031TIP3    H263509   3.140   5.155  15.481 -1.3861  1.3348 -1.7816
14032TIP3   OH263510   1.861   3.892   3.824 -0.0906 -1.0272 -0.0350
14032TIP3    H163511   1.850   3.965   3.763  1.2591 -1.2385 -0.5646
14032TIP3    H263512   1.869   3.815   3.768  0.7557 -1.2795  0.4160
14033TIP3   OH263513   3.692   4.727   4.371  0.2265 -0.1159 -0.8267
14033TIP3    H163514   3.639   4.730   4.291  0.6745 -0.1921 -1.1342
14033TIP3    H263515   3.782   4.735   4.340  0.4043 -0.1185 -0.3226
14034TIP3   OH263516   3.928   0.520   0.757 -0.6275  0.1807 -0.1236
14034TIP3    H163517   3.888   0.446   0.802 -0.5887 -0.1784 -0.6695
14034TIP3    H263518   3.990   0.556   0.821 -1.6517  0.6172  0.6471
14035TIP3   OH263519   0.493   0.966   6.015 -0.7590 -0.1473  0.6575
14035TIP3    H163520   0.582   0.994   5.995 -1.1165 -0.6459 -2.0117
14035TIP3    H263521   0.478   0.994   6.105  2.3482 -0.7309  1.4624
14036TIP3   OH263522   0.481   0.612   5.317 -0.2737  0.0114  0.2122
14036TIP3    H163523   0.389   0.641   5.317 -0.9563 -1.8692 -1.3742
14036TIP3    H263524   0.478   0.522   5.348  1.2325  0.3023  1.2966
14037TIP3   OH263525   5.957   2.242  11.101  0.4828  0.4751 -0.5932
14037TIP3    H163526   5.866   2.211  11.105  0.3080  1.0975  1.0670
14037TIP3    H263527   6.001   2.179  11.044 -0.2081 -2.0086  1.4184
14038TIP3   OH263528   2.973   5.831   3.114 -0.3233  0.1119  0.1885
14038TIP3    H163529   2.940   5.745   3.087 -1.0668  0.3348  0.3509
14038TIP3    H263530   3.016   5.816   3.198  0.7952 -0.3454 -0.4527
14039TIP3   OH263531   5.603   6.384  15.268  0.3516 -0.6547 -0.1864
14039TIP3    H163532   5.603   6.479  15.255  0.3243 -0.5094  0.8247
14039TIP3    H263533   5.696   6.361  15.273  0.3488 -0.4578  1.0388
14040TIP3   OH263534   6.147   1.633   3.219 -0.2550 -0.5342 -0.2282
14040TIP3    H163535   6.099   1.637   3.136  0.1384 -1.4549 -0.5202
14040TIP3    H263536   6.085   1.593   3.281 -0.0762 -1.1945 -0.4612
14041TIP3   OH263537   5.080   2.701  11.554 -0.5012  0.2473  0.2650
14041TIP3    H163538   4.992   2.711  11.518  0.1546  1.8562 -1.0661
14041TIP3    H263539   5.072   2.632  11.619 -2.1962 -1.5592 -1.6824
14042TIP3   OH263540   4.156   5.038   3.340 -0.2771  0.0542  0.3032
14042TIP3    H163541   4.244   5.013   3.310 -0.6772 -0.1761 -0.7151
14042TIP3    H263542   4.168   5.127   3.375  0.0789  0.7006 -1.3358
14043TIP3   OH263543   4.570   5.316   3.740 -0.1732  0.4055 -0.0576
14043TIP3    H163544   4.487   5.351   3.770 -1.2605 -1.3375 -0.8253
14043TIP3    H263545   4.589   5.244   3.800  1.2908  1.3812  0.6836
14044TIP3   OH263546   6.768   4.656  12.241  0.2693 -0.8907  0.2122
14044TIP3    H163547   6.763   4.723  12.309 -0.9615 -1.0483  0.3039
14044TIP3    H263548   6.680   4.617  12.240  0.0951 -0.5066 -1.8607
14045TIP3   OH263549   1.087   2.856  13.986 -0.2858  0.1419 -0.1331
14045TIP3    H163550   1.110   2.812  13.904 -0.4538  1.3121 -0.8327
14045TIP3    H263551   0.992   2.861  13.985 -0.2866  0.1982  0.1181
14046TIP3   OH263552   1.924   0.756  10.311 -0.1633  0.8279  0.4006
14046TIP3    H163553   1.903   0.686  10.249 -0.4927  1.6001 -0.3724
14046TIP3    H263554   1.841   0.804  10.321  0.2806  1.6468  0.2196
14047TIP3   OH263555   0.916   5.692  12.935 -0.3021 -0.0120 -0.1619
14047TIP3    H163556   0.834   5.644  12.938 -0.4281  0.1049 -1.4426
14047TIP3    H263557   0.890   5.784  12.924 -0.0012 -0.0368 -1.1533
14048TIP3   OH263558   6.585   1.411  12.520  0.4848 -0.1921  0.0753
14048TIP3    H163559   6.658   1.468  12.547  0.9726 -0.9592  0.4206
14048TIP3    H263560   6.573   1.431  12.427  0.7787  0.3283  0.1397
14049TIP3   OH263561   2.667   4.041  12.403 -0.1026  0.3404  0.6562
14049TIP3    H163562   2.575   4.060  12.385  0.6755  2.1389 -2.0524
14049TIP3    H263563   2.697   3.991  12.327  0.8831 -1.4136  2.1267
14050TIP3   OH263564   0.972   0.532   1.231 -0.1471  0.2384 -0.5063
14050TIP3    H163565   0.947   0.455   1.179 -0.3822  0.4459 -0.7067
14050TIP3    H263566   1.049   0.567   1.185  0.7076 -0.5583  0.2669
14051TIP3   OH263567   2.292   6.584  15.825  0.0432  0.0775 -0.3226
14051TIP3    H163568   2.233   6.527  15.776  1.8726 -1.5164 -0.8035
14051TIP3    H263569   2.342   6.524  15.882  1.5755  1.2557 -0.3465
14052TIP3   OH263570   6.491   1.775   4.424 -0.1000 -1.2517  0.1775
14052TIP3    H163571   6.456   1.690   4.450 -1.9350 -1.0692 -1.4358
14052TIP3    H263572   6.429   1.838   4.459  0.4136 -0.6690  0.0524
14053TIP3   OH263573   1.407   6.127   5.846  0.4934 -0.2184 -0.1926
14053TIP3    H163574   1.388   6.152   5.936 -1.3989 -0.9819 -0.3271
14053TIP3    H263575   1.375   6.037   5.839  0.9689 -0.3080 -1.5195
14054TIP3   OH263576   3.135   0.322   1.888 -0.1747 -0.1951 -0.3029
14054TIP3    H163577   3.210   0.378   1.870 -0.6997  0.4468 -0.5676
14054TIP3    H263578   3.099   0.355   1.971 -0.7947  0.2177 -0.7237
14055TIP3   OH263579   3.169   0.730   2.471 -0.0310  0.5963 -0.5303
14055TIP3    H163580   3.130   0.643   2.476 -0.2346  0.7040 -0.2035
14055TIP3    H263581   3.203   0.747   2.559 -1.3490  1.4592 -0.1540
14056TIP3   OH263582   3.243   3.672   0.364  0.1428  0.1600 -0.3144
14056TIP3    H163583   3.277   3.720   0.440 -1.6292  1.0894 -0.0539
14056TIP3    H263584   3.198   3.738   0.312 -0.7440 -0.8794 -0.9149
14057TIP3   OH263585   5.548   3.076  14.955  0.1512 -0.0923  0.0360
14057TIP3    H163586   5.512   3.078  14.866  1.2919  0.2643 -0.4433
14057TIP3    H263587   5.596   2.993  14.959  0.2245 -0.0392  0.2552
14058TIP3   OH263588   2.505   4.673  14.245 -0.6383 -0.8075 -0.7321
14058TIP3    H163589   2.467   4.761  14.240 -2.4479 -1.6332 -3.0359
14058TIP3    H263590   2.570   4.670  14.175 -2.7635 -2.1691 -2.7952
14059TIP3   OH263591   2.375   4.808   0.133 -0.2318 -0.6360  0.2209
14059TIP3    H163592   2.387   4.713   0.136  0.3869 -0.5628  0.1104
14059TIP3    H263593   2.441   4.843   0.193 -2.5705 -0.4339  2.8849
14060TIP3   OH263594   6.451   1.187  14.788 -0.6290 -0.1001 -0.2293
14060TIP3    H163595   6.373   1.174  14.733 -0.8688 -1.0412  0.3040
14060TIP3    H263596   6.523   1.197  14.726 -0.9246 -0.9682 -0.7308
14061TIP3   OH263597   1.850   5.832  17.330 -0.1419 -0.3000  0.2480
14061TIP3    H163598   1.932   5.844  17.281 -1.1293 -1.0505 -1.7305
14061TIP3    H263599   1.859   5.889  17.406  1.8053  0.3978 -0.4261
14062TIP3   OH263600   2.460   1.937   5.739 -0.2890  0.0804 -0.5640
14062TIP3    H163601   2.439   1.952   5.831  1.9889 -2.0221  0.4260
14062TIP3    H263602   2.535   1.994   5.722 -1.8494  1.8898 -1.7745
14063TIP3   OH263603   4.895   0.669  12.522  0.8637 -0.0499 -0.3581
14063TIP3    H163604   4.946   0.588  12.522 -0.1268 -0.7122  0.3628
14063TIP3    H263605   4.895   0.697  12.614  0.8286  0.5288 -0.5317
14064TIP3   OH263606   6.532   2.664   5.070  0.2434 -0.3555 -0.3237
14064TIP3    H163607   6.627   2.651   5.067  0.4319 -0.0780  2.0777
14064TIP3    H263608   6.505   2.669   4.979  2.4003 -1.4147 -1.0874
14065TIP3   OH263609   1.258   3.131  14.847 -0.8056  0.7129 -0.2463
14065TIP3    H163610   1.308   3.106  14.769 -1.3845  0.2475 -0.4799
14065TIP3    H263611   1.321   3.126  14.919 -0.3649  0.7458 -0.6289
14066TIP3   OH263612   3.868   1.303   4.175 -0.6203 -0.2201  0.4232
14066TIP3    H163613   3.911   1.272   4.255  1.1593  0.5420 -0.1784
14066TIP3    H263614   3.858   1.397   4.188 -0.6736 -0.1537 -0.0784
14067TIP3   OH263615   5.309   0.776   5.114  0.5996 -0.6205 -0.4369
14067TIP3    H163616   5.238   0.712   5.118  1.9890 -2.1612  0.7340
14067TIP3    H263617   5.366   0.745   5.044  0.3138  0.4411 -1.1675
14068TIP3   OH263618   4.056   3.423   4.635 -1.0456  0.0048  0.1754
14068TIP3    H163619   4.029   3.383   4.718 -1.5892  0.3021  0.1494
14068TIP3    H263620   3.978   3.418   4.580 -0.9345  0.5535 -0.0329
14069TIP3   OH263621   6.390   6.372   0.544  0.3854  0.1421 -0.8786
14069TIP3    H163622   6.431   6.458   0.551 -1.4859  0.9528  2.0437
14069TIP3    H263623   6.448   6.314   0.594 -0.1392  0.5096  0.1828
14070TIP3   OH263624   4.022   5.092  16.350  0.0126  0.0117 -0.2720
14070TIP3    H163625   4.109   5.107  16.387 -0.6036  1.5189  0.6841
14070TIP3    H263626   4.039   5.056  16.263  1.5901  0.0605 -0.0198
14071TIP3   OH263627   1.558   4.906  13.458  0.0552  0.2320 -0.4598
14071TIP3    H163628   1.518   4.890  13.544  0.5480  0.4218 -0.1913
14071TIP3    H263629   1.485   4.935  13.403 -0.2282  0.3001 -0.0546
14072TIP3   OH263630   2.994   1.679  10.838 -0.0109 -0.5647  0.1224
14072TIP3    H163631   2.971   1.730  10.760 -1.4140 -1.2489  0.0586
14072TIP3    H263632   3.076   1.719  10.869 -0.0644  0.4912 -0.9979
14073TIP3   OH263633   0.431   5.480  13.939  0.0427  0.5045 -0.5681
14073TIP3    H163634   0.415   5.481  14.034  0.2816  1.7592 -0.5274
14073TIP3    H263635   0.500   5.415  13.927 -0.7589 -0.4662 -0.0176
14074TIP3   OH263636   4.978   5.246   3.300 -0.3205 -0.1385 -0.0271
14074TIP3    H163637   4.950   5.219   3.388 -2.0190 -1.1700 -0.8291
14074TIP3    H263638   4.900   5.235   3.246  1.3752 -2.4396 -2.2747
14075TIP3   OH263639   5.039   1.668   2.496  0.1696  0.1455  0.6442
14075TIP3    H163640   5.088   1.745   2.524  1.6884 -0.6034  0.1612
14075TIP3    H263641   5.087   1.594   2.534 -1.4137 -0.5852  1.3565
14076TIP3   OH263642   3.871   5.971   3.997 -0.5294 -0.5668 -0.3927
14076TIP3    H163643   3.896   6.062   4.015  0.1259 -0.5980 -1.1140
14076TIP3    H263644   3.860   5.967   3.902  1.3770 -1.6848 -0.6208
14077TIP3   OH263645   6.594   1.232  14.571  0.2108 -0.4098 -0.0118
14077TIP3    H163646   6.644   1.313  14.585  0.4491 -0.7405  1.1904
14077TIP3    H263647   6.583   1.226  14.476 -0.0527  1.1773 -0.1112
14078TIP3   OH263648   0.480   2.201   0.045  0.3952 -0.4562  0.0635
14078TIP3    H163649   0.515   2.134  -0.014 -2.0160 -0.0182 -2.0865
14078TIP3    H263650   0.513   2.284   0.009 -0.1742 -0.2583 -0.0215
14079TIP3   OH263651   2.467   3.183   5.541  0.1646  0.6531  0.2706
14079TIP3    H163652   2.379   3.182   5.580  0.1936  2.3799  0.4454
14079TIP3    H263653   2.498   3.272   5.554  1.1597  0.6224 -1.5847
14080TIP3   OH263654   0.632   2.830  13.141 -0.7380 -0.8534  0.0109
14080TIP3    H163655   0.727   2.830  13.155 -0.5447 -1.3243 -1.2044
14080TIP3    H263656   0.609   2.922  13.131 -0.4043 -0.7387  0.2861
14081TIP3   OH263657   6.237   1.520  16.234 -0.3029 -0.0087 -0.6656
14081TIP3    H163658   6.239   1.467  16.154 -1.0113  2.6478 -2.5912
14081TIP3    H263659   6.330   1.534  16.256 -0.0638  0.1485 -1.7132
14082TIP3   OH263660   6.742   4.535   3.400  0.5104  0.1195  0.1531
14082TIP3    H163661   6.822   4.507   3.443  0.5497  2.3749  1.7319
14082TIP3    H263662   6.764   4.619   3.359 -1.0636  0.8987  0.8072
14083TIP3   OH263663   0.958   0.370  11.549  0.5191 -0.7493  0.0025
14083TIP3    H163664   1.011   0.448  11.563 -2.3397  1.2055  1.0793
14083TIP3    H263665   1.010   0.314  11.492  2.1765  2.5669 -2.0055
14084TIP3   OH263666   4.045   1.862   2.786  0.4426 -0.2020  0.0064
14084TIP3    H163667   4.136   1.837   2.772  0.6552  1.1534 -1.3349
14084TIP3    H263668   3.995   1.785   2.757  1.1212 -1.2602  1.4846
14085TIP3   OH263669   3.319   3.945  11.272 -0.0616 -0.2814  0.2626
14085TIP3    H163670   3.403   3.919  11.310 -0.4262 -0.8999  0.6556
14085TIP3    H263671   3.340   4.021  11.218  0.0411  2.5525  3.9323
14086TIP3   OH263672   6.056   2.118   4.519 -0.1264 -0.1718  0.5357
14086TIP3    H163673   6.057   2.063   4.440 -2.4630  0.6534 -0.1462
14086TIP3    H263674   6.059   2.207   4.485  3.2675  0.2606  1.6134
14087TIP3   OH263675   0.819   1.461   5.104  0.0686 -0.5644 -0.1343
14087TIP3    H163676   0.776   1.496   5.182 -0.4957 -0.5649 -0.4399
14087TIP3    H263677   0.793   1.520   5.033  2.6937  1.0112  0.0896
14088TIP3   OH263678   0.562   2.971   4.586  0.0285  0.0112  0.0985
14088TIP3    H163679   0.518   2.966   4.671 -0.2606 -1.6137 -0.1095
14088TIP3    H263680   0.653   2.993   4.607 -0.1392  0.0516  0.8064
14089TIP3   OH263681   4.265   2.275  15.975  0.4367  0.1149 -0.9095
14089TIP3    H163682   4.286   2.363  16.006  0.5617  0.1627 -1.1337
14089TIP3    H263683   4.275   2.219  16.053 -0.7396  0.4607 -0.4836
14090TIP3   OH263684   3.392   2.479  13.439 -0.2177  0.6453 -0.2756
14090TIP3    H163685   3.350   2.534  13.504 -0.1343  2.3137 -1.5584
14090TIP3    H263686   3.486   2.494  13.451 -0.0790 -0.7684  0.6339
14091TIP3   OH263687   0.228   3.331   4.416  0.0380  0.4787  0.5126
14091TIP3    H163688   0.192   3.402   4.363 -0.9398 -0.2420  0.1823
14091TIP3    H263689   0.167   3.321   4.489  0.8227  0.7753  1.2249
14092TIP3   OH263690   6.404   2.536  13.889  0.0896  0.0374 -0.0422
14092TIP3    H163691   6.320   2.525  13.934 -0.8726  0.1992 -1.6974
14092TIP3    H263692   6.469   2.533  13.959 -0.9823 -3.3305  1.0146
14093TIP3   OH263693   0.954   2.131  12.106 -0.1969  0.2565 -0.1891
14093TIP3    H163694   0.937   2.065  12.039  0.2574 -0.5337  0.4472
14093TIP3    H263695   1.011   2.195  12.063  0.6486 -0.5950 -0.3753
14094TIP3   OH263696   2.370   6.386   2.387 -0.2916 -0.2219  0.1153
14094TIP3    H163697   2.316   6.307   2.383 -1.1686  0.3593  0.0474
14094TIP3    H263698   2.387   6.399   2.480  1.2207 -1.3628  0.0356
14095TIP3   OH263699   4.427   5.709  16.737 -0.5824 -0.6477  0.0953
14095TIP3    H163700   4.510   5.661  16.738  0.2990  0.8114  0.5489
14095TIP3    H263701   4.439   5.776  16.669 -1.5365 -0.6439 -0.0882
14096TIP3   OH263702   6.327   5.661   0.079 -0.2424  0.8629 -0.0701
14096TIP3    H163703   6.378   5.697   0.151 -1.5570  1.2200  0.7167
14096TIP3    H263704   6.389   5.607   0.030  0.7701  0.9200  1.1068
14097TIP3   OH263705   5.241   5.163   4.290 -0.0394 -0.1700  0.2015
14097TIP3    H163706   5.206   5.138   4.204 -0.2960 -0.6949  0.4537
14097TIP3    H263707   5.256   5.080   4.335 -2.9418  0.0881  1.8728
14098TIP3   OH263708   1.965   4.021   6.766 -0.2656  0.3805 -0.2092
14098TIP3    H163709   1.957   4.077   6.843  1.4716 -0.9742  1.0360
14098TIP3    H263710   1.876   3.988   6.752 -0.2836 -1.0245  2.5866
14099TIP3   OH263711   0.174   3.944  17.354  0.1162  0.4152 -0.6499
14099TIP3    H163712   0.159   3.999  17.431  1.3662  1.7717 -1.3299
14099TIP3    H263713   0.137   3.994  17.281 -0.3433 -0.4873 -1.0528
14100TIP3   OH263714   0.183   4.470  11.644  0.0125  0.8072 -0.3252
14100TIP3    H163715   0.213   4.476  11.553 -0.3231 -1.1470 -0.6072
14100TIP3    H263716   0.112   4.534  11.650  0.2374  1.1739 -1.3360
14101TIP3   OH263717   6.199   4.801  16.772 -0.5980  0.0748  0.1249
14101TIP3    H163718   6.261   4.731  16.754  1.3395  2.0499 -1.2246
14101TIP3    H263719   6.117   4.755  16.794  0.9805 -2.5846  0.8673
14102TIP3   OH263720   5.839   3.410   6.415  0.4940 -0.3152 -0.2568
14102TIP3    H163721   5.749   3.396   6.443  0.1628  2.2479  0.1973
14102TIP3    H263722   5.891   3.397   6.494  0.2641  0.4262  0.0224
14103TIP3   OH263723   2.344   5.535   5.546 -0.5354  0.2035  1.0314
14103TIP3    H163724   2.261   5.580   5.528 -0.2168  0.9613  1.3944
14103TIP3    H263725   2.356   5.543   5.641 -0.1119 -0.0168  1.0007
14104TIP3   OH263726   4.456   4.138   4.767  0.5528  0.0660  0.9520
14104TIP3    H163727   4.524   4.165   4.705  0.3780  3.4916  2.0708
14104TIP3    H263728   4.375   4.137   4.715  0.9855 -1.4805  0.2199
14105TIP3   OH263729   0.181   0.955   3.085 -0.7372 -0.1912  0.0002
14105TIP3    H163730   0.265   0.995   3.061 -0.8766  0.3174  0.3476
14105TIP3    H263731   0.124   0.969   3.010 -0.9276  0.6842  0.2940
14106TIP3   OH263732   2.776   3.972   0.875 -0.5518  0.1727 -0.0018
14106TIP3    H163733   2.815   3.911   0.937  0.8905  0.5176 -0.5202
14106TIP3    H263734   2.720   3.918   0.819  0.5304 -0.6531 -0.3191
14107TIP3   OH263735   3.930   1.798  15.821 -0.4013 -0.2938  0.0987
14107TIP3    H163736   3.841   1.783  15.851  0.1544 -0.7985  1.5559
14107TIP3    H263737   3.956   1.880  15.862 -0.3064  0.0610 -0.6405
14108TIP3   OH263738   3.143   1.383  12.703 -0.0558 -0.1073 -0.3828
14108TIP3    H163739   3.086   1.331  12.759 -2.6011  0.7041 -2.0432
14108TIP3    H263740   3.195   1.319  12.655 -1.6171 -1.0492 -0.8610
14109TIP3   OH263741   0.705   1.699   3.607  0.5693  0.5401 -0.2686
14109TIP3    H163742   0.697   1.610   3.573  0.7254  0.4199  0.0051
14109TIP3    H263743   0.754   1.689   3.689  2.1446  1.0622 -1.0870
14110TIP3   OH263744   4.129   6.279   3.346  0.0078  0.0178 -0.3835
14110TIP3    H163745   4.198   6.301   3.283  0.0193  0.4113 -0.2340
14110TIP3    H263746   4.060   6.240   3.292  0.3821 -0.4657 -0.5206
14111TIP3   OH263747   1.616   0.400   5.435 -0.1375  0.9355 -0.3041
14111TIP3    H163748   1.619   0.329   5.500 -1.5653 -0.1016 -1.2978
14111TIP3    H263749   1.603   0.479   5.487 -0.9866  0.1626  0.7097
14112TIP3   OH263750   1.364   2.333   1.985 -0.2998 -0.1888 -0.7528
14112TIP3    H163751   1.345   2.405   1.925  0.2698 -0.0269 -0.7388
14112TIP3    H263752   1.277   2.301   2.012 -0.5670  0.9688 -0.1762
14113TIP3   OH263753   0.360   4.877   5.763 -0.3187 -0.0449  0.5888
14113TIP3    H163754   0.302   4.827   5.705  1.8126 -1.7773 -0.2092
14113TIP3    H263755   0.353   4.832   5.848  0.8534 -1.1833  0.1227
14114TIP3   OH263756   6.551   0.153   0.118 -0.2027 -0.5778  0.2603
14114TIP3    H163757   6.472   0.151   0.172  1.5628 -0.8965  3.0217
14114TIP3    H263758   6.527   0.106   0.038 -3.7706  2.3069 -0.5916
14115TIP3   OH263759   3.310   3.922  13.076  0.1973 -0.0586 -0.6225
14115TIP3    H163760   3.400   3.931  13.043  1.1169 -0.9507  1.4312
14115TIP3    H263761   3.271   4.008  13.064  1.5216  0.5003 -1.0562
14116TIP3   OH263762   5.921   5.398  15.043  0.4083 -0.0057  0.1832
14116TIP3    H163763   5.920   5.325  14.981 -1.0555 -0.0264  0.1823
14116TIP3    H263764   6.005   5.391  15.088  0.3068 -1.6691  0.1644
14117TIP3   OH263765   3.985   5.871  11.470  0.1200  0.8764  0.3009
14117TIP3    H163766   3.917   5.898  11.531  1.3000  2.4734  0.9896
14117TIP3    H263767   3.958   5.908  11.386 -0.2910  0.7375  0.3686
14118TIP3   OH263768   4.878   4.427  13.199  0.0144  0.3191 -0.3868
14118TIP3    H163769   4.833   4.498  13.244 -0.5213  0.5375 -1.2517
14118TIP3    H263770   4.951   4.469  13.154 -0.4029  0.3551 -1.0378
14119TIP3   OH263771   2.131   4.888  10.872  0.5355  0.3900  0.2061
14119TIP3    H163772   2.222   4.866  10.854  0.2031  0.9521 -2.5281
14119TIP3    H263773   2.082   4.846  10.801 -1.1480  1.5074  0.6625
14120TIP3   OH263774   4.411   3.094   4.618  0.2832 -0.2671 -0.8399
14120TIP3    H163775   4.419   3.104   4.713  1.1651 -0.4199 -0.8881
14120TIP3    H263776   4.321   3.066   4.604  0.2174 -0.4882 -0.0269
14121TIP3   OH263777   5.817   2.273  16.565 -0.1228 -0.1960  0.0507
14121TIP3    H163778   5.801   2.194  16.514 -1.3032 -1.0861  1.7147
14121TIP3    H263779   5.905   2.261  16.601  0.7887  0.5139 -1.8142
14122TIP3   OH263780   5.814   1.853  14.502 -0.8403 -0.3633  0.1513
14122TIP3    H163781   5.730   1.842  14.457 -0.1137 -0.8926 -1.1232
14122TIP3    H263782   5.792   1.900  14.582 -2.0854  1.3664 -1.1246
14123TIP3   OH263783   3.291   2.434   6.613  0.2684  0.4389 -0.5825
14123TIP3    H163784   3.288   2.430   6.709  0.3420 -2.3093 -0.6365
14123TIP3    H263785   3.202   2.415   6.585  0.7261 -1.2209 -1.0419
14124TIP3   OH263786   1.971   4.178  16.709  0.1981 -0.1970 -0.1868
14124TIP3    H163787   2.058   4.138  16.715  0.5906  0.1804 -2.5830
14124TIP3    H263788   1.982   4.254  16.652 -1.4616  0.6518  0.5390
14125TIP3   OH263789   3.235   1.418   4.943  0.7344  0.7605 -0.3294
14125TIP3    H163790   3.275   1.484   4.887 -0.6724  0.1859 -2.1134
14125TIP3    H263791   3.232   1.339   4.889 -2.6319  0.7377 -0.3271
14126TIP3   OH263792   0.324   5.773  14.390 -0.1298  0.1134  0.3966
14126TIP3    H163793   0.254   5.780  14.325  0.7731  0.8486 -0.5175
14126TIP3    H263794   0.309   5.846  14.450  0.2327  0.6704 -0.1840
14127TIP3   OH263795   4.025   6.325  15.685 -0.4282 -0.8132  0.1795
14127TIP3    H163796   4.076   6.401  15.657 -0.3144 -1.4177 -1.3756
14127TIP3    H263797   3.934   6.352  15.676 -0.3871 -0.6785  0.1727
14128TIP3   OH263798   5.648   5.944   3.838  0.1017 -0.4646 -0.8219
14128TIP3    H163799   5.558   5.912   3.850  0.2487 -0.3170  1.0013
14128TIP3    H263800   5.681   5.955   3.927  1.6689  0.2517 -1.4585
14129TIP3   OH263801   5.608   0.042  13.603 -0.3585 -0.1580  0.1425
14129TIP3    H163802   5.587   0.020  13.512 -0.6840  0.2474  0.1175
14129TIP3    H263803   5.696   0.006  13.617 -0.3514 -0.3137 -0.2999
14130TIP3   OH263804   4.379   5.443   0.787  0.5989  0.2659  0.3234
14130TIP3    H163805   4.454   5.406   0.738 -1.0387  2.1009 -4.0723
14130TIP3    H263806   4.385   5.537   0.772 -1.2293  0.7142  2.0506
14131TIP3   OH263807   2.384   4.464  15.469  0.1656  0.3587  0.5794
14131TIP3    H163808   2.354   4.523  15.538 -0.6894  1.1724 -0.4648
14131TIP3    H263809   2.311   4.458  15.408  1.4217  0.8913 -1.0580
14132TIP3   OH263810   2.696   5.072   1.366 -0.5311 -0.0085 -0.2679
14132TIP3    H163811   2.781   5.043   1.331 -1.0391 -1.2293 -0.5266
14132TIP3    H263812   2.673   5.006   1.431 -3.1478 -2.0296 -2.9744
14133TIP3   OH263813   2.766   3.438  14.866 -0.2051 -0.1129 -0.0305
14133TIP3    H163814   2.761   3.344  14.848 -0.3429  0.0643 -0.9425
14133TIP3    H263815   2.676   3.463  14.888 -0.2877 -0.0721 -0.4141
14134TIP3   OH263816   3.041   3.623   3.561  0.7767 -0.3343 -0.6310
14134TIP3    H163817   3.109   3.690   3.554  0.0258  0.3381 -1.8913
14134TIP3    H263818   2.959   3.673   3.556  0.1844 -1.1865  0.2635
14135TIP3   OH263819   4.750   6.481   4.280 -0.4623  0.5245 -0.0205
14135TIP3    H163820   4.740   6.386   4.292  2.0373  0.1999  0.0909
14135TIP3    H263821   4.676   6.519   4.327 -1.6182 -1.3697 -0.2085
14136TIP3   OH263822   0.735   2.947  15.527 -0.1348  0.5127  0.1044
14136TIP3    H163823   0.671   2.924  15.460  0.9032  2.0486 -1.5065
14136TIP3    H263824   0.792   2.870  15.532 -1.2173 -0.2894  0.5009
14137TIP3   OH263825   0.403   3.367   6.122 -0.6496  0.4914  0.3247
14137TIP3    H163826   0.345   3.401   6.054 -1.4871  1.1299  1.3181
14137TIP3    H263827   0.395   3.430   6.193 -0.6149 -0.7137  1.4285
14138TIP3   OH263828   4.534   3.745  13.889  0.3495 -0.3419  0.0335
14138TIP3    H163829   4.506   3.833  13.915  2.1031  0.1214  0.5551
14138TIP3    H263830   4.489   3.728  13.807  0.8346  1.5540 -0.6974
14139TIP3   OH263831   0.911   1.677   1.791 -0.3792 -0.3659  0.2151
14139TIP3    H163832   0.905   1.723   1.875  0.4126  1.6398 -0.7441
14139TIP3    H263833   0.929   1.586   1.814 -1.0267 -0.0428  2.2120
14140TIP3   OH263834   2.712   1.985   1.442  0.1286  0.1388 -0.2336
14140TIP3    H163835   2.782   2.012   1.501  0.7063  1.8141 -1.5834
14140TIP3    H263836   2.746   2.005   1.355 -1.7708  0.3609 -0.9598
14141TIP3   OH263837   2.434   6.405   5.317 -0.4006  0.6407  0.3957
14141TIP3    H163838   2.386   6.451   5.248 -1.8643  0.0820  0.9970
14141TIP3    H263839   2.379   6.414   5.395  0.5933  0.1503  1.1842
14142TIP3   OH263840   5.598   2.398   4.670  0.1112 -0.0163 -0.2729
14142TIP3    H163841   5.661   2.343   4.624 -0.5051 -0.9388 -0.0325
14142TIP3    H263842   5.627   2.488   4.652  2.3878 -0.4149  1.1110
14143TIP3   OH263843   5.309   4.206  14.948  0.0171 -0.2957 -0.3509
14143TIP3    H163844   5.257   4.188  14.870  0.3065  0.6534 -0.7762
14143TIP3    H263845   5.348   4.292  14.932  0.5451 -0.3433  0.5896
14144TIP3   OH263846   1.059   3.163   0.137 -0.1597 -0.3533  0.1309
14144TIP3    H163847   0.969   3.184   0.162  0.6534  0.6366  2.4711
14144TIP3    H263848   1.077   3.080   0.181 -0.1855 -1.0146 -1.0683
14145TIP3   OH263849   4.984   1.266   0.464  0.1927 -0.4320  0.2059
14145TIP3    H163850   5.017   1.189   0.417 -0.5077 -1.9856  2.1028
14145TIP3    H263851   4.889   1.262   0.453  0.1485  0.1336  0.3489
14146TIP3   OH263852   5.858   5.134   3.206 -0.3763 -0.6863  0.0786
14146TIP3    H163853   5.900   5.058   3.166 -0.2298 -0.7415  0.3297
14146TIP3    H263854   5.931   5.184   3.243 -0.5271 -0.7615  0.4810
14147TIP3   OH263855   1.238   0.334   1.582 -0.1937 -0.1741 -0.5093
14147TIP3    H163856   1.150   0.360   1.554 -0.4199 -2.0283 -1.7407
14147TIP3    H263857   1.224   0.253   1.631  0.7794 -0.0452  0.0089
14148TIP3   OH263858   0.839   3.394  14.639 -0.0696 -0.1160  0.2091
14148TIP3    H163859   0.828   3.461  14.706 -1.0821 -1.3275  1.2987
14148TIP3    H263860   0.930   3.365  14.648  0.1117  0.4697  0.3228
14149TIP3   OH263861   3.555   3.702   1.164  0.4583  0.1315 -0.0469
14149TIP3    H163862   3.607   3.653   1.227  3.1544  0.7230 -1.6322
14149TIP3    H263863   3.603   3.694   1.082 -1.7759  1.1316 -1.5698
14150TIP3   OH263864   0.964   0.688  11.915  0.5489  0.0915  0.1789
14150TIP3    H163865   0.889   0.677  11.975  0.1986 -0.4079 -0.3407
14150TIP3    H263866   0.941   0.635  11.839  0.7877  1.0685 -0.5912
14151TIP3   OH263867   1.815   6.666   4.241 -0.1924  0.2475  0.2969
14151TIP3    H163868   1.756   6.591   4.241 -0.3687  0.3582  1.7668
14151TIP3    H263869   1.885   6.642   4.180  0.9419 -2.1065  2.3313
14152TIP3   OH263870   6.014   5.927   3.031 -0.0124 -0.6109 -0.3562
14152TIP3    H163871   6.038   5.946   3.121 -0.7528 -0.0989 -0.2554
14152TIP3    H263872   5.926   5.889   3.037 -0.7318  0.9014 -0.9660
14153TIP3   OH263873   3.206   1.553   1.638 -0.1850  0.2435  0.0030
14153TIP3    H163874   3.184   1.462   1.655 -1.8054  0.2913 -1.4979
14153TIP3    H263875   3.284   1.550   1.582  0.8254 -0.1288  1.3964
14154TIP3   OH263876   0.133   6.511   0.359 -0.2731  0.3352  0.1223
14154TIP3    H163877   0.053   6.526   0.409 -1.0278  1.4093 -1.3473
14154TIP3    H263878   0.104   6.478   0.274  0.9958 -1.6093  0.3633
14155TIP3   OH263879   2.010   5.047  11.667  0.1811  0.4360  0.0581
14155TIP3    H163880   1.985   5.138  11.649  1.3025  0.7374 -0.0552
14155TIP3    H263881   2.101   5.052  11.697 -0.0737 -0.5527  1.0897
14156TIP3   OH263882   5.666   0.791   2.800 -0.0410  0.0450 -0.2537
14156TIP3    H163883   5.720   0.715   2.781 -0.4330 -0.0072 -1.1928
14156TIP3    H263884   5.590   0.783   2.742 -0.3036  0.9199 -0.0565
14157TIP3   OH263885   2.382   5.168  12.724 -0.4799  0.2447  0.2155
14157TIP3    H163886   2.304   5.216  12.697  0.4099  0.9594 -1.2443
14157TIP3    H263887   2.403   5.111  12.650 -0.7747 -1.5007  1.4155
14158TIP3   OH263888   1.844   3.512   6.901 -0.5510  0.5121  0.3672
14158TIP3    H163889   1.907   3.548   6.964 -0.0793 -1.6004  1.1663
14158TIP3    H263890   1.862   3.418   6.899  0.5193  0.5827 -4.1226
14159TIP3   OH263891   3.590   1.671  14.715 -0.1319 -0.1129 -0.2242
14159TIP3    H163892   3.673   1.636  14.748  0.1922 -0.8467 -1.7107
14159TIP3    H263893   3.529   1.598  14.723 -0.0167 -0.3486 -1.2759
14160TIP3   OH263894   0.221   0.196   2.977 -0.6555 -0.1155 -0.3725
14160TIP3    H163895   0.150   0.179   2.916 -0.5241  0.1004 -0.5879
14160TIP3    H263896   0.185   0.262   3.037 -0.9591 -0.6956  0.0993
14161TIP3   OH263897   1.048   5.932   2.712 -0.7374 -0.6354 -0.1178
14161TIP3    H163898   1.014   5.887   2.789 -0.6914 -0.2203  0.1486
14161TIP3    H263899   1.055   6.024   2.739  0.1326 -0.6340 -0.3245
14162TIP3   OH263900   5.937   0.139   1.215  0.2287  0.2070 -0.3358
14162TIP3    H163901   5.919   0.206   1.281 -0.3039  0.2391 -0.5075
14162TIP3    H263902   5.856   0.088   1.210 -0.3075  1.1456 -2.0576
14163TIP3   OH263903   3.185   1.485   5.977 -0.2124 -0.5497  0.3923
14163TIP3    H163904   3.165   1.443   6.061 -0.4441  0.8302  1.0489
14163TIP3    H263905   3.264   1.536   5.994 -0.5220  0.1109 -0.0899
14164TIP3   OH263906   0.466   4.505  13.182 -0.3508  0.6085 -0.2393
14164TIP3    H163907   0.481   4.557  13.261  0.5640  0.4698 -0.3101
14164TIP3    H263908   0.380   4.466  13.194 -0.3418  0.8300  0.5508
14165TIP3   OH263909   4.712   2.609   5.016 -0.2958  0.3835 -0.7100
14165TIP3    H163910   4.641   2.648   4.966 -1.9966 -1.3761  0.1921
14165TIP3    H263911   4.754   2.548   4.954  0.0208  0.9428 -1.0524
14166TIP3   OH263912   5.758   3.675   1.574 -0.0729 -0.2682  0.3418
14166TIP3    H163913   5.829   3.735   1.598 -1.6032  1.9648 -0.3539
14166TIP3    H263914   5.725   3.643   1.658 -0.3150  1.2774  0.8713
14167TIP3   OH263915   1.900   5.355  15.080 -0.0104  0.0309 -0.8056
14167TIP3    H163916   1.842   5.290  15.039 -0.4374 -0.1670  0.0909
14167TIP3    H263917   1.856   5.377  15.162  1.9272 -1.2185  0.6229
14168TIP3   OH263918   0.448   2.789   3.442  0.1110 -0.2339  0.2688
14168TIP3    H163919   0.379   2.849   3.468  0.8150  1.8125 -2.1684
14168TIP3    H263920   0.428   2.767   3.351  1.0731 -2.0308  0.4315
14169TIP3   OH263921   2.912   3.349   3.568 -0.2144  0.0613  0.3359
14169TIP3    H163922   2.943   3.432   3.533 -0.9747  0.2360  0.0497
14169TIP3    H263923   2.842   3.373   3.629  0.1906 -0.3189  0.9576
14170TIP3   OH263924   3.777   1.529  13.291  0.3413 -0.0623  0.4280
14170TIP3    H163925   3.807   1.497  13.206 -0.9367  1.6652 -0.7455
14170TIP3    H263926   3.703   1.586  13.270 -0.1226  0.2735  2.7339
14171TIP3   OH263927   5.765   4.639   3.877  0.0686  0.4119 -0.6929
14171TIP3    H163928   5.690   4.680   3.835 -0.7749 -0.9104 -0.5401
14171TIP3    H263929   5.766   4.675   3.966 -2.2977 -1.7519  0.3355
14172TIP3   OH263930   4.306   6.531   1.020  0.1152 -0.5032 -0.2485
14172TIP3    H163931   4.394   6.493   1.024  0.0182 -0.7644 -0.4805
14172TIP3    H263932   4.266   6.508   1.104  1.4910  2.7817  1.4894
14173TIP3   OH263933   5.356   1.900   0.647  0.3625  0.7584 -0.0613
14173TIP3    H163934   5.410   1.929   0.573 -1.7077  1.6227 -1.3457
14173TIP3    H263935   5.299   1.833   0.610 -2.0323  2.5261  0.1488
14174TIP3   OH263936   4.045   1.527  15.869 -0.4516 -0.4007 -0.8442
14174TIP3    H163937   4.092   1.491  15.795 -1.0105  0.2879 -1.5489
14174TIP3    H263938   4.008   1.610  15.837 -0.7303 -0.1075  0.1819
14175TIP3   OH263939   5.950   4.185   2.409  0.1516  0.2091 -0.0321
14175TIP3    H163940   5.870   4.136   2.430 -0.0917  0.4463 -0.3846
14175TIP3    H263941   5.936   4.215   2.319  0.8150 -0.0868 -0.2342
14176TIP3   OH263942   3.119   3.705   1.041 -0.1461 -0.3257  0.1502
14176TIP3    H163943   3.106   3.777   0.979 -0.3068  0.5914  1.2163
14176TIP3    H263944   3.032   3.685   1.074  0.0745  0.0473  0.9913
14177TIP3   OH263945   6.161   0.087  12.038  0.1383 -0.4933 -0.2996
14177TIP3    H163946   6.228   0.155  12.039 -0.1618 -0.1980 -0.0512
14177TIP3    H263947   6.196   0.020  11.980 -0.0427  0.3634 -1.4433
14178TIP3   OH263948   2.563   1.385  15.559 -0.1378 -0.3200 -0.2447
14178TIP3    H163949   2.525   1.445  15.622  1.3839 -1.1412  1.5589
14178TIP3    H263950   2.510   1.306  15.564 -1.2253  0.2948 -1.5138
14179TIP3   OH263951   2.689   2.944   4.869 -0.3203  0.2390 -0.4066
14179TIP3    H163952   2.738   2.995   4.804  0.1147 -0.1191 -0.3597
14179TIP3    H263953   2.607   2.922   4.824 -1.3110  2.4628  0.1631
14180TIP3   OH263954   1.291   1.987   4.057 -0.5485  0.4359 -0.4618
14180TIP3    H163955   1.244   2.057   4.102  2.1120  1.1321  1.4668
14180TIP3    H263956   1.341   2.031   3.989 -0.2665  0.1679 -0.4307
14181TIP3   OH263957   5.125   5.104   5.061  0.5271 -0.3879  0.0950
14181TIP3    H163958   5.170   5.172   5.011 -1.5609  0.7995 -0.2868
14181TIP3    H263959   5.035   5.104   5.026 -0.2987 -1.3129  2.0768
14182TIP3   OH263960   5.436   6.526  15.518  0.1311  0.3018 -0.0353
14182TIP3    H163961   5.511   6.567  15.473 -0.0308  0.1627 -0.4392
14182TIP3    H263962   5.362   6.582  15.494 -0.0526 -0.0918 -0.4031
14183TIP3   OH263963   5.432   5.212   0.363  0.2105 -0.0178 -0.0963
14183TIP3    H163964   5.511   5.265   0.352  0.6407 -0.1225  2.0899
14183TIP3    H263965   5.462   5.122   0.359  0.7452 -0.1211  3.1200
14184TIP3   OH263966   0.955   4.129   4.730  0.0073  0.5917 -0.1205
14184TIP3    H163967   0.956   4.050   4.784  1.7239  0.4762 -0.2629
14184TIP3    H263968   0.991   4.101   4.646 -0.6669  1.2381 -0.6466
14185TIP3   OH263969   0.442   3.359   4.031  0.4130  0.0341 -0.1852
14185TIP3    H163970   0.364   3.304   4.036  0.9968 -1.0047 -1.8381
14185TIP3    H263971   0.423   3.432   4.090 -1.5013 -0.5594  0.0048
14186TIP3   OH263972   5.817   2.225  16.847 -0.2973 -0.3380 -0.1336
14186TIP3    H163973   5.792   2.183  16.764 -2.2394 -0.6290  0.5454
14186TIP3    H263974   5.762   2.183  16.913 -0.6966  1.6912  0.9108
14187TIP3   OH263975   1.413   4.353  14.265 -0.0690  0.4826  0.1430
14187TIP3    H163976   1.386   4.445  14.272 -0.0529  0.7134 -2.1106
14187TIP3    H263977   1.471   4.351  14.189 -0.1739 -1.4366  0.0691
14188TIP3   OH263978   0.293   5.469  12.235  0.5818 -0.5414 -0.5240
14188TIP3    H163979   0.389   5.462  12.229  0.6180 -0.5646  0.0536
14188TIP3    H263980   0.261   5.393  12.186  0.8151  0.4111 -2.2249
14189TIP3   OH263981   6.283   1.329   5.578 -0.1112 -0.2062 -0.1511
14189TIP3    H163982   6.313   1.247   5.616 -1.6629  0.0435  1.8020
14189TIP3    H263983   6.358   1.388   5.584  0.5381 -1.0290 -0.1304
14190TIP3   OH263984   4.369   1.124  13.236 -0.0080 -0.5558  0.6420
14190TIP3    H163985   4.276   1.142  13.224 -0.0341 -2.1190 -2.5881
14190TIP3    H263986   4.377   1.029  13.228  1.7396 -0.6412  2.5045
14191TIP3   OH263987   1.446   0.444  15.886 -0.2479 -0.0529 -0.1032
14191TIP3    H163988   1.416   0.535  15.892 -0.5121 -0.2159  1.4839
14191TIP3    H263989   1.496   0.430  15.967 -0.3408 -1.3638 -0.2543
14192TIP3   OH263990   0.263   3.557   0.462  0.0928 -0.8649  0.8660
14192TIP3    H163991   0.313   3.615   0.519 -0.7405 -2.3095  3.1851
14192TIP3    H263992   0.176   3.552   0.502 -1.6049  0.4911 -2.2970
14193TIP3   OH263993   6.204   2.764  17.155 -0.1844 -0.3272 -0.6401
14193TIP3    H163994   6.186   2.726  17.241 -0.2037  1.3704  0.1499
14193TIP3    H263995   6.144   2.839  17.149  2.4237  1.8983 -0.4618
14194TIP3   OH263996   1.716   1.137   2.152 -0.4535 -0.1284 -0.1133
14194TIP3    H163997   1.762   1.073   2.205 -0.9362  0.2155  0.7526
14194TIP3    H263998   1.631   1.096   2.132 -0.1307 -0.4078 -0.9529
14195TIP3   OH263999   4.906   5.557  11.787 -0.6838  0.2618  0.0305
14195TIP3    H164000   4.823   5.519  11.816 -0.5605  0.9945  1.4271
14195TIP3    H264001   4.882   5.609  11.710 -1.4630  0.2150  0.2303
14196TIP3   OH264002   6.568   0.446  16.402  0.3373 -0.0998  0.2232
14196TIP3    H164003   6.601   0.420  16.488 -0.9849 -0.0516  0.7526
14196TIP3    H264004   6.474   0.455  16.413  0.0079 -1.0021 -1.4578
14197TIP3   OH264005   6.727   4.147   2.369  0.1399  0.1570  0.1059
14197TIP3    H164006   6.638   4.153   2.404 -0.1929  0.4460 -0.7566
14197TIP3    H264007   6.762   4.066   2.406 -0.6968 -0.2700 -0.0068
14198TIP3   OH264008   1.997   1.139   1.360 -0.3434 -0.6935 -0.8366
14198TIP3    H164009   1.983   1.081   1.285  0.9752 -1.2766 -0.6657
14198TIP3    H264010   2.006   1.080   1.435  0.9535 -0.3023 -0.6479
14199TIP3   OH264011   4.705   1.792   1.390 -0.3904  0.6800 -0.2085
14199TIP3    H164012   4.678   1.718   1.335 -0.3867 -0.0796  0.7791
14199TIP3    H264013   4.790   1.765   1.426 -0.5463  1.0127  0.4310
14200TIP3   OH264014   4.367   5.276   4.780  0.3076  0.2969  0.3150
14200TIP3    H164015   4.331   5.234   4.701  0.9927  1.2277 -0.5132
14200TIP3    H264016   4.349   5.369   4.768 -0.8765  0.3197  1.9646
14201TIP3   OH264017   4.111   1.211   3.522 -0.2519  0.2306  0.2801
14201TIP3    H164018   4.098   1.306   3.523 -0.4739  0.1978  1.1743
14201TIP3    H264019   4.096   1.184   3.612 -1.0467 -0.7660 -0.1241
14202TIP3   OH264020   4.065   2.094  13.346 -0.4937 -0.3907  0.5948
14202TIP3    H164021   4.009   2.118  13.271  0.5378  0.4945  0.0880
14202TIP3    H264022   4.022   2.136  13.421  1.0425  2.9691 -0.1998
14203TIP3   OH264023   4.743   1.387   4.082  0.5140  0.1152  0.0097
14203TIP3    H164024   4.689   1.404   4.005 -1.3230  0.3882  1.2946
14203TIP3    H264025   4.812   1.453   4.078  0.2353  0.3656 -1.1687
14204TIP3   OH264026   2.751   5.565   2.672  0.4229 -0.3831 -0.2566
14204TIP3    H164027   2.757   5.491   2.611  0.9531 -0.5209 -0.0380
14204TIP3    H264028   2.702   5.530   2.746  2.1887 -1.0702  0.6453
14205TIP3   OH264029   6.347   2.517  12.880  0.2823  0.1562 -0.3795
14205TIP3    H164030   6.419   2.579  12.895  2.2244 -2.2847  1.2880
14205TIP3    H264031   6.268   2.570  12.886  1.7815  2.3801  1.8561
14206TIP3   OH264032   4.365   2.343   5.017  0.1723  0.1119  0.0730
14206TIP3    H164033   4.361   2.349   4.922  1.7242 -0.5457 -0.0560
14206TIP3    H264034   4.424   2.269   5.035 -2.9509 -2.2937  1.5620
14207TIP3   OH264035   6.417   5.582  15.225  0.4912 -0.3106  0.3039
14207TIP3    H164036   6.435   5.650  15.160  3.5371 -1.4313 -0.1649
14207TIP3    H264037   6.403   5.502  15.174 -0.3926 -0.5852  0.9504
14208TIP3   OH264038   1.127   4.516   1.327 -0.5218  0.5855 -0.1573
14208TIP3    H164039   1.213   4.554   1.340 -1.0388  1.1596  1.9908
14208TIP3    H264040   1.137   4.423   1.350 -0.9631  1.1731  2.8061
14209TIP3   OH264041   4.943   6.437   1.417  0.2282 -0.4195 -0.2074
14209TIP3    H164042   4.891   6.508   1.456 -0.8263 -0.7505 -0.9870
14209TIP3    H264043   4.882   6.364   1.408  0.7237 -0.6931 -1.5164
14210TIP3   OH264044   5.262   5.797   0.021 -0.3702  0.2689  0.1267
14210TIP3    H164045   5.335   5.744  -0.011 -0.5218 -0.5956  1.1508
14210TIP3    H264046   5.277   5.804   0.115 -1.3304  0.5186  0.2761
14211TIP3   OH264047   4.329   5.822  14.265  0.5391 -0.2825  0.0152
14211TIP3    H164048   4.398   5.802  14.328  0.1711 -0.0248  0.5054
14211TIP3    H264049   4.266   5.875  14.314  0.6859  0.6852 -0.8045
14212TIP3   OH264050   5.877   2.211  13.181  0.2532 -0.3207 -0.7774
14212TIP3    H164051   5.967   2.187  13.201  0.4801 -0.1965 -1.5817
14212TIP3    H264052   5.827   2.132  13.195  0.2293 -0.0178  1.1273
14213TIP3   OH264053   2.540   4.898   2.205 -0.0998  0.3960 -0.1330
14213TIP3    H164054   2.542   4.976   2.150 -2.0762 -1.2734 -2.8218
14213TIP3    H264055   2.450   4.894   2.238 -0.2145 -1.0169 -0.5442
14214TIP3   OH264056   2.507   4.119  16.679  0.3663 -0.4837  0.5511
14214TIP3    H164057   2.585   4.171  16.696  0.8487 -1.2561  0.7362
14214TIP3    H264058   2.528   4.032  16.712 -0.7649 -0.5712  1.0817
14215TIP3   OH264059   2.100   0.483  12.018 -1.2346  0.0219  0.2419
14215TIP3    H164060   2.049   0.430  11.958 -0.5651 -1.6728  1.1023
14215TIP3    H264061   2.035   0.524  12.076 -1.8427  1.3024 -1.2822
14216TIP3   OH264062   1.830   4.869   1.368  0.1464  0.2376  0.8788
14216TIP3    H164063   1.831   4.858   1.463  1.4308 -1.4262  0.7132
14216TIP3    H264064   1.918   4.844   1.340 -0.3990  0.0856 -0.8041
14217TIP3   OH264065   4.990   6.426   5.235  0.2420 -0.2215  0.0698
14217TIP3    H164066   5.024   6.397   5.150 -1.2547 -1.7526 -0.0620
14217TIP3    H264067   4.906   6.468   5.214 -0.2157 -0.7537  0.7851
14218TIP3   OH264068   2.143   5.568  15.522 -0.2094 -0.6172 -0.0605
14218TIP3    H164069   2.079   5.498  15.509 -2.2291  1.0174  0.4565
14218TIP3    H264070   2.112   5.615  15.599 -0.5286  2.4177 -1.8570
14219TIP3   OH264071   1.492   0.308  12.336  0.2487 -0.1602 -0.5386
14219TIP3    H164072   1.542   0.257  12.399  0.3367  1.0501  0.4119
14219TIP3    H264073   1.556   0.365  12.295 -0.0544  0.1169 -0.6339
14220TIP3   OH264074   1.046   1.317   0.396 -0.5561 -1.0649  0.0810
14220TIP3    H164075   1.118   1.304   0.334  0.0019 -1.3440  0.7670
14220TIP3    H264076   1.087   1.307   0.482 -1.2434 -0.3274  0.5049
14221TIP3   OH264077   5.617   2.269  13.692  0.4929  0.3814  0.3016
14221TIP3    H164078   5.601   2.216  13.770 -1.4465  1.3789  0.6566
14221TIP3    H264079   5.634   2.206  13.623 -0.7324 -0.6690  0.9230
14222TIP3   OH264080   2.595   3.542  13.961  0.2252  0.2783  0.0979
14222TIP3    H164081   2.547   3.544  14.044 -0.0781  0.6738 -0.0847
14222TIP3    H264082   2.668   3.482  13.977 -0.1586 -0.1033  0.4696
14223TIP3   OH264083   2.271   6.236   1.738  0.3386  0.5329 -0.6357
14223TIP3    H164084   2.223   6.241   1.820 -3.8066 -2.1843 -2.5591
14223TIP3    H264085   2.258   6.321   1.697 -0.1244  0.9032  0.2673
14224TIP3   OH264086   3.960   5.678  12.372  0.0051  0.2476  0.4999
14224TIP3    H164087   3.969   5.733  12.450  0.2461 -1.3822  1.6831
14224TIP3    H264088   3.886   5.620  12.392  0.5010 -0.6471 -0.1636
14225TIP3   OH264089   0.848   1.542  12.530  0.7309  0.8736  0.4775
14225TIP3    H164090   0.891   1.527  12.614 -2.3649  0.3619  2.0973
14225TIP3    H264091   0.794   1.464  12.516  0.9593  1.0641 -1.9060
14226TIP3   OH264092   3.598   3.919  13.900 -0.6737 -0.3008  0.6845
14226TIP3    H164093   3.632   3.830  13.889  0.5388  0.1423  0.7646
14226TIP3    H264094   3.605   3.959  13.813 -3.3006 -0.9423  0.0713
14227TIP3   OH264095   6.199   6.003  13.079  0.5493  0.2648 -0.1639
14227TIP3    H164096   6.249   5.974  13.003  1.4127  2.0995 -0.3653
14227TIP3    H264097   6.264   6.045  13.135  0.2999 -2.6254  2.5562
14228TIP3   OH264098   4.736   6.505  13.215  0.0748  0.8872 -0.0237
14228TIP3    H164099   4.714   6.434  13.154  4.9802 -0.3423 -0.8077
14228TIP3    H264100   4.668   6.571  13.200 -3.1241 -2.3261 -1.3623
14229TIP3   OH264101   2.099   3.177  15.504 -0.1914 -0.3736 -0.6753
14229TIP3    H164102   2.062   3.137  15.582 -0.2941  0.4882 -0.2730
14229TIP3    H264103   2.189   3.145  15.500 -0.1970 -0.4420 -0.2299
14230TIP3   OH264104   4.634   1.252  13.131  0.6391 -0.5262  0.5933
14230TIP3    H164105   4.661   1.210  13.049 -1.3238  0.4078 -0.6339
14230TIP3    H264106   4.576   1.189  13.173 -0.6415  0.0361 -0.2251
14231TIP3   OH264107   6.048   0.244   3.086  0.1636 -0.3245 -0.1350
14231TIP3    H164108   5.997   0.252   3.167  1.1792 -1.0742  0.6123
14231TIP3    H264109   5.985   0.214   3.021 -0.4382 -0.8509  0.6622
14232TIP3   OH264110   2.736   6.484  13.701  0.2165 -0.0861  0.3743
14232TIP3    H164111   2.701   6.417  13.643  0.9704  0.2038 -0.4371
14232TIP3    H264112   2.674   6.556  13.695 -0.2073 -0.4176  0.6811
14233TIP3   OH264113   2.063   1.088   4.126 -0.2966 -0.4142  0.2349
14233TIP3    H164114   2.143   1.136   4.107  0.7984 -2.5349 -0.9060
14233TIP3    H264115   2.053   1.094   4.221  0.8498  0.4344  0.3209
14234TIP3   OH264116   4.321   5.857   2.036  0.3563  0.2590  0.1907
14234TIP3    H164117   4.235   5.899   2.040  1.0643  2.2384 -2.5338
14234TIP3    H264118   4.314   5.797   1.962  1.2615  0.2822  0.0802
14235TIP3   OH264119   1.787   6.273  17.325 -0.0888 -0.1214 -0.1801
14235TIP3    H164120   1.723   6.307  17.387  2.4225  1.1071  1.9326
14235TIP3    H264121   1.735   6.221  17.264 -3.2174  1.7969  0.6114
14236TIP3   OH264122   1.906   1.893   3.535 -0.6220  0.1818 -0.4135
14236TIP3    H164123   1.997   1.910   3.562 -0.1831 -1.2283 -0.9269
14236TIP3    H264124   1.884   1.810   3.576 -2.6239  1.7043  1.8387
14237TIP3   OH264125   3.724   4.300   5.395 -0.4357  0.7405 -0.2871
14237TIP3    H164126   3.652   4.243   5.422 -1.4263  2.8418  1.8360
14237TIP3    H264127   3.800   4.267   5.443 -0.5083  0.0330 -0.6364
14238TIP3   OH264128   6.659   5.851  16.375  0.4813  0.0051  0.0321
14238TIP3    H164129   6.754   5.845  16.366  0.5578  0.7524  0.2419
14238TIP3    H264130   6.628   5.874  16.287  0.5902  0.6520  0.1536
14239TIP3   OH264131   2.136   0.358   5.342 -0.1704 -0.1305  0.1156
14239TIP3    H164132   2.165   0.443   5.374 -1.7732  0.0131  1.3283
14239TIP3    H264133   2.051   0.374   5.303  0.8009 -0.7080 -2.4452
14240TIP3   OH264134   0.438   3.956   2.269 -0.0578 -0.3660 -0.4977
14240TIP3    H164135   0.487   3.891   2.318 -0.0696  0.1430  0.2057
14240TIP3    H264136   0.384   3.906   2.208 -0.2888 -1.0103  0.2399
14241TIP3   OH264137   0.414   4.007   0.292 -0.5167 -0.0002 -0.0284
14241TIP3    H164138   0.410   3.968   0.205 -0.7432  0.5437 -0.2651
14241TIP3    H264139   0.341   4.069   0.295 -0.5756 -0.0903  0.5852
14242TIP3   OH264140   3.597   0.232   1.747  0.3567  0.2088  0.3736
14242TIP3    H164141   3.535   0.160   1.739  2.4773 -1.5468 -1.9791
14242TIP3    H264142   3.554   0.306   1.704  0.0008 -1.0995 -1.6569
14243TIP3   OH264143   1.187   0.672   1.083  0.3712  0.1690  0.1343
14243TIP3    H164144   1.200   0.590   1.035 -0.2820 -0.5158  1.0806
14243TIP3    H264145   1.198   0.740   1.018 -1.2589 -0.7552 -1.2026
14244TIP3   OH264146   1.402   4.526  11.337 -0.0695 -0.4160 -0.2636
14244TIP3    H164147   1.454   4.539  11.416 -1.2953 -0.1312  0.5292
14244TIP3    H264148   1.437   4.446  11.298  1.0130 -0.1790  0.1842
14245TIP3   OH264149   3.367   3.387  15.327 -0.3059  0.3894  0.2337
14245TIP3    H164150   3.340   3.330  15.398  0.0820  0.9124  0.8112
14245TIP3    H264151   3.356   3.476  15.361  0.9812  0.6323  0.0677
14246TIP3   OH264152   0.944   3.950   3.257 -0.2319  0.1503  0.6027
14246TIP3    H164153   0.887   3.881   3.290  0.1353  0.0624  1.0566
14246TIP3    H264154   1.015   3.955   3.320  0.0588  0.5324  0.2509
14247TIP3   OH264155   3.319   6.016  12.683 -0.4440 -0.8264 -0.2569
14247TIP3    H164156   3.333   5.990  12.774 -2.0875 -1.2491 -0.0912
14247TIP3    H264157   3.406   6.019  12.645  0.2469 -0.8991  1.2663
14248TIP3   OH264158   2.837   4.865   2.168  0.4324 -0.0660 -0.1920
14248TIP3    H164159   2.886   4.874   2.250  0.3878  1.0789 -0.2749
14248TIP3    H264160   2.746   4.881   2.192  0.1284 -1.7017 -0.1283
14249TIP3   OH264161   5.433   6.507   1.451  0.5234 -0.2563 -0.5130
14249TIP3    H164162   5.343   6.473   1.443  0.2754 -0.9700  3.3824
14249TIP3    H264163   5.427   6.598   1.423 -1.7566  0.0480  0.7012
14250TIP3   OH264164   2.390   4.314   0.492  0.1564  0.1467 -0.1305
14250TIP3    H164165   2.429   4.304   0.405  1.4486  1.7643  0.1940
14250TIP3    H264166   2.448   4.377   0.536 -0.5404 -0.5390  1.8558
14251TIP3   OH264167   6.025   5.873  14.307 -0.5446 -0.3665  0.1706
14251TIP3    H164168   5.976   5.949  14.274  0.5948 -0.0644 -0.9129
14251TIP3    H264169   6.020   5.809  14.236  2.0086  0.3119 -0.7063
14252TIP3   OH264170   3.241   6.526  12.532  0.1503 -0.1858  0.2724
14252TIP3    H164171   3.230   6.608  12.580 -0.7944  0.1665 -0.5109
14252TIP3    H264172   3.174   6.468  12.568  0.0583 -0.2313  0.0319
14253TIP3   OH264173   3.395   5.515   6.055  0.1370  0.3589 -0.1986
14253TIP3    H164174   3.454   5.475   6.118 -1.6776 -0.9380  0.7616
14253TIP3    H264175   3.378   5.602   6.089 -0.2650 -0.0785  0.7403
14254TIP3   OH264176   0.707   6.662   2.819  0.0191 -0.3964  0.2476
14254TIP3    H164177   0.619   6.633   2.793  0.1026 -2.0774  1.6806
14254TIP3    H264178   0.692   6.716   2.897  0.2500 -0.5602  0.4052
14255TIP3   OH264179   1.018   5.255   4.137 -0.7088 -0.6301  0.4385
14255TIP3    H164180   1.027   5.237   4.044 -2.6894  1.0513 -0.1469
14255TIP3    H264181   1.079   5.195   4.179 -0.8346 -2.4740 -1.8325
14256TIP3   OH264182   3.072   2.301  15.352 -0.2326  0.2665 -0.1904
14256TIP3    H164183   3.163   2.330  15.356 -1.1906  3.5469  0.6186
14256TIP3    H264184   3.021   2.381  15.363 -3.2432 -1.5746  0.2361
14257TIP3   OH264185   0.916   5.173  11.098  0.0468  0.0752  0.4510
14257TIP3    H164186   0.905   5.264  11.128  1.1490  0.2549  0.3209
14257TIP3    H264187   1.003   5.148  11.127 -0.1700 -0.8839  0.3048
14258TIP3   OH264188   1.857   4.245  15.184 -0.7772 -0.6742  0.1973
14258TIP3    H164189   1.948   4.268  15.206 -0.8281 -1.3947  1.1840
14258TIP3    H264190   1.816   4.329  15.162 -0.5003 -0.0023  2.0704
14259TIP3   OH264191   5.424   2.188   6.462 -0.7141 -0.4468 -0.1442
14259TIP3    H164192   5.398   2.120   6.524 -2.0117  0.9404  0.9030
14259TIP3    H264193   5.356   2.186   6.395 -1.5703  0.7375  0.6530
14260TIP3   OH264194   5.115   4.513   1.751 -0.0122  0.6872  0.4151
14260TIP3    H164195   5.187   4.521   1.814 -0.8324 -0.7412  1.6084
14260TIP3    H264196   5.081   4.425   1.764 -0.9625  0.7546 -1.2617
14261TIP3   OH264197   5.049   2.330  11.443 -0.4030  0.3641  0.1294
14261TIP3    H164198   5.026   2.365  11.529 -0.7540 -1.3831  0.8072
14261TIP3    H264199   5.144   2.340  11.438 -0.2673 -0.2428  1.0942
14262TIP3   OH264200   2.646   2.936   1.584 -0.2023 -0.0831  0.0715
14262TIP3    H164201   2.557   2.936   1.619 -1.6709 -0.5530 -3.2488
14262TIP3    H264202   2.654   3.020   1.540  0.7374 -0.3550 -0.2926
14263TIP3   OH264203   3.372   3.586  12.858 -0.0552  0.1867 -0.6271
14263TIP3    H164204   3.409   3.537  12.931 -0.4311  0.8211 -0.0072
14263TIP3    H264205   3.433   3.658  12.843  0.3548 -0.2904 -1.3662
14264TIP3   OH264206   3.786   4.901   4.092  0.1384  0.2917  0.1291
14264TIP3    H164207   3.776   4.809   4.113 -1.4998  0.7751  1.6846
14264TIP3    H264208   3.849   4.934   4.157  0.0015  0.4651  0.1739
14265TIP3   OH264209   6.129   4.684  15.150  0.0221  0.3906 -0.7100
14265TIP3    H164210   6.069   4.708  15.220  1.6784  1.7479  0.3181
14265TIP3    H264211   6.149   4.766  15.105  3.1426  0.5560  0.7163
14266TIP3   OH264212   1.630   1.734   1.117  0.4820 -0.2937 -0.6308
14266TIP3    H164213   1.627   1.812   1.062  0.1022 -0.5629 -1.0019
14266TIP3    H264214   1.540   1.702   1.118  0.1742  0.4705  1.2869
14267TIP3   OH264215   4.223   5.168   6.303  0.2066  0.2520 -0.1018
14267TIP3    H164216   4.147   5.184   6.359 -1.0608  1.5354 -2.0761
14267TIP3    H264217   4.223   5.074   6.289 -0.5859  0.1543  0.4963
14268TIP3   OH264218   3.377   1.654  12.219  0.1893 -0.0688 -0.3033
14268TIP3    H164219   3.411   1.582  12.167  0.8110  0.8395 -1.1971
14268TIP3    H264220   3.451   1.682  12.273 -0.4770 -1.0758  1.2216
14269TIP3   OH264221   2.650   4.619  11.724 -0.5727 -0.0562  0.0505
14269TIP3    H164222   2.578   4.671  11.759 -0.0954  0.3247  0.4807
14269TIP3    H264223   2.617   4.530  11.722 -1.6034  0.3128 -1.2052
14270TIP3   OH264224   1.851   1.549  11.160 -0.2734  0.3369 -0.5796
14270TIP3    H164225   1.818   1.605  11.090  0.8236  0.5363 -0.9568
14270TIP3    H264226   1.789   1.560  11.232  1.1718  4.0092  0.3042
14271TIP3   OH264227   1.075   0.805  11.667 -0.6116  0.6284  0.0288
14271TIP3    H164228   1.024   0.871  11.620 -1.0489  0.0796 -0.2853
14271TIP3    H264229   1.117   0.753  11.598 -0.6817  0.2680  0.2513
14272TIP3   OH264230   2.105   3.115   0.399  0.5978  0.3241  0.0396
14272TIP3    H164231   2.121   3.209   0.390 -1.6394  0.7550 -0.1328
14272TIP3    H264232   2.041   3.108   0.470 -0.5633 -0.8683 -1.0536
14273TIP3   OH264233   3.729   6.276   5.556 -0.1788 -0.5863  0.2274
14273TIP3    H164234   3.786   6.278   5.479 -0.6746  0.7005 -0.1347
14273TIP3    H264235   3.691   6.188   5.556  0.0778 -0.7080 -0.8105
14274TIP3   OH264236   1.233   1.001   0.250 -0.2297  0.2257  0.9613
14274TIP3    H164237   1.305   1.051   0.213 -0.7399 -0.9659 -1.8463
14274TIP3    H264238   1.157   1.059   0.242 -0.5762 -0.4439 -1.1368
14275TIP3   OH264239   6.250   5.941   0.634  0.1699 -0.0621 -0.2146
14275TIP3    H164240   6.187   5.955   0.563 -0.3407  1.0883  0.4186
14275TIP3    H264241   6.214   5.993   0.707  1.0223 -0.6835  0.6651
14276TIP3   OH264242   4.822   3.277   0.741  0.0434  1.0039 -0.3369
14276TIP3    H164243   4.914   3.253   0.729 -0.1210 -0.3403  0.8667
14276TIP3    H264244   4.792   3.299   0.653  1.8205  2.7110 -0.5935
14277TIP3   OH264245   5.525   6.673   2.735  0.1773 -0.3578 -0.7018
14277TIP3    H164246   5.540   6.643   2.825 -1.9017  0.8495  0.1226
14277TIP3    H264247   5.470   6.604   2.696 -0.6756  0.1067 -0.3409
14278TIP3   OH264248   0.556   6.240   5.360 -0.2338 -0.1347 -0.2098
14278TIP3    H164249   0.541   6.303   5.431  0.4482  1.0645 -1.0785
14278TIP3    H264250   0.490   6.263   5.295 -1.2970 -1.6687  0.2929
14279TIP3   OH264251   4.953   1.527   3.379  0.4968  0.4604  0.0311
14279TIP3    H164252   4.889   1.547   3.310 -0.4676 -1.3480  0.3455
14279TIP3    H264253   5.038   1.533   3.335  0.0334  1.2325 -0.8103
14280TIP3   OH264254   3.780   0.117  13.326  0.2702 -0.1988  0.2192
14280TIP3    H164255   3.827   0.037  13.352  0.2922 -0.0808  0.5532
14280TIP3    H264256   3.736   0.094  13.245 -0.1130 -0.7012  0.5646
14281TIP3   OH264257   2.403   4.325  17.009  0.0801  0.5051  0.6664
14281TIP3    H164258   2.395   4.236  17.045  0.1156  0.7656  1.3290
14281TIP3    H264259   2.498   4.338  17.001  0.1035  0.7886  1.3545
14282TIP3   OH264260   0.744   2.587  14.124 -0.3199  0.0148  0.1761
14282TIP3    H164261   0.659   2.544  14.132  0.1737 -1.2479 -1.0387
14282TIP3    H264262   0.808   2.517  14.137  0.5106  0.1642 -2.4352
14283TIP3   OH264263   2.631   3.277  11.915  0.4937 -0.3340  0.1044
14283TIP3    H164264   2.536   3.281  11.916  0.5325  0.6011  0.6742
14283TIP3    H264265   2.653   3.260  11.823 -0.1996  0.1074 -0.1465
14284TIP3   OH264266   1.006   5.425   3.559 -0.1453  0.3594  0.0411
14284TIP3    H164267   1.061   5.490   3.517  0.0180 -0.2257 -0.6817
14284TIP3    H264268   1.067   5.368   3.605 -0.2563  0.4968  0.3591
14285TIP3   OH264269   1.309   5.051   3.466 -0.4330  0.1489  0.4927
14285TIP3    H164270   1.320   4.969   3.418 -1.0312  0.0505  0.5208
14285TIP3    H264271   1.235   5.094   3.424 -0.8868  0.1197  1.2479
14286TIP3   OH264272   0.554   3.697  16.997  0.5282  0.0796 -0.4826
14286TIP3    H164273   0.511   3.775  16.963  0.3284  0.0745 -0.2488
14286TIP3    H264274   0.489   3.628  16.990  1.0963 -0.3485 -1.7927
14287TIP3   OH264275   3.670   3.191  11.103  0.2245 -0.1824 -0.1736
14287TIP3    H164276   3.637   3.187  11.193 -0.6766  0.6825 -0.4485
14287TIP3    H264277   3.666   3.283  11.080 -1.7368 -0.6308 -1.8708
14288TIP3   OH264278   0.532   4.471  10.860 -0.4083 -0.6524  0.3898
14288TIP3    H164279   0.527   4.376  10.856  0.5920 -0.7793  1.5144
14288TIP3    H264280   0.604   4.494  10.801 -1.0856 -0.5198 -0.4038
14289TIP3   OH264281   3.551   1.858   5.508 -0.5528  0.8408  0.4418
14289TIP3    H164282   3.576   1.934   5.560 -2.0960  2.9170 -1.6423
14289TIP3    H264283   3.460   1.841   5.533 -0.2634 -0.3000  0.7923
14290TIP3   OH264284   0.894   1.485  15.333  0.2182 -0.1357  0.2040
14290TIP3    H164285   0.825   1.497  15.267  0.9544  0.5770 -0.4541
14290TIP3    H264286   0.885   1.393  15.360 -1.4278  0.1153  0.6442
14291TIP3   OH264287   4.957   2.078  16.027  0.0649 -0.0630 -0.1216
14291TIP3    H164288   4.967   1.983  16.028 -0.3976 -0.1183 -0.6225
14291TIP3    H264289   4.919   2.097  15.942 -1.9234  0.3519  0.8089
14292TIP3   OH264290   0.907   2.390   5.106  0.1444 -0.0486 -0.1165
14292TIP3    H164291   0.972   2.351   5.164 -0.6659 -1.3730 -0.0577
14292TIP3    H264292   0.843   2.321   5.092 -0.0768  0.4839 -1.9937
14293TIP3   OH264293   5.820   4.402   5.649  0.2274 -0.1108 -0.0979
14293TIP3    H164294   5.901   4.351   5.658 -1.6043 -3.4690 -1.0930
14293TIP3    H264295   5.782   4.401   5.737 -0.0537 -0.9540 -0.2238
14294TIP3   OH264296   5.703   6.348  11.340  0.3319 -0.3380  0.5498
14294TIP3    H164297   5.781   6.392  11.305 -0.5687  0.4073 -0.6334
14294TIP3    H264298   5.711   6.258  11.310  0.7124 -0.2403  0.3530
14295TIP3   OH264299   3.761   4.459  16.354 -0.7235 -0.1475  0.2071
14295TIP3    H164300   3.668   4.477  16.366 -0.3400  3.8637 -1.4040
14295TIP3    H264301   3.805   4.542  16.373  2.5168 -1.7104  0.2789
14296TIP3   OH264302   4.689   0.598   2.362  0.0368 -0.0407  0.0193
14296TIP3    H164303   4.721   0.680   2.324  0.6448  0.5375  1.7229
14296TIP3    H264304   4.766   0.558   2.401 -0.1684 -1.6549 -1.0992
14297TIP3   OH264305   1.839   0.234   2.684 -0.1616 -0.1138 -0.2943
14297TIP3    H164306   1.878   0.150   2.710 -0.9184  0.0939  1.7139
14297TIP3    H264307   1.767   0.246   2.746 -1.8330  0.7174 -2.3184
14298TIP3   OH264308   4.940   5.525  16.851  0.5923  0.5063 -0.3099
14298TIP3    H164309   5.006   5.487  16.909  0.1305  1.1329  0.6646
14298TIP3    H264310   4.889   5.451  16.820  0.0326  0.2452  1.1427
14299TIP3   OH264311   0.226   0.226  12.035  0.4829  0.1682 -0.2546
14299TIP3    H164312   0.231   0.203  12.128 -2.4977  1.0054  0.2184
14299TIP3    H264313   0.273   0.309  12.028 -2.1023  1.9167  1.3351
14300TIP3   OH264314   0.972   6.684  14.386 -0.4614  0.2390  0.1138
14300TIP3    H164315   1.011   6.640  14.311 -1.2033 -1.0557  0.4548
14300TIP3    H264316   1.040   6.745  14.416 -0.3307  1.1672 -1.8700
14301TIP3   OH264317   6.306   3.039   4.668 -0.1676  0.0018  0.0274
14301TIP3    H164318   6.320   3.133   4.670  0.8164 -0.1209 -0.5255
14301TIP3    H264319   6.251   3.021   4.745 -0.0899  0.9702  0.3211
14302TIP3   OH264320   2.493   1.368  12.958  0.4508 -0.5259 -0.1172
14302TIP3    H164321   2.581   1.397  12.979  0.3131 -1.6771  2.4397
14302TIP3    H264322   2.442   1.385  13.037 -0.9910 -2.1967 -0.6149
14303TIP3   OH264323   6.222   2.412  10.768  0.4308  0.0801  0.6509
14303TIP3    H164324   6.262   2.470  10.834  1.4271  0.2671 -0.0891
14303TIP3    H264325   6.184   2.341  10.819  2.5778 -0.6315  1.3847
14304TIP3   OH264326   2.936   2.650   5.698 -0.1357  0.6032 -0.2658
14304TIP3    H164327   2.876   2.650   5.623  0.1376 -0.1774 -0.4883
14304TIP3    H264328   2.982   2.567   5.693  0.0711  0.6486  0.6302
14305TIP3   OH264329   2.652   2.932  13.530  0.2278  0.5097 -0.7409
14305TIP3    H164330   2.686   2.843  13.519 -1.7015 -0.2704 -0.7265
14305TIP3    H264331   2.612   2.932  13.617  2.2088  2.1469  0.2877
14306TIP3   OH264332   5.702   0.461   2.842 -0.2474  0.0157  0.5583
14306TIP3    H164333   5.782   0.487   2.797  0.7951 -1.3303  1.5438
14306TIP3    H264334   5.640   0.442   2.771  0.9905 -0.9812 -0.3106
14307TIP3   OH264335   3.781   5.444  17.077 -0.4188 -0.2872  0.6627
14307TIP3    H164336   3.700   5.455  17.127 -1.3457  1.8238 -1.1165
14307TIP3    H264337   3.762   5.373  17.016 -0.5410 -0.5337  0.9885
14308TIP3   OH264338   5.966   6.458   3.951 -0.0404 -0.0716  0.1703
14308TIP3    H164339   5.930   6.432   3.866  1.2163 -1.2424 -0.0450
14308TIP3    H264340   5.902   6.427   4.015 -1.5602  1.8183 -0.3467
14309TIP3   OH264341   5.194   3.513  15.453  0.1617  0.0757  0.4768
14309TIP3    H164342   5.189   3.504  15.358  0.8102  2.5220  0.1400
14309TIP3    H264343   5.239   3.434  15.483 -2.1931 -1.9463 -0.9188
14310TIP3   OH264344   3.295   2.383  16.935  0.4963 -0.6179  0.0781
14310TIP3    H164345   3.328   2.456  16.988 -1.0882  0.3787 -0.2147
14310TIP3    H264346   3.309   2.411  16.845  1.3500 -1.4149 -0.0432
14311TIP3   OH264347   3.177   6.717  14.942  0.6426  0.2862 -0.5305
14311TIP3    H164348   3.168   6.672  14.858  0.3496  0.0260 -0.3659
14311TIP3    H264349   3.179   6.647  15.007  1.0074  0.4797 -0.3313
14312TIP3   OH264350   0.328   5.016  12.026 -0.0041 -0.3585 -0.6922
14312TIP3    H164351   0.397   4.972  12.074  0.2580 -0.0117 -0.7494
14312TIP3    H264352   0.252   4.958  12.035 -0.1037 -0.0636  0.5465
14313TIP3   OH264353   2.615   5.647  13.523 -0.1965  0.0811  0.2403
14313TIP3    H164354   2.667   5.572  13.491 -1.3705 -1.1605  1.1112
14313TIP3    H264355   2.524   5.622  13.505 -0.5767  1.9663 -0.7451
14314TIP3   OH264356   6.735   3.457   3.233 -0.0748  0.1604  0.1833
14314TIP3    H164357   6.757   3.371   3.268  1.9973 -0.4498 -2.2974
14314TIP3    H264358   6.793   3.518   3.280 -1.8708  0.3809  2.2756
14315TIP3   OH264359   6.087   0.200  16.798  0.0837  0.0089 -0.0532
14315TIP3    H164360   5.998   0.164  16.800 -0.1011  0.4180 -0.5500
14315TIP3    H264361   6.081   0.280  16.849 -0.5203  1.4798 -2.2591
14316TIP3   OH264362   5.675   3.790   4.896  0.2778  0.0879 -0.3555
14316TIP3    H164363   5.712   3.836   4.971  0.6043 -0.6812 -0.0364
14316TIP3    H264364   5.634   3.858   4.844 -0.6706  0.5307  0.9335
14317TIP3   OH264365   6.387   4.731  15.354  0.1357 -0.1412  0.0758
14317TIP3    H164366   6.309   4.778  15.384 -0.0161 -2.0322  2.9987
14317TIP3    H264367   6.356   4.675  15.282 -0.9489 -0.0418  0.4556
14318TIP3   OH264368   0.763   4.734   0.067  0.0859  0.6902 -0.2270
14318TIP3    H164369   0.778   4.735   0.162 -3.0247  1.1639  0.3958
14318TIP3    H264370   0.757   4.826   0.043  1.0747  0.5768 -0.9564
14319TIP3   OH264371   3.625   2.243   5.565 -0.1700 -0.5298  0.0406
14319TIP3    H164372   3.695   2.196   5.519  0.2297  0.2415 -0.1673
14319TIP3    H264373   3.668   2.282   5.641 -0.7429 -1.4510  0.8659
14320TIP3   OH264374   2.219   5.467  16.076 -0.4664  0.0875 -0.3578
14320TIP3    H164375   2.307   5.436  16.100 -0.5248  0.6115  0.5834
14320TIP3    H264376   2.160   5.404  16.116 -0.5507  0.6840  0.4926
14321TIP3   OH264377   2.339   4.835   1.729  0.0708  0.2386 -1.2714
14321TIP3    H164378   2.284   4.812   1.653 -0.0445 -0.0499 -1.1004
14321TIP3    H264379   2.414   4.777   1.723 -1.0246 -1.4274  0.1084
14322TIP3   OH264380   4.034   0.512   0.474 -0.1369 -0.1339 -0.0835
14322TIP3    H164381   3.950   0.505   0.428 -1.2190 -1.2589  1.9391
14322TIP3    H264382   4.011   0.534   0.564  1.8406  0.8250  0.2435
14323TIP3   OH264383   6.457   0.352   6.370 -0.2546  0.1248 -0.0440
14323TIP3    H164384   6.376   0.350   6.420  0.2312  2.3689  0.9936
14323TIP3    H264385   6.523   0.317   6.430  0.4291  3.3177  1.3098
14324TIP3   OH264386   6.590   0.496   2.290  0.3904  0.2480  0.3898
14324TIP3    H164387   6.648   0.570   2.311 -0.6425  0.6984  1.8087
14324TIP3    H264388   6.540   0.525   2.214  2.2840 -0.3200 -1.1487
14325TIP3   OH264389   4.703   3.817  15.484 -0.0330  0.2046 -0.2668
14325TIP3    H164390   4.782   3.765  15.471  0.0925  0.9095 -2.8991
14325TIP3    H264391   4.735   3.907  15.489 -0.5693  0.3828 -0.0452
14326TIP3   OH264392   5.072   6.005  13.325 -0.4220  0.6513  0.1174
14326TIP3    H164393   5.107   6.094  13.319 -1.9638  1.2875 -0.1799
14326TIP3    H264394   5.079   5.970  13.236  2.3237 -0.4568  0.6769
14327TIP3   OH264395   2.277   0.244  16.122 -0.4143 -0.3310  0.2013
14327TIP3    H164396   2.272   0.208  16.210  0.3510 -1.8393 -0.3411
14327TIP3    H264397   2.191   0.286  16.109 -0.4785  0.0674  1.6875
14328TIP3   OH264398   1.038   4.043   0.042  0.3402 -0.2721 -0.0234
14328TIP3    H164399   1.065   3.985  -0.029  1.3530  0.6650 -0.4395
14328TIP3    H264400   1.019   3.985   0.115  0.7316 -1.1578 -0.6118
14329TIP3   OH264401   0.933   2.047   5.417  0.1623  0.2182 -0.2913
14329TIP3    H164402   0.961   2.138   5.410  3.3141 -0.6764 -1.0213
14329TIP3    H264403   0.982   2.002   5.348 -0.6022 -2.1744  0.6397
14330TIP3   OH264404   6.044   0.023   0.049  0.4733 -0.1154 -0.1931
14330TIP3    H164405   6.050  -0.056   0.102  1.9915  0.4050  0.4629
14330TIP3    H264406   5.983   0.000  -0.021 -0.6092 -1.2265  1.0431
14331TIP3   OH264407   2.979   5.819  13.172 -0.1857  0.6162 -0.2714
14331TIP3    H164408   2.948   5.749  13.114 -1.8118  1.3412 -0.3348
14331TIP3    H264409   2.942   5.899  13.134  1.6852  1.5411 -0.2378
14332TIP3   OH264410   6.709   3.649   1.315  0.2253  0.6086 -0.3944
14332TIP3    H164411   6.641   3.603   1.266  0.8793  0.3706 -1.1034
14332TIP3    H264412   6.680   3.740   1.317 -0.7199  0.3042  0.3898
14333TIP3   OH264413   0.042   3.390  16.027  0.6455 -0.7464 -0.5173
14333TIP3    H164414   0.126   3.350  16.003  1.5228  1.4987 -1.3988
14333TIP3    H264415  -0.003   3.402  15.944  0.2543 -0.2241 -0.2299
14334TIP3   OH264416   0.206   4.852   3.714 -0.8497 -0.2959 -0.2753
14334TIP3    H164417   0.265   4.862   3.639 -0.9852  0.1064 -0.3357
14334TIP3    H264418   0.156   4.773   3.696 -0.4060 -0.5752 -0.2780
14335TIP3   OH264419   5.481   5.104  14.164 -0.1702  0.1601 -0.3893
14335TIP3    H164420   5.566   5.148  14.153  0.9693 -1.7207  0.2978
14335TIP3    H264421   5.476   5.043  14.090  0.3860 -1.6144  0.9424
14336TIP3   OH264422   5.183   5.339   5.681 -0.1924 -0.0270  0.0085
14336TIP3    H164423   5.268   5.321   5.640 -0.1472 -1.4786  0.6750
14336TIP3    H264424   5.179   5.434   5.686  0.7611  0.1132 -1.3229
14337TIP3   OH264425   2.118   5.080   1.463 -0.6416 -0.5502 -0.2226
14337TIP3    H164426   2.039   5.122   1.497  0.5194  0.9736  0.7228
14337TIP3    H264427   2.130   5.003   1.518 -1.0708 -0.3893  0.0960
14338TIP3   OH264428   2.241   1.235  12.320  0.0588  0.7916  0.4321
14338TIP3    H164429   2.323   1.284  12.319 -0.4391  1.7179  1.5679
14338TIP3    H264430   2.261   1.154  12.367  0.1060  1.4873  1.6674
14339TIP3   OH264431   3.120   1.993  17.001 -0.1625 -0.2285  0.2519
14339TIP3    H164432   3.029   2.009  16.976  0.0781 -2.5174 -2.7844
14339TIP3    H264433   3.171   2.019  16.924  1.7330  0.3874  1.6347
14340TIP3   OH264434   3.423   6.105  17.263  0.4855  0.1570  0.5950
14340TIP3    H164435   3.348   6.139  17.214  0.8349  0.4007  0.2189
14340TIP3    H264436   3.385   6.062  17.339  0.0600  2.6285  1.8866
14341TIP3   OH264437   3.242   4.722   4.918 -0.1340  0.0757  0.2405
14341TIP3    H164438   3.275   4.708   4.829 -0.0268 -0.4520  0.3554
14341TIP3    H264439   3.205   4.810   4.917 -0.9652 -0.2638 -0.5791
14342TIP3   OH264440   6.713   4.011  13.991 -0.4860  0.3667 -0.7462
14342TIP3    H164441   6.679   3.922  13.996 -1.3401  0.7225 -0.0719
14342TIP3    H264442   6.678   4.056  14.068  2.4679  0.4616  0.7085
14343TIP3   OH264443   5.703   3.958   4.404  0.2406 -0.4088 -0.1114
14343TIP3    H164444   5.710   3.949   4.499  0.2182  2.2404  0.2329
14343TIP3    H264445   5.613   3.989   4.390  0.9413  1.5307 -0.6881
14344TIP3   OH264446   3.734   1.423   0.666 -0.7218 -0.8587 -0.0503
14344TIP3    H164447   3.781   1.372   0.733  0.0362 -0.0766  0.0247
14344TIP3    H264448   3.794   1.426   0.592  0.3676  2.0244  0.8110
14345TIP3   OH264449   2.395   5.976  15.188 -0.1841  0.1109  0.0352
14345TIP3    H164450   2.356   5.996  15.103  0.5865 -1.2430 -0.6644
14345TIP3    H264451   2.327   5.999  15.252 -1.1967  0.0778 -1.0061
14346TIP3   OH264452   4.957   6.254   3.386 -0.1242  0.2186 -0.0180
14346TIP3    H164453   4.868   6.241   3.353 -0.3698  0.6347  0.4550
14346TIP3    H264454   5.012   6.200   3.331 -0.9350 -1.8400  1.0922
14347TIP3   OH264455   0.887   0.236   2.695 -0.2035 -0.2078  0.5758
14347TIP3    H164456   0.828   0.304   2.728 -0.5695 -1.0304  1.7027
14347TIP3    H264457   0.961   0.283   2.657  0.2160  0.8169  2.5502
14348TIP3   OH264458   4.795   0.961   1.406  0.0486 -0.0508  0.0241
14348TIP3    H164459   4.873   1.001   1.367 -0.6946 -0.5860 -2.1915
14348TIP3    H264460   4.726   1.027   1.393 -0.4149 -0.6171 -0.4753
14349TIP3   OH264461   2.121   4.353   2.690 -0.0092 -0.1757  0.0001
14349TIP3    H164462   2.092   4.264   2.670  1.8137 -0.8243  0.0937
14349TIP3    H264463   2.146   4.350   2.782 -1.8992  1.0264  0.6161
14350TIP3   OH264464   1.990   2.276   5.880  0.6906  0.3063 -1.0858
14350TIP3    H164465   2.011   2.370   5.876 -0.3451  0.6009  0.0417
14350TIP3    H264466   2.023   2.248   5.965 -1.8402  0.4025  0.0106
14351TIP3   OH264467   1.591   4.172  13.462 -0.4649 -0.4769  0.2521
14351TIP3    H164468   1.663   4.181  13.400 -2.6668  0.5215 -2.3381
14351TIP3    H264469   1.602   4.085  13.499  1.2269 -0.9153 -1.1686
14352TIP3   OH264470   3.224   3.226  16.675  0.1387  0.1584 -0.0907
14352TIP3    H164471   3.177   3.309  16.662  0.3001  0.4154  0.8909
14352TIP3    H264472   3.236   3.220  16.770  0.3470 -0.8774 -0.1760
14353TIP3   OH264473   4.709   4.532   5.941 -0.2076  0.1397 -0.1235
14353TIP3    H164474   4.625   4.577   5.945 -0.2514  0.0288  0.2202
14353TIP3    H264475   4.695   4.460   5.878 -0.2144  0.4365 -0.4640
14354TIP3   OH264476   0.290   4.883   3.461 -0.3947 -0.3785  0.3033
14354TIP3    H164477   0.212   4.938   3.448  0.0832 -0.1448 -2.0974
14354TIP3    H264478   0.363   4.944   3.456  0.0110 -0.7744  1.2527
14355TIP3   OH264479   0.589   4.227   5.900 -0.5138  0.1940  0.0254
14355TIP3    H164480   0.507   4.258   5.862 -0.7929 -0.7850 -0.2086
14355TIP3    H264481   0.623   4.301   5.950 -0.6670  1.1748 -1.2754
14356TIP3   OH264482   3.233   1.888  16.105 -0.2446 -0.1639 -0.1827
14356TIP3    H164483   3.137   1.884  16.106 -0.2276 -0.7894  1.1109
14356TIP3    H264484   3.258   1.892  16.198  0.9794  0.1366 -0.5082
14357TIP3   OH264485   1.063   3.034   2.629 -0.0765 -0.5910  0.0133
14357TIP3    H164486   1.096   3.124   2.630  2.0506 -1.3295  1.0055
14357TIP3    H264487   1.116   2.988   2.693 -1.1103 -2.5894 -0.4834
14358TIP3   OH264488   0.410   3.547  14.519 -0.5340  0.4133  0.5737
14358TIP3    H164489   0.497   3.566  14.553 -0.4987 -0.8065  1.2511
14358TIP3    H264490   0.409   3.583  14.431  1.0077 -0.3948  0.1951
14359TIP3   OH264491   4.351   3.880  14.195  0.2654  0.5110  0.2478
14359TIP3    H164492   4.325   3.807  14.140  0.3118 -0.5771  1.6229
14359TIP3    H264493   4.420   3.924  14.147 -1.8582  1.5744 -2.0509
14360TIP3   OH264494   0.551   5.026  16.317  0.0415 -0.2863 -0.7142
14360TIP3    H164495   0.529   5.022  16.411  0.4743 -2.1947 -0.6614
14360TIP3    H264496   0.633   5.075  16.314  1.4317 -2.3975  0.2315
14361TIP3   OH264497   6.614   2.497   4.621 -0.1069 -0.6351  0.7121
14361TIP3    H164498   6.688   2.477   4.564 -0.3227  0.5979 -0.0524
14361TIP3    H264499   6.537   2.470   4.571 -0.2497 -0.4418  0.8265
14362TIP3   OH264500   6.057   0.731  13.031 -0.3416 -0.0720 -0.0718
14362TIP3    H164501   6.152   0.721  13.033 -0.1050  1.1107 -2.4921
14362TIP3    H264502   6.025   0.664  13.091  2.0224 -0.0069  1.3951
14363TIP3   OH264503   2.460   4.185  11.380 -0.4461 -0.2790 -1.1391
14363TIP3    H164504   2.464   4.131  11.302  3.4973  0.0937 -1.3870
14363TIP3    H264505   2.533   4.245  11.371  0.2354 -0.2625  2.8674
14364TIP3   OH264506   1.241   2.036   3.689  0.1201 -1.0561  0.6282
14364TIP3    H164507   1.269   2.040   3.598 -0.8619  1.0072  0.3633
14364TIP3    H264508   1.311   2.082   3.737 -0.8822  0.7216  0.4566
14365TIP3   OH264509   5.096   0.647  16.573  0.5952 -0.0146  0.1037
14365TIP3    H164510   5.062   0.597  16.647 -0.5282  0.4076 -0.1108
14365TIP3    H264511   5.031   0.635  16.503  0.8730  0.8217 -0.3154
14366TIP3   OH264512   6.700   5.609   3.161 -0.2936  0.4857 -0.8094
14366TIP3    H164513   6.685   5.650   3.246  0.9371 -3.2501  1.4601
14366TIP3    H264514   6.614   5.573   3.136 -0.6074  1.3948 -1.0732
14367TIP3   OH264515   1.712   4.116   2.608 -0.3551 -0.1562  0.1053
14367TIP3    H164516   1.697   4.063   2.530  1.0510  1.0719 -1.0723
14367TIP3    H264517   1.628   4.118   2.653 -1.1804 -0.9648 -1.3386
14368TIP3   OH264518   5.613   0.277   6.709  0.6848  0.0555 -0.0735
14368TIP3    H164519   5.653   0.197   6.675 -0.3191 -0.7355  0.5225
14368TIP3    H264520   5.685   0.327   6.747  1.2419 -0.8500  0.0771
14369TIP3   OH264521   2.988   4.467   1.032 -0.6929 -0.0103  0.4383
14369TIP3    H164522   3.078   4.486   1.005 -0.4206 -0.6929  0.8434
14369TIP3    H264523   2.997   4.407   1.105 -1.5071 -2.1652 -1.1170
14370TIP3   OH264524   4.611   0.703   0.803  0.1923  0.0180  0.6138
14370TIP3    H164525   4.588   0.617   0.769 -0.0464  0.2725  0.1144
14370TIP3    H264526   4.678   0.686   0.869  0.7782 -0.4799 -0.0953
14371TIP3   OH264527   0.204   1.439  17.390  0.0793  0.4337 -0.7121
14371TIP3    H164528   0.255   1.501  17.338  0.9380  0.4683  0.1355
14371TIP3    H264529   0.220   1.465  17.481 -3.0740  1.7315 -0.3819
14372TIP3   OH264530   3.995   1.579   5.378  0.1523  0.1794 -0.2168
14372TIP3    H164531   3.989   1.595   5.284  1.1218  0.7019 -0.2084
14372TIP3    H264532   3.911   1.609   5.413 -0.5845 -0.8755 -1.0060
14373TIP3   OH264533   5.926   3.763  15.939  0.2852  0.3440  0.1568
14373TIP3    H164534   5.841   3.726  15.963 -0.1370  0.1087 -1.5988
14373TIP3    H264535   5.989   3.713  15.991 -0.5421 -0.4441  0.4290
14374TIP3   OH264536   1.003   3.361  13.905 -0.1777 -0.8052 -0.6485
14374TIP3    H164537   1.011   3.268  13.927  0.4739 -1.7611 -4.2442
14374TIP3    H264538   1.088   3.383  13.866  0.0631  1.6600  1.0544
14375TIP3   OH264539   0.205   3.632   3.243 -0.5228  0.0172  0.3072
14375TIP3    H164540   0.143   3.659   3.311 -0.3557  0.1204  0.4195
14375TIP3    H264541   0.272   3.700   3.242 -1.9254  1.4516 -1.8604
14376TIP3   OH264542   5.885   0.298   4.630  0.3638 -0.2641  0.1291
14376TIP3    H164543   5.831   0.284   4.708  1.2780  0.8260  0.9879
14376TIP3    H264544   5.974   0.277   4.658  0.6388 -0.3585 -0.7841
14377TIP3   OH264545   3.912   1.145  16.928  0.4964 -0.5600 -0.0566
14377TIP3    H164546   3.966   1.147  16.849 -0.1147  2.1843 -0.5108
14377TIP3    H264547   3.852   1.072  16.915  1.4524 -1.1466 -1.3781
14378TIP3   OH264548   1.979   4.803  11.860 -0.1378  0.0390 -0.1973
14378TIP3    H164549   1.942   4.717  11.882  1.7065 -0.8812 -0.4080
14378TIP3    H264550   1.951   4.860  11.931 -1.8575 -0.5856 -0.3283
14379TIP3   OH264551   0.777   2.497   4.257  0.5069  0.1048 -0.1291
14379TIP3    H164552   0.814   2.459   4.178  0.8756  0.6296 -0.2116
14379TIP3    H264553   0.799   2.590   4.252 -1.5941  0.6292 -0.6424
14380TIP3   OH264554   4.745   3.295   2.010 -0.4601  0.0672 -0.1006
14380TIP3    H164555   4.693   3.254   2.080  0.1809 -1.0386 -0.2399
14380TIP3    H264556   4.681   3.338   1.954 -1.0769  0.0727  0.5924
14381TIP3   OH264557   6.331   1.377   2.344 -0.1820 -0.1919  0.5115
14381TIP3    H164558   6.314   1.458   2.296  1.5154  1.0089  1.8078
14381TIP3    H264559   6.268   1.378   2.416 -1.2153 -0.8646 -0.3459
14382TIP3   OH264560   0.018   6.614  15.290 -0.0123  0.1573  0.0365
14382TIP3    H164561   0.107   6.630  15.320  0.2530 -0.5745 -0.3235
14382TIP3    H264562   0.029   6.562  15.210 -0.7481  0.6127 -0.3695
14383TIP3   OH264563   5.144   5.656   4.202  0.2408  0.7236  0.1794
14383TIP3    H164564   5.185   5.583   4.248  0.5736  1.3220  0.8497
14383TIP3    H264565   5.051   5.633   4.199  0.3000  0.4075  0.6608
14384TIP3   OH264566   1.097   3.752  12.079 -0.1268  0.1129  0.3141
14384TIP3    H164567   1.010   3.772  12.046 -0.4317  1.4030  1.7759
14384TIP3    H264568   1.089   3.667  12.121 -1.0477  0.7924  1.5779
14385TIP3   OH264569   2.596   3.132  16.966 -0.4288 -0.6144  0.3553
14385TIP3    H164570   2.587   3.071  16.893 -1.7931 -0.9554  0.7724
14385TIP3    H264571   2.627   3.214  16.926 -2.1758 -0.4632 -0.7953
14386TIP3   OH264572   3.225   1.224  14.312  0.0318 -0.3416  0.3960
14386TIP3    H164573   3.266   1.172  14.242 -0.1558  0.2304 -0.1510
14386TIP3    H264574   3.187   1.299  14.266  2.3979  1.6026  1.4005
14387TIP3   OH264575   0.697   5.961  13.341  0.5543  0.3391 -0.0267
14387TIP3    H164576   0.695   5.992  13.431  0.6797  1.5944 -0.4407
14387TIP3    H264577   0.778   5.999  13.304  0.2340  0.2837 -0.8138
14388TIP3   OH264578   0.176   0.747   3.345  0.3376 -0.0413  0.1989
14388TIP3    H164579   0.165   0.840   3.328  0.2208  0.1260  1.1674
14388TIP3    H264580   0.088   0.714   3.362  0.3916 -0.3192 -0.0324
14389TIP3   OH264581   6.575   3.268  15.099 -0.1746 -0.1775  0.3493
14389TIP3    H164582   6.605   3.275  15.008 -0.1220  0.6104  0.4194
14389TIP3    H264583   6.605   3.349  15.140 -0.5615 -0.3408  0.9635
14390TIP3   OH264584   6.139   3.954   0.338 -0.1279  0.4734 -0.5104
14390TIP3    H164585   6.051   3.917   0.335 -0.2046  0.6930 -0.9220
14390TIP3    H264586   6.130   4.042   0.302  0.0249  0.9801  0.6416
14391TIP3   OH264587   2.769   2.344   4.102  0.0697  0.2810  0.1481
14391TIP3    H164588   2.732   2.413   4.046 -2.4855  0.1202  1.4802
14391TIP3    H264589   2.832   2.390   4.158  1.0057  0.8397 -1.3128
14392TIP3   OH264590   4.780   4.644   1.385 -0.0556  0.2851 -0.4247
14392TIP3    H164591   4.717   4.684   1.325  0.1774  2.7012  0.8298
14392TIP3    H264592   4.770   4.693   1.467  1.1475 -1.4838  0.8625
14393TIP3   OH264593   5.495   3.565  11.192 -0.2973  1.2215 -0.1424
14393TIP3    H164594   5.466   3.487  11.239  1.7011 -0.1336 -1.0406
14393TIP3    H264595   5.558   3.607  11.252 -0.4140  1.4484 -0.1780
14394TIP3   OH264596   4.419   3.815  16.565  0.3773 -0.0248  0.2489
14394TIP3    H164597   4.399   3.886  16.504  0.0078 -1.2208 -1.0761
14394TIP3    H264598   4.514   3.819  16.576  0.6220 -0.5016 -1.3708
14395TIP3   OH264599   6.200   5.510   4.720 -0.1218 -0.5353 -0.3520
14395TIP3    H164600   6.133   5.477   4.780 -0.5815 -0.2227 -0.6831
14395TIP3    H264601   6.220   5.598   4.753 -1.9184  0.5099 -1.8351
14396TIP3   OH264602   2.565   5.504  13.076  0.1889 -0.0757 -0.3533
14396TIP3    H164603   2.527   5.577  13.027 -1.0617 -1.7848 -2.1072
14396TIP3    H264604   2.496   5.479  13.138 -0.6499 -1.5993 -1.8239
14397TIP3   OH264605   5.549   5.473   4.376  0.1424 -0.6351 -0.1660
14397TIP3    H164606   5.581   5.554   4.336  0.8249 -0.8124  0.0134
14397TIP3    H264607   5.612   5.406   4.350 -1.0161 -1.3520 -1.2483
14398TIP3   OH264608   1.640   3.658   5.232  0.4436 -0.2995  0.0077
14398TIP3    H164609   1.665   3.602   5.306  0.2442  0.8729  0.9980
14398TIP3    H264610   1.548   3.637   5.216  0.4608 -0.4890  0.1507
14399TIP3   OH264611   5.804   4.378   6.499  0.0778  0.0591  0.6430
14399TIP3    H164612   5.790   4.471   6.516 -0.0757  0.1102  0.2362
14399TIP3    H264613   5.888   4.375   6.454  0.2798 -0.0397  1.0177
14400TIP3   OH264614   6.321   4.289   5.910 -0.2278 -0.7443 -0.3209
14400TIP3    H164615   6.417   4.292   5.902 -0.2676 -0.4043 -0.7341
14400TIP3    H264616   6.302   4.336   5.991 -0.0568 -0.6519 -0.3337
14401TIP3   OH264617   1.662   3.131   4.616 -0.5819 -0.4855  0.3762
14401TIP3    H164618   1.656   3.191   4.542  0.3903  0.4512  1.0241
14401TIP3    H264619   1.713   3.057   4.584 -0.0520 -0.0255  0.1465
14402TIP3   OH264620   2.637   6.771  10.867  0.4140  0.2502 -0.4488
14402TIP3    H164621   2.626   6.716  10.944  1.8690 -2.0531 -1.7541
14402TIP3    H264622   2.551   6.771  10.824 -0.4766  1.7787  1.2387
14403TIP3   OH264623   3.694   4.685   5.077  0.3161  0.5335  0.1933
14403TIP3    H164624   3.771   4.709   5.025  1.2850  0.8162  1.6909
14403TIP3    H264625   3.728   4.624   5.142 -1.2693 -1.4928 -0.7660
14404TIP3   OH264626   5.593   4.261   3.403 -0.4176 -0.0153 -0.2045
14404TIP3    H164627   5.526   4.198   3.377 -1.2513  0.6545  0.2802
14404TIP3    H264628   5.597   4.323   3.330  2.4064 -2.0947 -2.0247
14405TIP3   OH264629   2.472   0.398  11.539 -0.2721 -0.8534 -0.5023
14405TIP3    H164630   2.485   0.474  11.483  0.0870 -1.8241 -1.7823
14405TIP3    H264631   2.505   0.324  11.488  1.1048 -1.6599  1.4226
14406TIP3   OH264632   1.914   3.406  13.490  0.3441 -0.4326  0.0982
14406TIP3    H164633   1.827   3.445  13.485  0.6836  0.2782 -0.5901
14406TIP3    H264634   1.971   3.479  13.516  0.9685 -0.5068 -1.0112
14407TIP3   OH264635   3.416   6.122   3.942  0.6257 -0.3459  0.5931
14407TIP3    H164636   3.370   6.206   3.948  0.9435 -0.2488  2.0561
14407TIP3    H264637   3.457   6.123   3.856 -1.4007 -0.0820 -0.4288
14408TIP3   OH264638   0.173   1.577   0.692 -0.2241  0.0817 -0.4295
14408TIP3    H164639   0.204   1.607   0.777 -0.3081 -0.0109 -0.3667
14408TIP3    H264640   0.165   1.482   0.701  0.2376  0.0104 -0.6881
14409TIP3   OH264641   0.291   0.093   5.699  0.5101  0.1810 -0.1150
14409TIP3    H164642   0.213   0.100   5.644  0.3408 -0.0872  0.0821
14409TIP3    H264643   0.364   0.113   5.641  0.3873 -0.7088 -0.6038
14410TIP3   OH264644   0.874   1.876  16.596 -0.5044  0.4656  0.5836
14410TIP3    H164645   0.955   1.831  16.620 -1.0018 -0.2514  0.9561
14410TIP3    H264646   0.893   1.969  16.612  0.0354  0.2504  1.2708
14411TIP3   OH264647   1.170   6.539   1.616  0.0233 -0.4417 -0.0401
14411TIP3    H164648   1.214   6.535   1.701  0.5178  0.3335 -0.2516
14411TIP3    H264649   1.209   6.467   1.565 -0.6907 -1.2737  0.5740
14412TIP3   OH264650   2.233   0.877  16.421 -0.1778  0.0589 -0.3551
14412TIP3    H164651   2.306   0.848  16.366  0.6803  0.5153  0.5065
14412TIP3    H264652   2.275   0.917  16.497 -1.3206  1.8049 -0.5868
14413TIP3   OH264653   4.885   3.240  13.648 -0.1877 -0.5028  0.1600
14413TIP3    H164654   4.849   3.326  13.669  0.5569  0.0658 -0.7921
14413TIP3    H264655   4.814   3.194  13.604 -0.1478  0.1597 -0.6137
14414TIP3   OH264656   3.112   4.475   5.006  0.2962  0.2702  0.4390
14414TIP3    H164657   3.080   4.533   5.074 -0.4676  0.5455 -0.1462
14414TIP3    H264658   3.173   4.529   4.955 -0.4215  0.5762 -0.1115
14415TIP3   OH264659   5.080   5.158  16.734  0.1039  0.1288 -0.8534
14415TIP3    H164660   5.124   5.237  16.765 -0.2116  0.3875 -1.0557
14415TIP3    H264661   5.151   5.103  16.702  0.2306  0.8850 -1.9435
14416TIP3   OH264662   3.811   1.163   3.440  0.1777 -0.2484 -0.0300
14416TIP3    H164663   3.890   1.212   3.463 -0.3866  1.2129 -1.0584
14416TIP3    H264664   3.793   1.109   3.517  1.4806  0.3133  0.6941
14417TIP3   OH264665   2.134   3.405   1.035 -0.1008 -0.1770 -0.0818
14417TIP3    H164666   2.113   3.429   0.944 -0.3108  1.9956  0.4748
14417TIP3    H264667   2.050   3.384   1.075  0.1025 -2.2038 -0.6187
14418TIP3   OH264668   6.210   1.453   2.564 -0.1522  0.3349 -0.6080
14418TIP3    H164669   6.121   1.420   2.578 -0.5217  0.8204 -1.6989
14418TIP3    H264670   6.208   1.542   2.598  1.2355 -1.0384  3.6666
14419TIP3   OH264671   5.310   5.382  13.990  0.1540  0.3062  0.5149
14419TIP3    H164672   5.293   5.476  13.987  1.9531  0.7142  1.4847
14419TIP3    H264673   5.341   5.366  14.079  2.2340 -0.7235 -0.3075
14420TIP3   OH264674   1.528   2.172   1.360 -0.2740  0.5555  0.3967
14420TIP3    H164675   1.601   2.156   1.420  0.1568  1.2564  0.0702
14420TIP3    H264676   1.507   2.085   1.324 -0.0575  0.2465  1.0102
14421TIP3   OH264677   0.253   5.738   0.274  0.2236 -0.2972 -0.1982
14421TIP3    H164678   0.315   5.750   0.346 -2.1963  2.9266  1.6428
14421TIP3    H264679   0.295   5.776   0.198  1.2747 -0.0298  0.4956
14422TIP3   OH264680   0.650   4.512  15.734 -0.0789  0.0759  0.5145
14422TIP3    H164681   0.745   4.506  15.739  0.0181  1.7210  1.5606
14422TIP3    H264682   0.634   4.573  15.662 -0.2032  1.5035  1.6875
14423TIP3   OH264683   4.545   3.934   4.961 -0.4062  0.0260 -0.4141
14423TIP3    H164684   4.640   3.939   4.948 -0.4502  0.8606 -0.4465
14423TIP3    H264685   4.508   3.981   4.887 -0.7752  1.4352  0.6211
14424TIP3   OH264686   3.999   5.004  14.678  0.0748 -0.0878 -0.5994
14424TIP3    H164687   3.988   4.931  14.739 -0.5865 -0.5865 -1.2988
14424TIP3    H264688   3.910   5.033  14.659  0.3570  1.5224  0.3825
14425TIP3   OH264689   4.152   1.435   3.302  0.4739 -0.2273 -0.3038
14425TIP3    H164690   4.195   1.454   3.385  0.6602 -0.8156 -0.2587
14425TIP3    H264691   4.059   1.452   3.318  0.6384  0.6988 -0.2961
14426TIP3   OH264692   3.440   5.576  15.964  0.5741  0.6719  0.0615
14426TIP3    H164693   3.370   5.535  15.912 -0.0541  1.0275  0.6055
14426TIP3    H264694   3.408   5.664  15.981  0.4595  0.3648  1.5965
14427TIP3   OH264695   5.646   4.596   2.448 -0.3018 -0.3095  0.0634
14427TIP3    H164696   5.665   4.530   2.381 -0.0958 -0.5807  0.3874
14427TIP3    H264697   5.732   4.632   2.471 -0.4240  0.1873 -0.2219
14428TIP3   OH264698   3.282   3.829  16.351  1.1972  0.3405  0.4109
14428TIP3    H164699   3.213   3.818  16.286  1.5792 -1.9487  0.3128
14428TIP3    H264700   3.248   3.895  16.412 -0.6882 -0.0900 -0.1264
14429TIP3   OH264701   5.268   2.486   0.136  0.1527  0.1430  0.2545
14429TIP3    H164702   5.214   2.531   0.201  1.7542  1.4215  0.7484
14429TIP3    H264703   5.319   2.422   0.186  2.0218  1.7149  0.4650
14430TIP3   OH264704   1.767   4.891   4.479 -0.3260  0.0585  0.0414
14430TIP3    H164705   1.773   4.798   4.498 -2.2518  0.0185  0.5824
14430TIP3    H264706   1.802   4.934   4.557 -0.0107 -0.1844  0.0389
14431TIP3   OH264707   0.017   4.426   4.368  0.0094 -0.4005  0.0843
14431TIP3    H164708  -0.041   4.499   4.391  0.6211 -0.0293  0.4540
14431TIP3    H264709   0.099   4.445   4.413 -0.2189 -1.9618  1.2677
14432TIP3   OH264710   5.437   4.693   0.286  0.2633 -0.7510  0.7154
14432TIP3    H164711   5.388   4.647   0.219 -0.4984 -0.7493  1.2619
14432TIP3    H264712   5.525   4.654   0.283  0.6541  0.1876 -1.1883
14433TIP3   OH264713   0.095   5.493  12.543 -0.6693 -0.2342  0.3557
14433TIP3    H164714   0.064   5.426  12.603 -1.2832 -1.0631 -0.8304
14433TIP3    H264715   0.016   5.541  12.517 -0.6342 -0.7437 -0.7730
14434TIP3   OH264716   3.942   3.410   2.672  0.4345  0.5437 -0.5770
14434TIP3    H164717   3.963   3.352   2.598 -0.9695  1.0043 -1.3819
14434TIP3    H264718   3.865   3.459   2.642  0.6222  1.6691  0.7129
14435TIP3   OH264719   3.420   0.810  17.360  0.2849  0.3596 -0.0437
14435TIP3    H164720   3.425   0.716  17.377  0.4722  0.1366 -1.2492
14435TIP3    H264721   3.336   0.836  17.397 -0.0330 -0.4012 -0.1953
14436TIP3   OH264722   4.763   6.573   3.150  0.0847  0.0309  0.8942
14436TIP3    H164723   4.768   6.602   3.241  2.2226 -0.3348  0.9448
14436TIP3    H264724   4.777   6.479   3.153  1.5535  0.1933  0.1249
14437TIP3   OH264725   1.161   5.075  11.182  0.2349  0.2796  0.1108
14437TIP3    H164726   1.254   5.074  11.157 -0.1195  0.6916 -1.2702
14437TIP3    H264727   1.143   4.986  11.211  0.8928  0.0193 -0.2649
14438TIP3   OH264728   6.430   3.566   5.686  0.2057  0.0869  0.0667
14438TIP3    H164729   6.351   3.574   5.632  0.5688 -0.2783 -0.5248
14438TIP3    H264730   6.441   3.472   5.699  0.9244  0.0956 -0.4335
14439TIP3   OH264731   3.302   5.326  14.293  0.2669 -0.2732 -0.1489
14439TIP3    H164732   3.391   5.290  14.292  0.1490 -0.6034  0.5832
14439TIP3    H264733   3.281   5.335  14.386 -0.5026 -0.2746 -0.3167
14440TIP3   OH264734   0.498   2.868   0.214 -0.1655  0.2917  0.4915
14440TIP3    H164735   0.455   2.861   0.300 -1.3344  1.7540  0.0653
14440TIP3    H264736   0.483   2.959   0.187  1.2402  0.1965 -0.7328
14441TIP3   OH264737   2.907   2.243  12.802 -0.1360  0.2673 -0.0195
14441TIP3    H164738   2.901   2.338  12.806  0.2174  0.2471  1.7455
14441TIP3    H264739   2.973   2.225  12.736 -0.9727  1.1951 -1.1491
14442TIP3   OH264740   0.873   4.810  16.307 -0.4814  0.2815  0.3606
14442TIP3    H164741   0.802   4.760  16.267 -0.8704  0.6484  0.5875
14442TIP3    H264742   0.883   4.771  16.394 -0.9755  0.7735  0.6448
14443TIP3   OH264743   3.089   4.313   6.521  0.1348  0.1876  0.3739
14443TIP3    H164744   3.073   4.221   6.498  1.6540  0.1691 -0.7882
14443TIP3    H264745   3.034   4.362   6.460  0.0274  0.0549  0.3631
14444TIP3   OH264746   1.222   3.038  15.728  0.2385 -0.1491  0.0571
14444TIP3    H164747   1.256   3.041  15.638  0.0078  0.3092 -0.0205
14444TIP3    H264748   1.198   2.947  15.742  2.0470 -0.6208  0.3129
14445TIP3   OH264749   2.862   2.114  11.506  0.1985  0.2870 -0.2873
14445TIP3    H164750   2.818   2.102  11.422  1.0336  1.0111 -0.8532
14445TIP3    H264751   2.940   2.058  11.501 -0.7298 -1.1637  0.7938
14446TIP3   OH264752   5.440   1.598   1.917 -0.2053 -0.6704  0.1489
14446TIP3    H164753   5.374   1.598   1.986 -0.2831  0.4270  0.0905
14446TIP3    H264754   5.513   1.648   1.953  0.5847 -1.8117  0.1858
14447TIP3   OH264755   1.319   0.031   5.724  0.1543  0.1734 -0.7693
14447TIP3    H164756   1.290   0.048   5.814  1.7648  0.1279 -0.2066
14447TIP3    H264757   1.242   0.049   5.670 -0.8560  0.1536  0.6218
14448TIP3   OH264758   4.339   2.802  16.015  0.8305  0.0300 -0.4034
14448TIP3    H164759   4.401   2.850  16.070  0.6838  0.9089 -0.9782
14448TIP3    H264760   4.394   2.746  15.960  1.0486 -0.0003 -0.1538
14449TIP3   OH264761   5.717   4.240   1.464  0.3626 -0.0956  0.3480
14449TIP3    H164762   5.733   4.224   1.371  2.9357 -0.9446  0.8739
14449TIP3    H264763   5.752   4.163   1.509 -0.9897  0.2107  2.0585
14450TIP3   OH264764   3.854   5.385  12.624  0.0911  0.1964 -0.0125
14450TIP3    H164765   3.799   5.424  12.557  0.2517  0.0048 -0.2558
14450TIP3    H264766   3.812   5.409  12.707  0.1510  0.8233 -0.1631
14451TIP3   OH264767   3.569   5.783   0.402 -0.2563  0.2479 -0.0862
14451TIP3    H164768   3.613   5.700   0.419 -0.1788  0.6296  1.6781
14451TIP3    H264769   3.526   5.769   0.317  1.9916 -0.6262 -1.1846
14452TIP3   OH264770   6.584   6.705   2.791  0.6864 -0.1218  0.0693
14452TIP3    H164771   6.550   6.756   2.718 -1.4736  0.3256  1.2982
14452TIP3    H264772   6.679   6.712   2.783  0.4900  1.2507 -1.7455
14453TIP3   OH264773   5.253   4.090   4.158 -0.4495 -0.0050  0.6622
14453TIP3    H164774   5.341   4.079   4.194  0.9245  1.7627 -1.8231
14453TIP3    H264775   5.251   4.032   4.082 -1.0569  0.6647  0.1457
14454TIP3   OH264776   2.508   1.970  12.600 -0.2531  0.3597 -0.3647
14454TIP3    H164777   2.420   1.961  12.638  0.7637 -0.1915  2.0690
14454TIP3    H264778   2.559   1.899  12.639  1.0543 -0.0345 -2.5985
14455TIP3   OH264779   6.416   0.452   5.806 -0.0588 -0.0008  0.5045
14455TIP3    H164780   6.350   0.512   5.840  0.2834  1.7380 -1.7119
14455TIP3    H264781   6.367   0.392   5.750  0.2242  1.7254 -1.7062
14456TIP3   OH264782   5.808   4.025  15.922  0.1352  0.8188 -0.0889
14456TIP3    H164783   5.855   3.942  15.929 -1.4357 -0.2935 -1.9362
14456TIP3    H264784   5.871   4.084  15.879  1.0508  0.4410  0.6945
14457TIP3   OH264785   5.729   3.079   3.702  0.0412  0.0061  0.2945
14457TIP3    H164786   5.648   3.123   3.729  0.2710  0.6805 -0.0979
14457TIP3    H264787   5.714   2.987   3.724  0.6077  0.6114  3.6482
14458TIP3   OH264788   1.046   6.307   4.431  0.2037  0.6842 -0.6911
14458TIP3    H164789   1.016   6.218   4.412  0.5246  0.3609  0.2514
14458TIP3    H264790   1.119   6.295   4.491  0.7401  1.5603 -1.1364
14459TIP3   OH264791   2.112   5.011  17.185 -0.0253 -0.3812  0.2768
14459TIP3    H164792   2.147   5.053  17.264  0.2376 -1.3887  0.7035
14459TIP3    H264793   2.098   4.920  17.210  0.3843 -0.7902 -0.9424
14460TIP3   OH264794   2.585   2.372   2.754 -0.4335  0.2940  0.2479
14460TIP3    H164795   2.609   2.465   2.755  1.2124 -0.0950 -0.2810
14460TIP3    H264796   2.660   2.327   2.793 -1.3430 -0.8071  0.7934
14461TIP3   OH264797   5.964   2.684   0.268  0.5941  0.5065  0.3230
14461TIP3    H164798   5.882   2.657   0.227  0.5938  1.3287 -0.2328
14461TIP3    H264799   5.967   2.779   0.257  2.5711  0.3091 -1.5113
14462TIP3   OH264800   1.071   6.197   2.757  0.2562 -0.3427 -0.2487
14462TIP3    H164801   1.163   6.222   2.766  0.2394  0.7963 -2.5028
14462TIP3    H264802   1.031   6.271   2.711 -1.5436 -1.3098 -0.3127
14463TIP3   OH264803   5.204   0.128   3.662  0.9981  0.3950 -0.3771
14463TIP3    H164804   5.183   0.189   3.732 -0.7878  0.2698 -0.7534
14463TIP3    H264805   5.203   0.181   3.583  0.9362  0.1625 -0.5337
14464TIP3   OH264806   3.995   0.304   2.562 -0.3550 -0.0894 -0.0249
14464TIP3    H164807   3.980   0.387   2.607 -0.8179 -0.1662 -0.0301
14464TIP3    H264808   4.058   0.326   2.493  0.8464 -0.0989  1.0284
14465TIP3   OH264809   2.674   6.443  15.808  0.3508  0.2893 -0.1148
14465TIP3    H164810   2.743   6.378  15.821  0.1274 -0.6229 -2.8829
14465TIP3    H264811   2.715   6.513  15.757 -0.7863 -0.5010 -2.2483
14466TIP3   OH264812   3.652   5.823   2.677  0.1614  0.1560 -0.0832
14466TIP3    H164813   3.595   5.839   2.752 -0.3668  0.8997 -0.6304
14466TIP3    H264814   3.697   5.741   2.698  0.7083  0.8041  1.4635
14467TIP3   OH264815   5.218   4.210  13.281 -0.1609  1.0221  0.1069
14467TIP3    H164816   5.131   4.172  13.276  0.3375 -0.0591 -0.6370
14467TIP3    H264817   5.258   4.168  13.357 -0.4127  1.8397  0.7154
14468TIP3   OH264818   1.073   2.606   1.961 -0.7629  0.4063  0.0047
14468TIP3    H164819   1.125   2.584   1.884 -1.2839 -1.5877  0.1593
14468TIP3    H264820   1.029   2.688   1.937  0.8315  1.0495 -0.9034
14469TIP3   OH264821   5.471   4.199  13.424  0.4220 -0.2052  0.1533
14469TIP3    H164822   5.499   4.118  13.468  0.2938  0.4597  1.5002
14469TIP3    H264823   5.551   4.250  13.415  0.1970  0.3320  1.0844
14470TIP3   OH264824   5.387   5.887   3.905 -0.0044  0.0123 -0.0866
14470TIP3    H164825   5.339   5.844   3.834  0.7917  0.3009 -0.8241
14470TIP3    H264826   5.325   5.950   3.941 -0.0053  0.8477 -1.4471
14471TIP3   OH264827   0.004   4.487  11.972 -0.0245 -0.5514 -0.3982
14471TIP3    H164828   0.035   4.476  12.062 -2.7105 -0.1491  0.6434
14471TIP3    H264829   0.017   4.581  11.954  1.1532 -0.7546 -0.7452
14472TIP3   OH264830   5.094   2.003   3.722  0.1456  0.7488 -0.7595
14472TIP3    H164831   5.014   2.051   3.743  0.8155  2.5910 -2.1759
14472TIP3    H264832   5.064   1.932   3.665 -0.4638  1.6876 -1.6524
14473TIP3   OH264833   1.940   0.667  14.639 -0.1958  0.0643  0.1665
14473TIP3    H164834   1.994   0.657  14.717  0.9649 -0.6537 -0.6874
14473TIP3    H264835   1.896   0.751  14.650  0.0660  0.0410  1.5077
14474TIP3   OH264836   0.174   1.796   5.785  0.1969  0.4213 -0.0949
14474TIP3    H164837   0.119   1.875   5.790  0.5631  0.6960 -0.3321
14474TIP3    H264838   0.218   1.803   5.701 -0.3094 -0.4131 -0.4330
14475TIP3   OH264839   4.023   2.050  15.922 -0.4221 -0.1671  0.4373
14475TIP3    H164840   4.071   2.122  15.881 -1.8835  0.8845  0.5285
14475TIP3    H264841   4.007   2.080  16.011 -0.6174 -0.8278  0.6267
14476TIP3   OH264842   3.360   4.648   0.269 -0.0936 -0.0356  0.0109
14476TIP3    H164843   3.405   4.724   0.305  1.4001 -0.6815 -0.3933
14476TIP3    H264844   3.377   4.578   0.333  0.8130 -0.6707 -0.8910
14477TIP3   OH264845   6.390   0.302   2.360  0.1138  0.4014  0.3701
14477TIP3    H164846   6.392   0.276   2.267  0.9840 -0.9459  0.7275
14477TIP3    H264847   6.466   0.359   2.370 -0.1958  0.8526  0.1817
14478TIP3   OH264848   5.649   5.762  11.887  0.0094  0.7249  0.2199
14478TIP3    H164849   5.570   5.708  11.892  0.4453  0.0445 -0.2518
14478TIP3    H264850   5.705   5.718  11.824  0.8997  1.0406  0.7769
14479TIP3   OH264851   3.236   3.239  13.708 -0.1421  0.2446  0.4242
14479TIP3    H164852   3.205   3.325  13.679 -0.7631  0.2702  1.1396
14479TIP3    H264853   3.161   3.200  13.753  0.2113 -0.5766  0.3283
14480TIP3   OH264854   1.938   0.339   3.949 -0.1670  0.3346 -0.2527
14480TIP3    H164855   1.856   0.339   3.898  1.5652 -0.1868 -3.2906
14480TIP3    H264856   1.973   0.427   3.937 -0.3513  0.6257  1.2332
14481TIP3   OH264857   5.595   4.086   0.237  0.3809 -0.2236  1.2024
14481TIP3    H164858   5.635   4.103   0.322 -0.3936 -0.4640  1.6257
14481TIP3    H264859   5.556   3.999   0.246  0.1589 -0.1847  0.6529
14482TIP3   OH264860   4.505   1.414   5.399  0.0079  0.4693 -0.0345
14482TIP3    H164861   4.438   1.481   5.406 -0.1241  0.5695 -1.7549
14482TIP3    H264862   4.555   1.420   5.480 -2.2841  0.1225  1.4647
14483TIP3   OH264863   1.244   2.545   0.474 -0.0762 -0.4042  0.4569
14483TIP3    H164864   1.289   2.552   0.558  0.6091  0.1531  0.0509
14483TIP3    H264865   1.168   2.489   0.492 -0.8454  0.9973  1.8210
14484TIP3   OH264866   1.538   0.975   2.760  0.0849 -0.4699  0.3366
14484TIP3    H164867   1.545   0.894   2.812 -0.8493 -0.4712  0.4876
14484TIP3    H264868   1.607   0.968   2.695  2.3184  0.2156  2.4731
14485TIP3   OH264869   4.443   3.207  16.947  0.3047  0.3947  0.0828
14485TIP3    H164870   4.456   3.151  16.870 -1.3639  1.7006 -1.2434
14485TIP3    H264871   4.457   3.296  16.915 -1.2951  1.0360  1.0453
14486TIP3   OH264872   0.689   3.594   5.113  0.0056 -0.0093 -0.9203
14486TIP3    H164873   0.647   3.509   5.101 -0.4882  0.2351 -0.9596
14486TIP3    H264874   0.666   3.619   5.203 -0.5441  0.4509 -1.1809
14487TIP3   OH264875   5.544   4.518   1.435  0.0173  0.3824  0.7042
14487TIP3    H164876   5.496   4.469   1.502  1.6852  0.3184  1.8968
14487TIP3    H264877   5.581   4.593   1.483 -0.9291  1.8195 -0.7055
14488TIP3   OH264878   6.043   0.979   1.355  0.3562  0.7139 -0.1500
14488TIP3    H164879   6.117   1.025   1.317 -0.5120  1.8474 -0.5307
14488TIP3    H264880   6.078   0.894   1.383  1.3862  0.5297 -1.9160
14489TIP3   OH264881   4.721   2.579  16.869  0.2513 -0.1163  0.2917
14489TIP3    H164882   4.804   2.624  16.853 -0.4044  0.5763 -1.3980
14489TIP3    H264883   4.659   2.649  16.888 -0.3786 -0.4241 -0.5511
14490TIP3   OH264884   0.521   3.689   6.082  0.3484  0.0646 -0.0452
14490TIP3    H164885   0.488   3.636   6.154 -2.5888 -0.0359 -1.3303
14490TIP3    H264886   0.552   3.625   6.018 -0.2276 -0.0118 -0.2580
14491TIP3   OH264887   4.049   5.028   0.642 -0.7682  0.1195  0.0652
14491TIP3    H164888   4.138   5.060   0.654 -0.2471 -0.3694 -2.0359
14491TIP3    H264889   4.034   4.969   0.715  0.4567  0.5647  0.7016
14492TIP3   OH264890   2.345   1.445  14.053 -0.6573  0.1342 -0.4341
14492TIP3    H164891   2.399   1.437  13.973  1.4944  1.1646  0.8314
14492TIP3    H264892   2.379   1.377  14.111 -1.2772  0.2849  0.1194
14493TIP3   OH264893   4.356   3.464  14.479  0.4552 -0.0959  0.0801
14493TIP3    H164894   4.357   3.457  14.384 -1.3113  0.4365 -0.0104
14493TIP3    H264895   4.343   3.375  14.510  3.2738 -0.6390 -0.0335
14494TIP3   OH264896   4.642   5.665   4.742  0.4055  0.0790  0.3043
14494TIP3    H164897   4.709   5.602   4.717 -0.7140 -1.4136  0.9178
14494TIP3    H264898   4.677   5.708   4.820  1.8388  1.3773 -0.9871
14495TIP3   OH264899   3.081   1.786   1.695 -0.1080  0.1551 -0.5017
14495TIP3    H164900   3.134   1.706   1.697 -1.9003 -1.0930 -0.4190
14495TIP3    H264901   3.145   1.856   1.684  1.6428 -1.1578  0.6213
14496TIP3   OH264902   2.474   5.813  16.290  0.2020 -0.6574  0.0887
14496TIP3    H164903   2.428   5.863  16.357 -0.7022  0.4514 -1.2832
14496TIP3    H264904   2.509   5.736  16.336  2.3614  1.5560  2.4790
14497TIP3   OH264905   6.411   3.150   2.248 -0.2548 -0.7826  0.2242
14497TIP3    H164906   6.366   3.090   2.307  0.2721  0.1716  1.6444
14497TIP3    H264907   6.493   3.170   2.292 -0.3167  0.7997 -0.3152
14498TIP3   OH264908   3.884   4.815   2.490 -0.0416  0.5079  0.5225
14498TIP3    H164909   3.827   4.750   2.530  0.2201 -0.6182 -0.8604
14498TIP3    H264910   3.827   4.865   2.432  0.0114  0.6269  0.5727
14499TIP3   OH264911   5.843   1.471  16.026  0.5431 -0.1277  0.0674
14499TIP3    H164912   5.891   1.461  16.108 -1.5237  1.2666  1.5514
14499TIP3    H264913   5.806   1.384  16.010 -0.2344 -0.0730  1.4379
14500TIP3   OH264914   4.346   4.348  12.004 -0.3305  0.3336 -0.7903
14500TIP3    H164915   4.254   4.336  11.982 -0.7104  2.0008 -0.2565
14500TIP3    H264916   4.379   4.408  11.937 -0.4976  2.2993  0.7811
14501TIP3   OH264917   5.754   0.437  16.881 -0.1621 -0.1338  0.9057
14501TIP3    H164918   5.755   0.516  16.935  0.9686 -1.0558  2.3082
14501TIP3    H264919   5.688   0.454  16.814  0.0559  1.9837  1.1772
14502TIP3   OH264920   4.603   0.234   3.238  0.1466 -0.3373  0.0203
14502TIP3    H164921   4.527   0.176   3.244 -0.0309  0.0032  1.4030
14502TIP3    H264922   4.652   0.218   3.318  0.7659  0.4904 -0.1784
14503TIP3   OH264923   4.758   4.329  12.556 -0.0451 -0.5359  0.0935
14503TIP3    H164924   4.745   4.252  12.501  0.8483 -0.3436 -0.4096
14503TIP3    H264925   4.675   4.340  12.602 -0.9296 -0.5420 -1.4161
14504TIP3   OH264926   2.392   2.942   5.844  0.3417 -0.2282 -0.1756
14504TIP3    H164927   2.299   2.955   5.860  0.0759  0.0134 -1.7360
14504TIP3    H264928   2.432   2.945   5.931 -0.8577  1.6706  0.3797
14505TIP3   OH264929   1.829   6.744   0.593  0.0578 -0.0958  0.2918
14505TIP3    H164930   1.853   6.671   0.650  0.1057  0.7347  1.3763
14505TIP3    H264931   1.905   6.801   0.594 -0.0560  0.0785 -0.3819
14506TIP3   OH264932   1.334   1.179   4.174 -0.8819  0.0247  0.0889
14506TIP3    H164933   1.366   1.100   4.131 -1.9168 -0.4210  0.1144
14506TIP3    H264934   1.401   1.245   4.155  1.2287 -1.4018  2.0202
14507TIP3   OH264935   0.808   5.015   2.568  0.2822  0.0136  0.7900
14507TIP3    H164936   0.770   4.950   2.627  1.6895 -0.5712  1.0959
14507TIP3    H264937   0.814   4.971   2.484  0.4191  0.0568  0.7771
14508TIP3   OH264938   3.874   6.517  11.563 -0.2617  0.4900 -0.0464
14508TIP3    H164939   3.932   6.587  11.595 -0.2597  0.3521  0.2561
14508TIP3    H264940   3.858   6.540  11.471  2.0976 -0.6489 -0.8334
14509TIP3   OH264941   3.812   0.910   5.481 -0.6780 -0.2762  0.1508
14509TIP3    H164942   3.896   0.910   5.529 -1.5075  1.3420  1.7468
14509TIP3    H264943   3.831   0.956   5.399  0.1363 -0.4672  0.2243
14510TIP3   OH264944   3.968   5.043   6.339 -0.0680 -0.1052  0.4977
14510TIP3    H164945   3.992   5.030   6.248  0.0648  3.0349 -0.0406
14510TIP3    H264946   4.040   5.004   6.389  0.3284 -1.0182 -0.7389
14511TIP3   OH264947   0.778   5.712  13.202  0.4738 -0.5840  0.2856
14511TIP3    H164948   0.720   5.768  13.254  0.2764 -0.7360  0.2299
14511TIP3    H264949   0.724   5.636  13.180  0.7407 -0.7979  0.3633
14512TIP3   OH264950   3.024   4.338   2.708 -0.1804 -0.4178  0.3734
14512TIP3    H164951   3.072   4.283   2.647 -0.7537 -2.4178  1.6425
14512TIP3    H264952   3.084   4.351   2.781 -0.2234  0.2689  0.2930
14513TIP3   OH264953   4.735   6.774  12.976 -0.3238  0.2290 -0.1645
14513TIP3    H164954   4.673   6.764  12.904  1.0226 -1.9092 -1.1089
14513TIP3    H264955   4.683   6.758  13.055 -1.5630  1.4805 -0.6805
14514TIP3   OH264956   1.701   6.133  16.638  0.0794 -0.5499 -0.3112
14514TIP3    H164957   1.649   6.054  16.651 -0.0552 -0.2319  1.2446
14514TIP3    H264958   1.710   6.140  16.543  0.6954 -2.8039 -0.4713
14515TIP3   OH264959   0.509   0.683   2.670  0.0811 -0.5853 -0.0639
14515TIP3    H164960   0.484   0.682   2.578 -1.6709 -1.2367  0.3805
14515TIP3    H264961   0.426   0.690   2.718  0.9986  0.5615  1.4554
14516TIP3   OH264962   6.289   4.518   0.949 -0.3801  0.0641  0.1757
14516TIP3    H164963   6.226   4.567   1.001 -0.0555  0.0038  0.6322
14516TIP3    H264964   6.281   4.428   0.980 -0.4276 -0.0353 -0.1206
14517TIP3   OH264965   0.265   6.198   3.858 -0.0947  0.1762 -0.1396
14517TIP3    H164966   0.193   6.185   3.920  0.7083  2.1143  1.3025
14517TIP3    H264967   0.227   6.175   3.773 -1.6454 -1.2476  0.8682
14518TIP3   OH264968   4.839   5.374  14.444  0.4122 -0.3937  0.3146
14518TIP3    H164969   4.799   5.328  14.518  1.5848  0.7178  1.6944
14518TIP3    H264970   4.897   5.308  14.405 -2.4460 -1.9766 -1.6211
14519TIP3   OH264971   4.187   4.180   2.791  0.1386 -0.2540  0.3245
14519TIP3    H164972   4.179   4.201   2.884  0.2302 -0.6953  0.4328
14519TIP3    H264973   4.151   4.091   2.783  0.7256 -0.4683  0.0422
14520TIP3   OH264974   6.534   4.704  11.797 -0.6535 -0.3352  0.3716
14520TIP3    H164975   6.459   4.653  11.769  0.1199 -0.4570 -1.6534
14520TIP3    H264976   6.499   4.792  11.813 -1.0779 -0.0295 -1.8531
14521TIP3   OH264977   0.834   2.725  14.365  0.4380  0.0103 -0.3409
14521TIP3    H164978   0.801   2.692  14.282 -0.7926 -0.6808  0.3860
14521TIP3    H264979   0.757   2.765  14.407  0.6446 -0.9985  1.0876
14522TIP3   OH264980   6.566   6.287  12.264 -0.2192  0.2166 -0.3729
14522TIP3    H164981   6.527   6.226  12.326  0.8495 -1.2437 -1.0902
14522TIP3    H264982   6.491   6.333  12.225 -0.9069  1.4972  2.2286
14523TIP3   OH264983   3.276   4.997   5.552 -0.8545  0.9111 -0.4018
14523TIP3    H164984   3.222   5.012   5.474  0.3422  0.5622 -1.3353
14523TIP3    H264985   3.249   4.910   5.584 -0.4341  0.4616 -1.2322
14524TIP3   OH264986   2.130   6.338   0.429  0.2674  0.0154  0.5631
14524TIP3    H164987   2.218   6.301   0.442  0.8588  1.5555  1.2618
14524TIP3    H264988   2.123   6.351   0.335  0.7831 -0.1369  0.4985
14525TIP3   OH264989   1.299   3.364  14.126  0.0206  0.1307 -0.3443
14525TIP3    H164990   1.274   3.444  14.081  2.2051  1.0555 -0.0285
14525TIP3    H264991   1.366   3.324  14.070  0.1822 -0.5696  0.3210
14526TIP3   OH264992   4.198   3.817   3.592  0.3644  0.5566 -0.2127
14526TIP3    H164993   4.246   3.741   3.558  0.5217  0.3401  0.4867
14526TIP3    H264994   4.119   3.780   3.630  0.7748  0.6629  0.7633
14527TIP3   OH264995   5.317   4.191   0.264  0.4225  0.3830  0.8932
14527TIP3    H164996   5.316   4.281   0.231  3.1166 -0.6159 -2.5446
14527TIP3    H264997   5.408   4.162   0.251 -0.4650 -3.0002  1.3606
14528TIP3   OH264998   1.716   4.434  16.459 -0.3528 -0.0962  0.7458
14528TIP3    H164999   1.647   4.421  16.525  2.0310 -1.7798  3.0939
14528TIP3    H265000   1.682   4.390  16.381 -2.0643 -0.6518  1.7306
14529TIP3   OH265001   2.146   5.109  13.731 -0.4914  0.0510 -0.2756
14529TIP3    H165002   2.229   5.075  13.697 -0.5259 -1.1061  0.7247
14529TIP3    H265003   2.080   5.046  13.700 -0.9233  0.6372 -0.5675
14530TIP3   OH265004   1.372   5.099   4.248  0.1157  0.4763  0.5418
14530TIP3    H165005   1.385   5.105   4.343 -0.6846  0.4881  0.6645
14530TIP3    H265006   1.453   5.061   4.215  0.1320 -0.2085  1.3203
14531TIP3   OH265007   4.772   0.161   6.470 -0.2483 -0.1747  0.2737
14531TIP3    H165008   4.697   0.104   6.453 -1.6825  0.6397  3.2043
14531TIP3    H265009   4.826   0.111   6.532  1.1153 -0.3105 -0.9854
14532TIP3   OH265010   0.956   5.321   1.085 -1.0739 -0.8187  0.5437
14532TIP3    H165011   0.880   5.348   1.033 -1.1424  2.4781  2.0589
14532TIP3    H265012   0.933   5.346   1.175  1.0596 -1.5013  1.3458
14533TIP3   OH265013   6.351   4.301  10.846 -0.0720 -0.9517 -0.2115
14533TIP3    H165014   6.399   4.354  10.783 -0.1435 -0.0683  0.4532
14533TIP3    H265015   6.274   4.354  10.869  0.3551 -0.8882  1.1959
14534TIP3   OH265016   0.726   4.899  16.905  0.5402 -0.8430 -0.1844
14534TIP3    H165017   0.638   4.914  16.941  0.1038 -2.6813 -0.3366
14534TIP3    H265018   0.728   4.949  16.824  0.1567  0.3373  0.5162
14535TIP3   OH265019   6.109   5.989  13.765 -0.0846  0.5489 -0.2547
14535TIP3    H165020   6.017   5.974  13.745 -0.0787  1.0835 -0.7097
14535TIP3    H265021   6.109   6.054  13.835 -0.0689 -0.1367  0.3892
14536TIP3   OH265022   0.765   0.181   3.627  0.0680  0.1604  0.2361
14536TIP3    H165023   0.760   0.195   3.532 -0.1395 -0.2107  0.1897
14536TIP3    H265024   0.677   0.151   3.651  0.2696 -0.2492  0.4636
14537TIP3   OH265025   5.817   2.377  12.711  0.4522  0.0753  0.4370
14537TIP3    H165026   5.876   2.425  12.652  0.6054 -0.0452  0.4902
14537TIP3    H265027   5.864   2.375  12.794 -0.1676  1.0586  0.8313
14538TIP3   OH265028   0.880   4.030  17.186  0.1676 -0.0993  0.2645
14538TIP3    H165029   0.909   3.941  17.169 -1.6645 -0.8560  0.8261
14538TIP3    H265030   0.812   4.021  17.253 -0.7259  1.6227 -0.3453
14539TIP3   OH265031   3.671   0.133  16.255 -0.0020  0.5490 -0.1928
14539TIP3    H165032   3.628   0.198  16.311  1.5241  0.8785  0.6832
14539TIP3    H265033   3.664   0.169  16.167 -1.8806  0.3510 -0.1473
14540TIP3   OH265034   4.835   5.000  12.681  0.2890  0.2906 -0.2845
14540TIP3    H165035   4.783   5.017  12.603  1.1966 -2.5029 -1.6181
14540TIP3    H265036   4.781   4.941  12.734  0.7858 -0.0338 -0.1326
14541TIP3   OH265037   4.458   6.693   1.985 -0.5963 -0.2474  0.3957
14541TIP3    H165038   4.372   6.652   1.983 -0.2145 -1.1254  1.5783
14541TIP3    H265039   4.449   6.766   2.047 -0.4136 -0.5224  0.7482
14542TIP3   OH265040   1.934   5.334   1.207 -0.5805  0.0649 -0.2807
14542TIP3    H165041   1.887   5.269   1.258 -3.0447  0.6466 -1.6808
14542TIP3    H265042   1.996   5.373   1.269 -1.4082 -1.2579  1.4464
14543TIP3   OH265043   6.156   3.888   3.140 -0.1854  0.5414 -0.5115
14543TIP3    H165044   6.162   3.840   3.057  1.8881 -2.1982  1.0880
14543TIP3    H265045   6.084   3.846   3.187  1.4259 -0.8941  0.7690
14544TIP3   OH265046   3.634   5.280  13.713  0.4664  0.1106 -0.0760
14544TIP3    H165047   3.608   5.352  13.770 -0.9717  0.0861 -0.6619
14544TIP3    H265048   3.650   5.207  13.773 -0.6720  0.1866  0.3570
14545TIP3   OH265049   0.872   1.367   1.063 -0.0463 -0.4255 -0.1209
14545TIP3    H165050   0.821   1.286   1.069 -1.9422  0.6219 -1.0902
14545TIP3    H265051   0.906   1.381   1.151  1.4156 -2.8979 -0.2004
14546TIP3   OH265052   1.011   6.686   6.148 -0.0410  0.7658 -0.1321
14546TIP3    H165053   0.938   6.688   6.210 -0.5398 -0.6534 -0.6212
14546TIP3    H265054   1.058   6.606   6.171 -0.1994  0.2492 -1.5177
14547TIP3   OH265055   5.344   1.106  13.267 -0.3778  0.2132 -0.2621
14547TIP3    H165056   5.264   1.150  13.296 -0.2296 -0.6154  1.4653
14547TIP3    H265057   5.360   1.142  13.179 -2.4794  0.5946 -0.5332
14548TIP3   OH265058   2.654   2.643  15.336 -0.0214 -0.9374  0.1805
14548TIP3    H165059   2.740   2.657  15.297 -0.0542 -2.6376 -0.6066
14548TIP3    H265060   2.651   2.549  15.355 -1.7936 -0.9748 -0.0661
14549TIP3   OH265061   4.137   3.588  11.419  0.5595 -0.4461  0.0631
14549TIP3    H165062   4.052   3.587  11.464 -0.1845  0.1677 -1.2590
14549TIP3    H265063   4.166   3.497  11.421  0.5959 -0.4354  1.8082
14550TIP3   OH265064   3.147   3.070   6.778 -0.1601  0.3319  0.3216
14550TIP3    H165065   3.183   3.031   6.857  1.2086  1.2558  0.1954
14550TIP3    H265066   3.164   3.005   6.709  1.3256  0.7233  0.2700
14551TIP3   OH265067   2.356   5.502  12.085  0.5394 -0.1669  0.3136
14551TIP3    H165068   2.261   5.499  12.096  0.1674 -0.2781 -2.3164
14551TIP3    H265069   2.382   5.587  12.121 -0.7492  0.4509 -0.1478
14552TIP3   OH265070   2.808   3.946  16.877  0.4331 -0.3441  0.2935
14552TIP3    H165071   2.713   3.941  16.864  0.5454  0.4395 -0.9047
14552TIP3    H265072   2.844   3.882  16.815  0.6833 -1.0197  1.1085
14553TIP3   OH265073   2.946   3.651   3.290 -0.1258 -0.1371  0.2971
14553TIP3    H165074   3.039   3.672   3.299  0.1117 -1.2031  0.4728
14553TIP3    H265075   2.903   3.709   3.353  0.4256  0.2817  0.2993
14554TIP3   OH265076   1.562   4.536  14.958 -0.2207 -0.4176  0.0904
14554TIP3    H165077   1.542   4.548  14.865  0.1964  0.0487  0.0538
14554TIP3    H265078   1.514   4.605  15.003  0.6712  0.2310  0.0764
14555TIP3   OH265079   4.557   6.432   2.228  0.2345 -0.4250  1.0772
14555TIP3    H165080   4.527   6.352   2.271  2.1700 -0.8013  1.8197
14555TIP3    H265081   4.588   6.488   2.299  0.1490  0.4503  0.4462
14556TIP3   OH265082   0.312   3.696   1.645 -0.0918 -0.6551  0.2763
14556TIP3    H165083   0.348   3.681   1.558 -1.3647  1.4980 -0.7282
14556TIP3    H265084   0.377   3.752   1.688 -0.8139  0.8477 -0.4879
14557TIP3   OH265085   0.818   1.532  11.929 -0.4038  0.2814  0.4306
14557TIP3    H165086   0.877   1.517  12.003  0.4133 -0.7619 -0.3988
14557TIP3    H265087   0.801   1.445  11.893 -1.5309  0.6861 -0.0608
14558TIP3   OH265088   5.349   1.770  16.309 -0.3194 -0.4725 -0.2544
14558TIP3    H165089   5.374   1.800  16.221  2.0314  2.9062  1.3568
14558TIP3    H265090   5.261   1.805  16.323 -0.7808 -1.1764 -1.2376
14559TIP3   OH265091   4.330   6.498   2.550 -0.2412 -0.6724 -0.7476
14559TIP3    H165092   4.318   6.491   2.455 -0.8787  2.5975 -1.0514
14559TIP3    H265093   4.253   6.547   2.580  1.4026  1.1110  0.9101
14560TIP3   OH265094   0.593   2.255  15.877 -0.2264  0.3353  0.6848
14560TIP3    H165095   0.559   2.321  15.938  0.5797 -0.4594  2.0559
14560TIP3    H265096   0.553   2.173  15.907 -0.5792  0.0638 -0.4836
14561TIP3   OH265097   3.697   3.141  12.316  0.1859  0.1394  0.7597
14561TIP3    H165098   3.774   3.128  12.261 -0.1017  0.0766  0.3649
14561TIP3    H265099   3.698   3.234  12.337 -0.0754  0.3017  0.0754
14562TIP3   OH265100   5.403   0.820  17.353  0.4996 -0.3735  0.2378
14562TIP3    H165101   5.374   0.754  17.290  1.0039 -0.4660  0.0930
14562TIP3    H265102   5.356   0.798  17.434 -0.4533 -0.0110 -0.2067
14563TIP3   OH265103   1.228   0.048  10.927 -0.0800  0.1769  0.0527
14563TIP3    H165104   1.227   0.014  10.838 -0.9547  0.9209 -0.2352
14563TIP3    H265105   1.153   0.007  10.970 -0.0475  0.3209  0.2492
14564TIP3   OH265106   5.552   6.476   3.410  0.1982 -0.2953 -0.3939
14564TIP3    H165107   5.549   6.471   3.314 -0.6465 -0.2218 -0.3746
14564TIP3    H265108   5.629   6.532   3.428  0.1545 -0.0166 -1.0383
14565TIP3   OH265109   5.666   5.468   3.222 -0.4490  0.2692  0.3526
14565TIP3    H165110   5.595   5.530   3.239 -0.3334  0.4019  0.3557
14565TIP3    H265111   5.746   5.518   3.239 -0.3704 -0.3797  2.0248
14566TIP3   OH265112   6.134   2.546   3.552 -0.1844 -0.2484 -0.1620
14566TIP3    H165113   6.177   2.592   3.478  0.0946  0.1379  0.2330
14566TIP3    H265114   6.041   2.552   3.532 -0.6046  4.3628  1.9433
14567TIP3   OH265115   3.380   3.500  15.620  0.2065 -0.1350  0.4828
14567TIP3    H165116   3.431   3.573  15.654  1.0567 -0.4858  0.0185
14567TIP3    H265117   3.363   3.445  15.696 -1.5243  1.1348  1.0718
14568TIP3   OH265118   6.244   5.623  13.179 -0.1010  0.1152  0.1205
14568TIP3    H165119   6.264   5.716  13.191 -1.7968  0.6122 -0.5586
14568TIP3    H265120   6.202   5.597  13.261  3.1831 -0.9848  1.6370
14569TIP3   OH265121   4.247   1.157  15.695 -0.4966  0.2007  0.2209
14569TIP3    H165122   4.241   1.253  15.697 -0.3679  0.2683 -1.5844
14569TIP3    H265123   4.330   1.139  15.651 -0.1710 -0.7698  1.1752
14570TIP3   OH265124   6.259   0.815   4.847 -0.2747  0.1634 -0.1055
14570TIP3    H165125   6.179   0.827   4.797 -0.2831 -0.6657 -0.3016
14570TIP3    H265126   6.262   0.722   4.867  0.0265  0.3871  0.9495
14571TIP3   OH265127   1.614   1.197   5.882 -0.6555 -0.7281  0.0466
14571TIP3    H165128   1.680   1.149   5.932 -0.7748  0.0609  0.9992
14571TIP3    H265129   1.590   1.271   5.939 -1.4855 -0.3332 -0.7895
14572TIP3   OH265130   1.754   3.366   4.142 -0.0454 -0.3851  0.0556
14572TIP3    H165131   1.674   3.332   4.104 -1.1068  0.6897  1.2288
14572TIP3    H265132   1.818   3.365   4.071 -1.7136  0.8319 -1.5217
14573TIP3   OH265133   4.933   3.542  13.129  0.1057  0.1970 -0.1188
14573TIP3    H165134   4.969   3.484  13.063  1.6454  1.9441 -0.8944
14573TIP3    H265135   4.845   3.508  13.146  0.5415 -1.6440 -1.3492
14574TIP3   OH265136   5.631   6.319  17.073 -0.1090  0.2519 -0.4202
14574TIP3    H165137   5.589   6.360  17.148  1.0107 -0.2195  0.4762
14574TIP3    H265138   5.630   6.225  17.093  0.3389  0.1350 -0.9166
14575TIP3   OH265139   1.306   1.373  12.117  0.0083 -0.1940 -0.3016
14575TIP3    H165140   1.281   1.282  12.136 -0.9274 -0.3680 -2.1055
14575TIP3    H265141   1.387   1.387  12.166  1.3355 -2.6936 -1.6136
14576TIP3   OH265142   4.947   0.070  16.470 -0.0384 -0.6825 -0.2829
14576TIP3    H165143   5.025   0.076  16.415 -0.9494  1.3442 -1.4887
14576TIP3    H265144   4.879   0.114  16.419 -1.4247 -0.4770  1.6390
14577TIP3   OH265145   5.159   1.730   3.291  0.5572 -0.0358 -0.0323
14577TIP3    H165146   5.146   1.815   3.251 -0.4557  0.4774  1.2830
14577TIP3    H265147   5.140   1.667   3.221 -1.7817  0.8099 -0.2686
14578TIP3   OH265148   5.499   0.801  11.500  0.4570 -0.1751  0.1581
14578TIP3    H165149   5.512   0.866  11.569 -0.4588 -0.6384  0.7880
14578TIP3    H265150   5.410   0.814  11.470  1.0382  0.4330 -1.4113
14579TIP3   OH265151   4.184   0.483   0.092  0.2332  0.3253 -0.3049
14579TIP3    H165152   4.097   0.443   0.100  1.0653 -1.3876  0.5760
14579TIP3    H265153   4.230   0.428   0.029  1.3339 -0.0219  0.7764
14580TIP3   OH265154   2.085   4.210  11.409  0.0910  0.2177  0.0028
14580TIP3    H165155   1.995   4.238  11.423  0.8926  3.5519 -0.6689
14580TIP3    H265156   2.079   4.142  11.342 -1.9649 -0.2931  0.6348
14581TIP3   OH265157   3.827   4.251  17.196  0.5915  0.4970 -0.3496
14581TIP3    H165158   3.819   4.325  17.136  0.6232  0.1727 -0.7574
14581TIP3    H265159   3.740   4.212  17.199 -0.1155  2.0650  1.8656
14582TIP3   OH265160   0.267   1.151   2.751  0.4411  0.3509 -0.3686
14582TIP3    H165161   0.196   1.103   2.794  0.9634 -1.5922 -1.5554
14582TIP3    H265162   0.338   1.153   2.816 -0.5396  2.0421  0.7113
14583TIP3   OH265163   2.707   3.177  14.805  0.1712 -0.2238  0.2066
14583TIP3    H165164   2.732   3.096  14.759  0.2221 -0.0642 -0.0465
14583TIP3    H265165   2.612   3.182  14.795  0.2280  0.0217 -0.2294
14584TIP3   OH265166   4.431   0.611  13.558 -0.2224  0.6992 -0.3731
14584TIP3    H165167   4.386   0.692  13.579 -1.0558  0.0338  0.5013
14584TIP3    H265168   4.465   0.579  13.642 -0.7661 -0.3506 -0.5293
14585TIP3   OH265169   4.544   2.197  15.919  0.5674  0.2920  0.1173
14585TIP3    H165170   4.450   2.217  15.922  0.5484  0.7209 -1.8915
14585TIP3    H265171   4.550   2.104  15.938 -0.1074  0.5367  1.6792
14586TIP3   OH265172   6.540   2.666   2.560 -0.1660  0.2468 -0.8466
14586TIP3    H165173   6.525   2.749   2.515 -0.9607  0.1819 -0.7127
14586TIP3    H265174   6.473   2.607   2.525 -0.4400  0.0363  0.0052
14587TIP3   OH265175   0.757   6.247  14.701 -0.0493 -1.0880  0.1923
14587TIP3    H165176   0.727   6.181  14.639  0.6650  0.2964 -1.7306
14587TIP3    H265177   0.735   6.330  14.659  4.9425  0.0734 -0.7520
14588TIP3   OH265178   3.764   6.317  10.963 -0.2834  0.2642 -0.1608
14588TIP3    H165179   3.758   6.336  10.869 -0.5737  1.0912  0.0168
14588TIP3    H265180   3.858   6.322  10.982  0.1023 -2.4480 -0.8910
14589TIP3   OH265181   5.576   4.294  12.300 -0.0964  0.0348 -0.1960
14589TIP3    H165182   5.652   4.347  12.274 -0.5445  0.6416 -0.2746
14589TIP3    H265183   5.517   4.299  12.225 -0.0136 -0.8362 -0.3305
14590TIP3   OH265184   5.458   3.012   2.820 -0.3182  0.2003 -0.8603
14590TIP3    H165185   5.513   2.985   2.747 -1.5547  0.1483 -1.8093
14590TIP3    H265186   5.370   2.984   2.795 -0.9851  1.4291  0.0110
14591TIP3   OH265187   3.552   4.989  14.505 -0.5365 -0.2547 -0.3743
14591TIP3    H165188   3.531   4.918  14.444 -0.3699 -0.5244 -0.1157
14591TIP3    H265189   3.602   4.948  14.575  0.2364  0.2544 -0.6123
14592TIP3   OH265190   4.822   5.088  15.555  0.1725 -0.5163  0.4066
14592TIP3    H165191   4.889   5.131  15.502 -0.5977 -0.7576 -0.7915
14592TIP3    H265192   4.851   5.101  15.645  1.5903 -0.2252 -0.0668
14593TIP3   OH265193   4.216   5.384   3.178 -0.4088  0.0410 -0.8520
14593TIP3    H165194   4.202   5.345   3.264  1.3505 -1.6883 -1.2725
14593TIP3    H265195   4.262   5.467   3.196  1.8524 -1.2798 -0.1268
14594TIP3   OH265196   5.833   0.674   4.037  0.3943  0.2234 -0.2023
14594TIP3    H165197   5.743   0.694   4.014  0.4386 -0.0659 -0.6211
14594TIP3    H265198   5.872   0.760   4.057  0.4778  0.5464 -1.6297
14595TIP3   OH265199   2.185   1.372   5.505  0.4204  0.2491 -0.2609
14595TIP3    H165200   2.205   1.315   5.579  0.2789 -0.8794 -1.0571
14595TIP3    H265201   2.120   1.434   5.538  0.1268 -0.4389  0.4723
14596TIP3   OH265202   2.180   2.067  16.551 -0.1509  0.4643 -0.1921
14596TIP3    H165203   2.261   2.095  16.593  0.9585 -0.0426 -1.8876
14596TIP3    H265204   2.208   2.029  16.468 -2.0236 -0.8505 -0.2968
14597TIP3   OH265205   3.536   5.863  13.540  0.3667 -0.2169 -0.2109
14597TIP3    H165206   3.619   5.827  13.570 -0.2723 -1.5224  0.0790
14597TIP3    H265207   3.504   5.915  13.613  0.7095 -0.0908 -0.1518
14598TIP3   OH265208   0.037   3.893  14.897  0.3619  0.4001  0.1915
14598TIP3    H165209   0.002   3.831  14.961  1.3269 -0.9010 -0.4972
14598TIP3    H265210  -0.040   3.941  14.865 -0.3351 -0.0950  1.0956
14599TIP3   OH265211   3.035   1.829  12.381 -0.8604 -0.3350  0.6547
14599TIP3    H165212   3.015   1.910  12.429  1.3660  0.9235 -0.3832
14599TIP3    H265213   2.965   1.822  12.316  0.0125  1.9999 -0.6488
14600TIP3   OH265214   4.764   2.531   3.039 -0.3331  0.1876 -0.3393
14600TIP3    H165215   4.711   2.516   3.118 -1.4307  1.6815 -0.7618
14600TIP3    H265216   4.849   2.492   3.061 -1.1053 -0.8848  0.9484
14601TIP3   OH265217   4.244   2.652   4.000 -0.0711  0.0294  0.0369
14601TIP3    H165218   4.234   2.569   3.953  1.1977  0.9232 -1.9101
14601TIP3    H265219   4.323   2.639   4.054 -0.6583 -0.4671  0.8049
14602TIP3   OH265220   2.929   5.028   4.341  0.6092 -0.0366 -0.2287
14602TIP3    H165221   2.888   5.034   4.255  1.4660  0.4267 -0.6232
14602TIP3    H265222   3.013   5.073   4.330  0.3874  0.7502  1.0596
14603TIP3   OH265223   6.466   3.523   3.146 -0.2698  0.2955  0.0790
14603TIP3    H165224   6.448   3.514   3.240 -1.9144  0.5569 -0.1853
14603TIP3    H265225   6.558   3.499   3.137 -0.7339 -2.3558  1.3821
14604TIP3   OH265226   4.759   5.391   0.297  0.7115 -0.3612 -0.2152
14604TIP3    H165227   4.746   5.486   0.290  0.7938 -0.4484 -2.0937
14604TIP3    H265228   4.713   5.355   0.221  2.6083 -1.6153 -0.8440
14605TIP3   OH265229   2.947   0.961  16.747  0.5088  0.0258 -0.6668
14605TIP3    H165230   2.950   0.876  16.793 -0.0255  0.1973 -0.2996
14605TIP3    H265231   2.986   0.943  16.661 -2.1595 -1.3248 -1.7114
14606TIP3   OH265232   5.440   1.133   4.119  0.3489  0.2951  0.1929
14606TIP3    H165233   5.401   1.046   4.115 -0.6832  0.6614  1.4171
14606TIP3    H265234   5.378   1.189   4.072 -0.0770  0.6898  1.1808
14607TIP3   OH265235   5.990   3.560   4.994 -0.5138 -0.5506  0.1719
14607TIP3    H165236   5.931   3.617   4.945 -0.4488 -0.9562 -0.3882
14607TIP3    H265237   5.948   3.474   4.990 -0.0998 -0.7504  0.1321
14608TIP3   OH265238   0.245   5.627   2.298 -0.2388  0.0374  0.3228
14608TIP3    H165239   0.192   5.562   2.344 -0.9793 -1.3067 -2.2093
14608TIP3    H265240   0.335   5.606   2.323 -0.4807 -1.7767 -0.1278
14609TIP3   OH265241   1.923   6.471  16.229  0.4546 -0.3160  0.7864
14609TIP3    H165242   1.995   6.532  16.211  0.6294 -0.1802  1.9199
14609TIP3    H265243   1.928   6.454  16.323 -0.6683 -0.7286  0.7856
14610TIP3   OH265244   4.966   3.818  13.076 -0.1150 -0.0875 -0.4452
14610TIP3    H165245   4.915   3.737  13.086 -0.9009  0.3433 -0.8979
14610TIP3    H265246   4.981   3.826  12.982  0.5636 -0.0591 -0.3424
14611TIP3   OH265247   0.393   2.460  15.951 -0.3769  0.0733 -0.2175
14611TIP3    H165248   0.431   2.457  16.039  2.1692 -1.0069 -1.2696
14611TIP3    H265249   0.309   2.415  15.960 -0.7075  0.9390  1.8326
14612TIP3   OH265250   1.091   4.228  11.913 -0.2325 -0.0857 -0.0491
14612TIP3    H165251   1.084   4.293  11.844  0.2906 -0.3962 -0.4040
14612TIP3    H265252   1.157   4.264  11.973 -1.0362  0.4118  0.5558
14613TIP3   OH265253   0.997   1.282  16.679 -0.9629  0.0154  0.0808
14613TIP3    H165254   0.998   1.377  16.694  1.1829 -0.0427  0.6218
14613TIP3    H265255   1.087   1.254  16.698 -1.7786 -2.2786  0.8941
14614TIP3   OH265256   0.973   2.465   1.319  0.6092  0.5622  0.6242
14614TIP3    H165257   0.992   2.509   1.403  0.2439  0.4966  0.7404
14614TIP3    H265258   0.923   2.388   1.343  0.8837  0.3067  0.3796
14615TIP3   OH265259   0.773   0.951  14.293  0.0245 -0.0000  0.1108
14615TIP3    H165260   0.780   0.943  14.198 -0.2896  0.1071  0.0785
14615TIP3    H265261   0.795   0.864  14.326  0.0469 -0.0611 -0.0661
14616TIP3   OH265262   1.501   5.328   0.478  0.0814 -0.6059 -0.1949
14616TIP3    H165263   1.505   5.248   0.531 -1.4493 -0.8746 -0.4272
14616TIP3    H265264   1.514   5.298   0.388 -0.5546 -0.6159 -0.2889
14617TIP3   OH265265   0.849   4.583   2.116  0.2808  0.6842  0.3546
14617TIP3    H165266   0.895   4.580   2.032  0.9580 -0.5074  0.7473
14617TIP3    H265267   0.787   4.510   2.112  0.9882  0.0183  1.2482
14618TIP3   OH265268   3.283   2.888   2.357 -0.0024 -0.3468 -0.6110
14618TIP3    H165269   3.338   2.812   2.375  0.5554  0.6248  2.1216
14618TIP3    H265270   3.313   2.919   2.271  1.6839 -1.5422 -0.5030
14619TIP3   OH265271   6.157   1.568   0.317 -1.2947 -0.2041  0.0925
14619TIP3    H165272   6.234   1.578   0.374 -0.8037 -1.3763 -0.3364
14619TIP3    H265273   6.175   1.626   0.244 -0.8580 -0.3821  0.0504
14620TIP3   OH265274   2.688   1.067   2.245  0.2982 -0.5571  0.6825
14620TIP3    H165275   2.780   1.090   2.244  0.1836  0.2285  2.8397
14620TIP3    H265276   2.642   1.148   2.266 -1.2405 -0.1913 -3.2970
14621TIP3   OH265277   0.544   5.693  16.857 -0.2424  0.5854 -0.6907
14621TIP3    H165278   0.505   5.778  16.879  1.8471  1.3921  0.1703
14621TIP3    H265279   0.565   5.654  16.942 -0.7910 -0.6134 -1.0894
14622TIP3   OH265280   4.619   0.266  14.848 -0.1137  0.0669  0.0806
14622TIP3    H165281   4.653   0.182  14.879 -0.0121 -0.3698 -1.1309
14622TIP3    H265282   4.697   0.319  14.834  0.1117 -0.7476 -2.1715
14623TIP3   OH265283   4.418   1.161  11.900 -0.7253  0.0395  0.1570
14623TIP3    H165284   4.397   1.068  11.905 -1.0938  0.1849  2.4024
14623TIP3    H265285   4.500   1.171  11.947 -1.6002  1.0494  1.5676
14624TIP3   OH265286   5.044   0.845  12.373  0.1535 -0.0338  0.6576
14624TIP3    H165287   4.980   0.866  12.305 -1.7109  1.3211  2.6469
14624TIP3    H265288   5.000   0.780  12.428  1.2743 -0.5019  1.0264
14625TIP3   OH265289   5.132   0.070  15.273  0.1212  0.2733 -0.1054
14625TIP3    H165290   5.186   0.147  15.258  0.0012  0.5507  0.7768
14625TIP3    H265291   5.045   0.106  15.293  0.1666 -0.0584  0.7419
14626TIP3   OH265292   5.201   1.077   0.014  0.0741 -0.0912  0.0480
14626TIP3    H165293   5.195   1.005  -0.048 -0.3810 -0.3709  0.4149
14626TIP3    H265294   5.168   1.153  -0.034  1.4910  0.0962 -0.6727
14627TIP3   OH265295   4.986   5.920  16.120  0.0056 -0.8043 -0.1099
14627TIP3    H165296   4.967   5.998  16.067 -1.9642 -1.2241 -0.1040
14627TIP3    H265297   4.978   5.847  16.058 -0.2394 -1.1407  0.3081
14628TIP3   OH265298   4.714   4.856   6.037  0.6416  0.1493  0.2921
14628TIP3    H165299   4.803   4.841   6.069 -0.4264 -0.9149  3.1173
14628TIP3    H265300   4.689   4.774   5.995  1.1194  0.6426 -1.0270
14629TIP3   OH265301   5.860   1.196  14.131 -0.4426  0.0934  0.7108
14629TIP3    H165302   5.855   1.216  14.037  0.3474 -1.7452  0.2269
14629TIP3    H265303   5.862   1.282  14.174  1.2232  1.0367 -1.0713
14630TIP3   OH265304   4.223   6.160   4.790 -0.4333  0.2621  0.7884
14630TIP3    H165305   4.135   6.164   4.753 -0.2997  0.5980  0.4964
14630TIP3    H265306   4.253   6.071   4.772 -0.5266  0.2976  0.4404
14631TIP3   OH265307   4.291   1.210  16.197  0.3355 -0.7910  0.2514
14631TIP3    H165308   4.361   1.171  16.249 -0.6071 -0.5826  1.7133
14631TIP3    H265309   4.217   1.218  16.257  0.0805  2.1309 -0.2911
14632TIP3   OH265310   4.757   1.449  15.571 -0.0237 -0.6219  0.1376
14632TIP3    H165311   4.672   1.430  15.533 -0.1351  0.2483 -0.0673
14632TIP3    H265312   4.761   1.394  15.649 -0.6445 -0.8978 -0.0203
14633TIP3   OH265313   4.433   6.760   4.132 -0.4118  0.1891 -0.4140
14633TIP3    H165314   4.383   6.728   4.207 -0.9979  0.6918 -0.5818
14633TIP3    H265315   4.524   6.746   4.156 -0.6014  0.1669  0.3109
14634TIP3   OH265316   3.486   2.804  16.187 -0.3346 -0.2399 -0.0334
14634TIP3    H165317   3.456   2.840  16.103  0.3449 -0.3757 -0.3386
14634TIP3    H265318   3.543   2.871  16.223  0.6939 -0.8580 -0.4620
14635TIP3   OH265319   4.578   2.428   0.412  0.8162  0.4061  0.0690
14635TIP3    H165320   4.509   2.476   0.366  1.8522  1.8825 -0.0289
14635TIP3    H265321   4.538   2.402   0.495 -0.7020 -1.2343 -1.1107
14636TIP3   OH265322   4.552   6.738   4.495  0.0726 -0.3418  0.1691
14636TIP3    H165323   4.640   6.720   4.527  0.0975  0.0243  0.3047
14636TIP3    H265324   4.564   6.758   4.402  0.2099  0.3230  0.3248
14637TIP3   OH265325   1.320   5.700  15.238 -0.1275 -0.4673 -0.7828
14637TIP3    H165326   1.347   5.619  15.193  1.0924  0.8909 -2.6457
14637TIP3    H265327   1.287   5.756  15.168  2.2923  1.9283 -0.1737
14638TIP3   OH265328   5.072   3.625   3.597  0.4909  0.0357 -0.0721
14638TIP3    H165329   5.080   3.594   3.507  0.4234 -0.1940 -0.0004
14638TIP3    H265330   5.048   3.546   3.647 -2.2273  0.6162 -0.2767
14639TIP3   OH265331   5.021   0.064  14.574  0.2132  0.5341  0.0543
14639TIP3    H165332   5.067   0.129  14.627  0.9838 -0.2652  0.3916
14639TIP3    H265333   5.082  -0.010  14.569 -0.6570 -0.1714 -0.3058
14640TIP3   OH265334   2.898   6.341  13.226  0.1154  0.1745 -0.5327
14640TIP3    H165335   2.993   6.344  13.238  0.0600 -0.2371  0.0420
14640TIP3    H265336   2.871   6.257  13.263 -0.3583 -0.1503 -1.5604
14641TIP3   OH265337   1.709   0.102  13.086 -0.1158 -0.0672  0.1705
14641TIP3    H165338   1.770   0.046  13.133  0.6328  0.0400 -0.6410
14641TIP3    H265339   1.623   0.063  13.101  0.2986 -0.9462  0.3083
14642TIP3   OH265340   0.466   4.625   1.803  0.9183  0.0020  0.0471
14642TIP3    H165341   0.481   4.705   1.853 -0.1998  0.5250 -0.4210
14642TIP3    H265342   0.522   4.560   1.845  0.3234  0.5216  1.7380
14643TIP3   OH265343   0.881   6.478  16.479  0.3817 -0.4111  0.3504
14643TIP3    H165344   0.874   6.513  16.390 -0.8110  1.1615  1.0167
14643TIP3    H265345   0.825   6.535  16.532  0.1982 -1.9729  1.9297
14644TIP3   OH265346   3.572   4.015   3.060 -0.1539 -0.4833 -0.0685
14644TIP3    H165347   3.598   4.010   2.968 -1.0830 -1.3267 -0.3046
14644TIP3    H265348   3.528   4.100   3.067  1.0824  0.1888 -0.0616
14645TIP3   OH265349   3.528   2.367  15.647  0.7939 -0.2751 -0.1784
14645TIP3    H165350   3.498   2.363  15.738 -2.0614 -0.3624 -1.0376
14645TIP3    H265351   3.593   2.296  15.641  0.0744 -1.1426  1.4750
14646TIP3   OH265352   2.843   1.808   4.001 -0.5616  0.2439 -0.2976
14646TIP3    H165353   2.867   1.900   4.005  0.0289  0.0581  3.0814
14646TIP3    H265354   2.923   1.763   3.974 -0.6379  0.6155 -1.1804
14647TIP3   OH265355   1.573   1.466  13.257 -0.3553  0.1471 -0.3262
14647TIP3    H165356   1.574   1.551  13.301  1.2921 -0.1611  0.3144
14647TIP3    H265357   1.626   1.409  13.314 -1.3155 -1.2876 -0.7963
14648TIP3   OH265358   2.770   3.094   2.512 -0.2355 -0.4244  0.1771
14648TIP3    H165359   2.836   3.075   2.446 -0.9450  0.0586 -0.7063
14648TIP3    H265360   2.697   3.036   2.490  0.2454 -1.6934  1.7578
14649TIP3   OH265361   3.166   4.377  13.239 -0.7552  0.2625 -0.2316
14649TIP3    H165362   3.119   4.444  13.189  0.1549  2.1400  1.2745
14649TIP3    H265363   3.171   4.413  13.327  0.3090 -1.5603  0.5007
14650TIP3   OH265364   1.517   2.406  14.876 -0.2155 -0.7691 -0.0315
14650TIP3    H165365   1.488   2.492  14.846  0.0029 -0.3115  1.0371
14650TIP3    H265366   1.437   2.355  14.884 -0.2803 -0.9030 -1.3574
14651TIP3   OH265367   6.746   3.598  12.483  0.0288 -0.4033 -0.0113
14651TIP3    H165368   6.839   3.612  12.468  0.0174  0.1565  0.4200
14651TIP3    H265369   6.712   3.684  12.506 -1.2201  0.1056 -3.2327
14652TIP3   OH265370   3.990   5.735  14.238 -0.5604  0.4439  0.6876
14652TIP3    H165371   4.085   5.740  14.253 -0.0465 -0.6222 -1.7172
14652TIP3    H265372   3.976   5.647  14.204 -2.2880  0.8661  0.2136
14653TIP3   OH265373   4.994   5.364  12.374 -0.3500  0.6490 -0.4378
14653TIP3    H165374   5.037   5.364  12.460 -0.1614 -0.2860 -0.5173
14653TIP3    H265375   5.034   5.438  12.328 -1.4149  2.0045  0.7183
14654TIP3   OH265376   5.181   1.964  13.405  0.1906 -0.3733  0.4760
14654TIP3    H165377   5.219   2.011  13.330 -0.5509  0.2497  0.4798
14654TIP3    H265378   5.112   2.022  13.436 -0.3562 -1.2192  0.8487
14655TIP3   OH265379   6.264   5.422   1.934  0.2265  0.2000 -0.3498
14655TIP3    H165380   6.332   5.486   1.913 -1.4507  2.3159  0.3189
14655TIP3    H265381   6.308   5.337   1.926  2.5212  1.3881 -1.3950
14656TIP3   OH265382   1.577   2.727  17.038  0.0705 -0.2471  0.1959
14656TIP3    H165383   1.642   2.795  17.054 -0.5411  0.2306  0.7366
14656TIP3    H265384   1.595   2.697  16.950  1.4475 -0.6046  0.5850
14657TIP3   OH265385   0.411   4.243   4.141  0.5950  0.3777  0.1266
14657TIP3    H165386   0.484   4.299   4.169  1.3441 -0.7504  0.4852
14657TIP3    H265387   0.359   4.229   4.221 -0.8645  2.3284 -0.3975
14658TIP3   OH265388   5.996   0.781   4.697 -0.2798  0.1372  0.3899
14658TIP3    H165389   5.940   0.739   4.762  0.6309 -3.3852 -0.8320
14658TIP3    H265390   5.936   0.817   4.632 -1.1269  0.4716  1.3308
14659TIP3   OH265391   2.735   1.118   3.036 -0.4803 -0.2571  0.2281
14659TIP3    H165392   2.686   1.193   3.070 -0.7269 -1.5169  2.8942
14659TIP3    H265393   2.673   1.071   2.981 -0.7539  0.6979 -0.3105
14660TIP3   OH265394   2.146   2.105   5.103 -0.5995 -0.3874  0.2077
14660TIP3    H165395   2.152   2.058   5.020  2.1831 -0.3524  0.2972
14660TIP3    H265396   2.164   2.039   5.170 -0.4313  0.0578  0.6062
14661TIP3   OH265397   2.980   1.966   5.534 -0.6422 -0.1953  0.0320
14661TIP3    H165398   3.014   2.048   5.499  1.2672 -1.5085 -1.3965
14661TIP3    H265399   2.906   1.945   5.476 -0.9142  0.3329  0.1846
14662TIP3   OH265400   4.980   3.390   5.392 -0.4703  0.1488  0.0311
14662TIP3    H165401   4.977   3.316   5.452  0.9331  0.0327 -0.0142
14662TIP3    H265402   4.975   3.351   5.305 -1.3090  0.2314  0.0364
14663TIP3   OH265403   1.733   0.966   4.584 -0.3045 -0.3654 -0.3508
14663TIP3    H165404   1.796   0.995   4.518  1.4272  1.6396  1.9975
14663TIP3    H265405   1.707   1.045   4.630 -3.4433 -1.3494 -0.1962
14664TIP3   OH265406   4.740   0.968  15.143  0.8271 -0.0384 -0.0837
14664TIP3    H165407   4.833   0.945  15.143  0.7958 -0.2359  0.9160
14664TIP3    H265408   4.736   1.048  15.195  0.6201  0.8539 -1.4421
14665TIP3   OH265409   2.929   3.228   1.898 -0.3583  0.6164 -0.6116
14665TIP3    H165410   2.913   3.152   1.842 -1.7885  0.4716 -0.0593
14665TIP3    H265411   2.849   3.280   1.892 -0.5987  0.5641  1.3104
14666TIP3   OH265412   2.953   0.356  17.162 -0.2338  0.3126  0.4127
14666TIP3    H165413   2.931   0.309  17.082  0.6117 -0.2164  0.4789
14666TIP3    H265414   2.909   0.441  17.153  0.0251  0.3468 -0.7103
14667TIP3   OH265415   5.997   1.298   3.992 -0.3872 -0.0398 -0.0404
14667TIP3    H165416   6.023   1.310   4.083  0.3192  1.4318 -0.4028
14667TIP3    H265417   5.943   1.375   3.972  0.2599  0.1509 -1.1315
14668TIP3   OH265418   1.123   3.897   3.501 -0.1112 -0.0925  0.3161
14668TIP3    H165419   1.187   3.880   3.432  1.0624  1.7528  0.8702
14668TIP3    H265420   1.103   3.811   3.537  1.0308 -0.8598 -0.7894
14669TIP3   OH265421   2.986   2.892  10.969  0.4794  0.1045  0.4002
14669TIP3    H165422   3.014   2.809  10.931  4.3035  1.5850 -0.4395
14669TIP3    H265423   3.018   2.959  10.908 -3.1097  2.3297  0.6270
14670TIP3   OH265424   2.199   5.384   0.772 -0.3616  0.4916 -0.1296
14670TIP3    H165425   2.179   5.348   0.685 -0.7549 -1.4578  0.6964
14670TIP3    H265426   2.115   5.417   0.803 -0.3777  0.5275 -0.2101
14671TIP3   OH265427   3.186   5.127   3.399 -0.3805 -0.3728  0.0453
14671TIP3    H165428   3.216   5.109   3.310  0.2957 -0.5505  0.2973
14671TIP3    H265429   3.194   5.222   3.409 -1.3850 -0.2304 -0.3965
14672TIP3   OH265430   4.136   4.581  13.110 -0.1328  0.8714  0.6654
14672TIP3    H165431   4.173   4.555  13.026 -0.0526  0.5846  0.7888
14672TIP3    H265432   4.054   4.624  13.087 -0.1058  0.8052  0.4397
14673TIP3   OH265433   6.661   4.672   4.371 -0.0858  0.5499  0.4334
14673TIP3    H165434   6.691   4.707   4.456  0.1234  0.2719  0.4750
14673TIP3    H265435   6.569   4.697   4.367  0.2949  1.9906  0.0156
14674TIP3   OH265436   1.939   3.421  16.126  0.3392  0.5431  0.1289
14674TIP3    H165437   1.994   3.422  16.047  0.9523 -0.5925  0.5267
14674TIP3    H265438   1.949   3.508  16.163 -0.6657  1.4147 -1.5126
14675TIP3   OH265439   2.122   4.790   1.594 -0.4218  0.2276  0.0534
14675TIP3    H165440   2.104   4.796   1.688  1.1434 -1.4497  0.4940
14675TIP3    H265441   2.038   4.762   1.556 -1.0138  0.7202  0.9577
14676TIP3   OH265442   4.865   5.999   4.483  0.3342 -0.0736 -0.1170
14676TIP3    H165443   4.859   6.036   4.395  0.2065 -2.6715 -1.3089
14676TIP3    H265444   4.956   5.968   4.490 -0.0057 -1.0672  0.1077
14677TIP3   OH265445   1.127   0.910  13.932  0.1475 -0.2531  0.1328
14677TIP3    H165446   1.035   0.933  13.948  0.7272  0.7174  2.3862
14677TIP3    H265447   1.140   0.827  13.977  0.3619 -0.4463 -0.2792
14678TIP3   OH265448   4.762   1.957  14.254  0.4194  0.0594  0.5097
14678TIP3    H165449   4.794   1.867  14.260 -0.2285 -0.3722 -1.5801
14678TIP3    H265450   4.765   1.990  14.343 -0.8202 -2.5614  1.6192
14679TIP3   OH265451   3.385   4.705   5.662 -0.4903  0.1316  0.2131
14679TIP3    H165452   3.360   4.644   5.732  0.8580 -0.2176  0.4099
14679TIP3    H265453   3.316   4.695   5.596 -1.1050 -0.4661  0.9260
14680TIP3   OH265454   5.384   1.219   3.684 -0.0909 -0.1981  0.3060
14680TIP3    H165455   5.337   1.213   3.767 -1.4410  2.3351 -0.1758
14680TIP3    H265456   5.450   1.287   3.699 -0.2923  0.2230 -0.6524
14681TIP3   OH265457   6.232   3.168  11.100 -0.4723  0.0103  0.2946
14681TIP3    H165458   6.203   3.257  11.116 -0.2318  0.0882  0.2884
14681TIP3    H265459   6.160   3.113  11.131 -0.8773  0.2240 -0.2444
14682TIP3   OH265460   4.427   3.418  11.593 -0.0024  0.5529  0.8267
14682TIP3    H165461   4.493   3.349  11.600 -1.9201 -1.3940  0.9747
14682TIP3    H265462   4.401   3.435  11.683 -1.9436 -1.0909  0.6394
14683TIP3   OH265463   1.546   5.177  16.734 -0.1312 -0.0736  0.2863
14683TIP3    H165464   1.466   5.132  16.707 -1.4824  2.4913 -0.2834
14683TIP3    H265465   1.548   5.257  16.682  2.2549  0.4862  1.0947
14684TIP3   OH265466   3.160   3.477   3.783  0.6025 -0.0598  0.3270
14684TIP3    H165467   3.119   3.514   3.705 -1.7222 -0.9413  1.0520
14684TIP3    H265468   3.240   3.528   3.794 -0.2973  1.8100 -1.1604
14685TIP3   OH265469   4.193   0.052   0.810 -0.5753 -0.4281 -0.5552
14685TIP3    H165470   4.125  -0.008   0.843 -0.5683 -1.1827 -1.8348
14685TIP3    H265471   4.245   0.074   0.887 -0.3707 -2.3556 -0.0941
14686TIP3   OH265472   6.726   5.664  14.012 -0.1578  0.1672 -0.0215
14686TIP3    H165473   6.746   5.610  13.935  0.0259 -0.3233  0.3657
14686TIP3    H265474   6.732   5.754  13.980 -1.4057 -0.0402 -0.9101
14687TIP3   OH265475   3.781   3.235   4.099 -0.1034  0.4952  0.1385
14687TIP3    H165476   3.698   3.219   4.054 -0.6088  1.6567  0.6035
14687TIP3    H265477   3.804   3.151   4.139 -0.1611 -0.2876 -1.4092
14688TIP3   OH265478   5.618   2.285   5.870 -0.3715  0.1026  0.1720
14688TIP3    H165479   5.555   2.274   5.941  0.5479 -2.9508  0.6495
14688TIP3    H265480   5.669   2.362   5.895 -2.1987  1.0663  1.0986
14689TIP3   OH265481   2.030   6.290  16.974 -0.1273 -0.2387  0.3050
14689TIP3    H165482   2.100   6.350  16.950 -2.2225  2.3343  0.0676
14689TIP3    H265483   2.006   6.245  16.893 -2.0337  2.6910 -0.9179
14690TIP3   OH265484   4.365   0.357   3.505 -0.1527  0.7343  0.5143
14690TIP3    H165485   4.332   0.268   3.490  2.3984 -0.1092 -0.6850
14690TIP3    H265486   4.380   0.361   3.599 -1.0774  0.2068  0.6977
14691TIP3   OH265487   4.542   3.503  10.738  0.0099  0.0253 -0.2283
14691TIP3    H165488   4.598   3.579  10.719 -1.0232  0.3793 -2.0029
14691TIP3    H265489   4.600   3.443  10.785  0.8672  1.8731  1.2547
14692TIP3   OH265490   4.620   1.842   6.263 -0.7494 -0.0299  0.1861
14692TIP3    H165491   4.622   1.902   6.338 -1.2571  0.9485 -0.5670
14692TIP3    H265492   4.681   1.880   6.200  2.5520 -2.7568  1.4440
14693TIP3   OH265493   1.906   0.300  16.403  0.0541  0.2262  0.0720
14693TIP3    H165494   1.917   0.252  16.485  0.2588 -0.5746 -0.4177
14693TIP3    H265495   1.989   0.288  16.356 -0.2423  0.2557 -0.4740
14694TIP3   OH265496   5.755   1.968   4.137  0.1039 -0.0550  0.6964
14694TIP3    H165497   5.665   1.941   4.153 -0.2417 -0.0337 -1.0684
14694TIP3    H265498   5.752   2.016   4.055  1.0543  3.6040  2.6030
14695TIP3   OH265499   4.086   3.915   4.483  0.5187 -1.1289  0.3209
14695TIP3    H165500   4.018   3.860   4.524 -0.2347  0.9731  2.0762
14695TIP3    H265501   4.040   3.996   4.459  2.0255 -0.4009 -0.2246
14696TIP3   OH265502   1.332   2.533  14.566  0.2699 -0.0840  0.2669
14696TIP3    H165503   1.330   2.609  14.507 -0.3860 -0.4227 -0.1536
14696TIP3    H265504   1.340   2.571  14.653 -1.4715  0.5420  0.1961
14697TIP3   OH265505   1.279   3.608  17.010 -0.1240  0.0316  0.5826
14697TIP3    H165506   1.266   3.587  16.918  0.0142 -0.2815  0.6328
14697TIP3    H265507   1.272   3.703  17.014 -0.9748 -0.0070  0.3789
14698TIP3   OH265508   4.243   1.858  13.844  0.3810 -0.8047 -0.4777
14698TIP3    H165509   4.310   1.831  13.782 -0.5571 -1.0437 -1.4276
14698TIP3    H265510   4.267   1.947  13.869  0.6414 -0.6103 -1.3894
14699TIP3   OH265511   1.448   1.289  13.510 -0.3917 -0.1460 -0.3033
14699TIP3    H165512   1.525   1.329  13.470  0.6892 -0.9057  0.9086
14699TIP3    H265513   1.384   1.360  13.517  0.7835  0.9098  0.1091
14700TIP3   OH265514   4.306   0.654   4.954  0.2649 -0.1986 -0.5158
14700TIP3    H165515   4.279   0.574   4.998  0.4965  0.3553  0.6733
14700TIP3    H265516   4.397   0.668   4.982 -0.1365  1.0857  0.2470
14701TIP3   OH265517   5.640   1.703  15.940  0.1777  0.5608  0.0543
14701TIP3    H165518   5.719   1.649  15.944  0.7411  1.1458 -1.9324
14701TIP3    H265519   5.673   1.793  15.947 -0.3649  0.7803 -0.1717
14702TIP3   OH265520   4.088   5.172  12.245 -0.1558 -0.1201 -0.4649
14702TIP3    H165521   4.066   5.105  12.310 -1.1686  0.5000 -0.1556
14702TIP3    H265522   4.017   5.236  12.251 -0.7743 -0.5006 -2.8376
14703TIP3   OH265523   6.412   2.182   5.828 -0.2909  0.4761 -0.1288
14703TIP3    H165524   6.317   2.189   5.839 -0.4787  0.4281 -1.4888
14703TIP3    H265525   6.436   2.105   5.880 -1.1725 -0.1200 -0.5565
14704TIP3   OH265526   0.765   0.329  11.746  0.0872 -0.3184  0.3921
14704TIP3    H165527   0.782   0.235  11.742  2.4373 -0.0078  1.1936
14704TIP3    H265528   0.814   0.365  11.672 -2.6644  0.1458 -1.3531
14705TIP3   OH265529   3.734   6.371  15.596  0.0889  0.6031 -0.2030
14705TIP3    H165530   3.751   6.284  15.560 -0.3866  0.2094  0.4851
14705TIP3    H265531   3.639   6.382  15.588  0.0350  0.6912  0.5126
14706TIP3   OH265532   2.694   4.498  12.795  0.6768  0.0441 -0.1898
14706TIP3    H165533   2.740   4.531  12.872  1.4840 -0.9514 -0.2312
14706TIP3    H265534   2.602   4.519  12.811  0.9223  0.4700  0.7150
14707TIP3   OH265535   0.294   6.099  14.928 -0.1763  0.2474  0.0556
14707TIP3    H165536   0.329   6.018  14.890 -0.8345  1.1285 -2.6023
14707TIP3    H265537   0.371   6.154  14.943 -0.0168  0.5545 -1.7542
14708TIP3   OH265538   1.138   2.707  14.873 -1.1634  0.0252  0.0308
14708TIP3    H165539   1.055   2.692  14.829 -1.6384  2.2759  0.0446
14708TIP3    H265540   1.114   2.730  14.963 -0.6428  1.7598 -0.2365
14709TIP3   OH265541   3.269   6.211   2.685  0.2509 -0.0362  0.1211
14709TIP3    H165542   3.251   6.180   2.596  0.7728 -0.6138  0.2149
14709TIP3    H265543   3.182   6.233   2.721  0.0081 -0.1173 -0.4089
14710TIP3   OH265544   6.478   6.248  14.642 -0.2501 -0.1134  0.3413
14710TIP3    H165545   6.515   6.264  14.729 -1.4890  0.1668  0.8254
14710TIP3    H265546   6.520   6.314  14.586  0.4445 -0.2058  0.7379
14711TIP3   OH265547   6.393   0.667   3.976 -0.0660  0.0777  0.7323
14711TIP3    H165548   6.455   0.735   3.950  0.0185 -0.7512 -1.3834
14711TIP3    H265549   6.319   0.677   3.916 -1.1433 -0.1841  1.9645
14712TIP3   OH265550   4.544   1.927  15.923  0.3288  0.4183 -0.2570
14712TIP3    H165551   4.532   1.889  15.836  1.7515  0.6207 -0.5734
14712TIP3    H265552   4.559   1.852  15.981 -2.8113  0.0896  0.3006
14713TIP3   OH265553   1.140   2.627  16.578 -0.0199  0.3008 -0.3474
14713TIP3    H165554   1.093   2.560  16.627  1.5159 -1.1304 -0.7302
14713TIP3    H265555   1.072   2.671  16.526 -0.8631 -2.4285 -1.7602
14714TIP3   OH265556   0.783   1.119   1.107  0.7115 -0.2339  0.0404
14714TIP3    H165557   0.876   1.098   1.119  0.5674 -1.1101 -0.3132
14714TIP3    H265558   0.743   1.036   1.081 -0.3716 -0.1264  1.2811
14715TIP3   OH265559   5.340   2.028   2.054 -0.3574 -0.1981 -0.3325
14715TIP3    H165560   5.415   2.030   1.995 -0.1350  1.1195 -0.0261
14715TIP3    H265561   5.339   1.938   2.087  2.0974  0.1397  0.9057
14716TIP3   OH265562   3.129   2.755  17.122  0.1490  0.2233  0.8700
14716TIP3    H165563   3.059   2.701  17.160  0.5853 -0.4434  0.7359
14716TIP3    H265564   3.128   2.733  17.029  2.4050 -1.9857  1.2660
14717TIP3   OH265565   3.289   1.790  15.291  0.3119 -0.5940 -0.2870
14717TIP3    H165566   3.239   1.759  15.215  0.3107 -0.1730 -0.4634
14717TIP3    H265567   3.245   1.871  15.315  0.2917 -0.7473  0.1897
14718TIP3   OH265568   3.331   2.609   3.144 -0.8954 -0.1506  0.5165
14718TIP3    H165569   3.392   2.657   3.088  0.0363 -0.2595  1.4118
14718TIP3    H265570   3.279   2.557   3.083  0.5873 -0.8281 -0.2209
14719TIP3   OH265571   4.586   6.199  13.742  0.0564 -0.5187  0.3450
14719TIP3    H165572   4.509   6.190  13.799  0.3951 -0.0938  0.8775
14719TIP3    H265573   4.551   6.186  13.654 -0.3973 -1.6393  0.6667
14720TIP3   OH265574   4.301   4.442   4.642 -0.1912 -0.4294 -0.3839
14720TIP3    H165575   4.386   4.462   4.681 -1.1272 -0.8866  2.0432
14720TIP3    H265576   4.311   4.353   4.609  0.3737 -0.3493 -0.4452
14721TIP3   OH265577   3.826   6.636   2.703 -0.0987  0.3665 -0.5860
14721TIP3    H165578   3.768   6.702   2.741  0.9344  1.2655 -0.5306
14721TIP3    H265579   3.828   6.656   2.609  1.6259  1.5854 -0.3317
14722TIP3   OH265580   2.662   5.872   1.484 -0.3631  0.6531 -0.0961
14722TIP3    H165581   2.605   5.815   1.536 -1.3486  0.8099 -0.9745
14722TIP3    H265582   2.642   5.851   1.393  3.7086 -2.0526 -0.6363
14723TIP3   OH265583   5.857   3.703   2.890 -0.1309 -0.0500  0.4377
14723TIP3    H165584   5.848   3.705   2.985  1.0281 -0.4517  0.5705
14723TIP3    H265585   5.924   3.770   2.871  0.5863 -0.8637  0.0430
14724TIP3   OH265586   5.322   5.542   2.578  0.1151  0.1879 -0.0050
14724TIP3    H165587   5.281   5.457   2.565  0.5028 -0.1617  0.9693
14724TIP3    H265588   5.348   5.570   2.489 -1.2115 -0.0746 -0.4904
14725TIP3   OH265589   5.754   2.819   1.950 -0.4728 -0.2718 -0.0939
14725TIP3    H165590   5.769   2.785   1.861  2.1298  1.2385 -0.3467
14725TIP3    H265591   5.662   2.845   1.950 -1.1428 -2.3242 -1.5836
14726TIP3   OH265592   5.206   0.962  14.752  0.1781 -0.3293  0.0617
14726TIP3    H165593   5.135   0.973  14.815  0.5868 -1.4039  0.7375
14726TIP3    H265594   5.165   0.920  14.676 -0.2871  0.8474 -0.3730
14727TIP3   OH265595   0.160   0.582  14.406 -0.3322 -0.3171  0.1351
14727TIP3    H165596   0.072   0.547  14.418 -1.0648  1.4818  0.2925
14727TIP3    H265597   0.168   0.651  14.472  0.5338  0.7325 -1.0127
14728TIP3   OH265598   0.696   1.404  13.509 -0.0115  0.4436  0.0134
14728TIP3    H165599   0.718   1.329  13.453  0.9092  0.5323  0.2450
14728TIP3    H265600   0.773   1.417  13.563 -1.6235 -1.0539  2.9282
14729TIP3   OH265601   2.335   2.562  11.723 -0.0248  0.5282 -0.0121
14729TIP3    H165602   2.359   2.597  11.809  0.6853 -3.0970  1.4383
14729TIP3    H265603   2.251   2.519  11.737  0.2473 -0.3842 -1.0408
14730TIP3   OH265604   2.615   4.497  16.464  0.0316  0.3497  0.1536
14730TIP3    H165605   2.601   4.512  16.371 -1.0828  1.3134  0.4527
14730TIP3    H265606   2.568   4.568  16.507 -1.5972 -1.4650  1.5496
14731TIP3   OH265607   2.892   1.832  14.949 -0.3502 -0.0800 -0.2003
14731TIP3    H165608   2.907   1.919  14.986  0.1985 -0.5771  0.7736
14731TIP3    H265609   2.898   1.773  15.024 -1.9147 -0.8477 -0.6419
14732TIP3   OH265610   3.266   6.082  13.359 -0.2617  0.0351  0.6646
14732TIP3    H165611   3.199   6.018  13.382 -0.9978 -0.3077 -2.0503
14732TIP3    H265612   3.311   6.044  13.283 -0.2211  2.3223 -0.5640
14733TIP3   OH265613   3.434   6.006  15.546 -0.3966 -0.0057 -0.0290
14733TIP3    H165614   3.462   6.072  15.609  2.4969 -0.2612 -0.8520
14733TIP3    H265615   3.513   5.953  15.532 -2.2768 -2.9311 -0.2826
14734TIP3   OH265616   3.811   2.237  15.650  0.2891 -0.0167 -0.4717
14734TIP3    H165617   3.859   2.288  15.716  1.1043  0.2892 -1.2819
14734TIP3    H265618   3.853   2.259  15.567 -1.6756  0.7635 -1.3215
14735TIP3   OH265619   1.980   6.062  12.763  0.2608 -0.0121 -0.2293
14735TIP3    H165620   2.056   6.119  12.772 -0.5991  1.3410 -1.2927
14735TIP3    H265621   1.998   5.989  12.823  1.9828  0.7023  0.1780
14736TIP3   OH265622   4.290   5.833   3.691  0.0475 -0.0471  0.0615
14736TIP3    H165623   4.311   5.891   3.764 -1.2265  2.2563 -1.2843
14736TIP3    H265624   4.199   5.808   3.705  0.1695 -0.6184 -0.1034
14737TIP3   OH265625   3.085   0.554   0.133  0.0104 -0.3571 -0.4309
14737TIP3    H165626   3.127   0.639   0.121 -0.7125 -0.0126 -0.5471
14737TIP3    H265627   3.128   0.496   0.069 -0.0712  0.1239 -0.9251
14738TIP3   OH265628   4.539   5.930  12.156  0.7350 -0.1069  0.2599
14738TIP3    H165629   4.450   5.965  12.155  1.2380  1.1975 -0.5884
14738TIP3    H265630   4.534   5.855  12.216 -0.7237  0.4779  0.9209
14739TIP3   OH265631   5.010   0.550  15.185 -0.6376  0.3590  0.2962
14739TIP3    H165632   5.076   0.597  15.236  0.0242 -0.2460  0.0233
14739TIP3    H265633   5.059   0.515  15.110 -1.1689 -0.5079  0.3472
14740TIP3   OH265634   6.004   4.302  13.444 -0.0591 -0.3664 -0.1106
14740TIP3    H165635   6.082   4.280  13.496 -0.5955  1.2535  1.5045
14740TIP3    H265636   6.037   4.348  13.367  0.7307 -2.4228 -1.0643
14741TIP3   OH265637   6.225   2.058  10.419  0.1584 -0.4166  0.0176
14741TIP3    H165638   6.320   2.066  10.412  0.0254  0.6758 -0.7525
14741TIP3    H265639   6.193   2.148  10.417 -0.8865 -0.7512  0.5904
14742TIP3   OH265640   6.557   4.223  13.735 -0.0327 -0.0281 -0.2693
14742TIP3    H165641   6.626   4.283  13.763 -0.9244  1.6754 -1.5100
14742TIP3    H265642   6.497   4.220  13.809  1.6214 -2.0977  1.1178
14743TIP3   OH265643   0.486   0.740   5.610  0.0824  0.0328  0.1210
14743TIP3    H165644   0.415   0.760   5.549  1.0952  0.2976 -1.0140
14743TIP3    H265645   0.480   0.645   5.624 -0.5593  0.0724  0.1482
14744TIP3   OH265646   6.136   5.864   4.197 -0.6770  0.6275  0.6459
14744TIP3    H165647   6.076   5.792   4.220  0.7030 -0.7929  0.0005
14744TIP3    H265648   6.151   5.909   4.279 -1.7195  0.3091  1.0384
14745TIP3   OH265649   6.536   4.306  13.206  0.5190  0.4220  0.6789
14745TIP3    H165650   6.573   4.376  13.260  1.2331  1.2125 -0.7817
14745TIP3    H265651   6.506   4.241  13.269 -1.9031  2.8248  2.2199
14746TIP3   OH265652   6.441   0.760  14.147  0.1623 -0.1817  0.8889
14746TIP3    H165653   6.495   0.817  14.092  0.6605 -1.3429  0.1259
14746TIP3    H265654   6.503   0.694  14.180 -0.7706 -1.6378 -0.1330
14747TIP3   OH265655   2.476   4.926   2.696 -0.2945  0.2231  0.0518
14747TIP3    H165656   2.559   4.908   2.651  0.6438 -1.1431  2.1148
14747TIP3    H265657   2.414   4.863   2.659  0.2301 -0.3155  0.0657
14748TIP3   OH265658   6.079   1.892  16.038 -0.7337 -0.5692 -0.0318
14748TIP3    H165659   6.035   1.959  15.986  1.8264  0.9778 -0.3723
14748TIP3    H265660   6.045   1.809  16.003 -1.4285  0.4719 -2.0075
14749TIP3   OH265661   5.222   4.685  14.787  0.0664  0.7038 -0.0283
14749TIP3    H165662   5.313   4.711  14.798  0.0134  0.4820  1.0936
14749TIP3    H265663   5.226   4.592  14.765  0.1207  0.7710 -0.3048
14750TIP3   OH265664   0.168   5.785  16.367  0.7073  0.3199 -0.1546
14750TIP3    H165665   0.263   5.778  16.362  0.6295 -0.9078 -0.3842
14750TIP3    H265666   0.137   5.694  16.365 -0.5210  0.7260 -1.2756
14751TIP3   OH265667   2.391   1.007   2.124 -0.2897 -0.3750 -0.2588
14751TIP3    H165668   2.366   0.966   2.041 -1.2262 -0.9335  0.2801
14751TIP3    H265669   2.444   0.941   2.168  2.1184  0.7377 -1.3163
14752TIP3   OH265670   6.306   3.959  12.922 -0.3039  0.0983 -0.2602
14752TIP3    H165671   6.306   3.910  12.840 -0.5194  1.9262 -1.4344
14752TIP3    H265672   6.228   4.014  12.916  0.8899  1.9136  0.0720
14753TIP3   OH265673   2.609   6.508   4.877 -0.0548 -0.5012 -0.2140
14753TIP3    H165674   2.675   6.482   4.813  1.0177  1.4737  0.0167
14753TIP3    H265675   2.585   6.597   4.853 -2.7731 -1.1688 -0.3351
14754TIP3   OH265676   3.486   3.966   1.117  0.0900 -0.3447 -0.2804
14754TIP3    H165677   3.426   3.984   1.189 -1.1896 -1.9568 -0.8904
14754TIP3    H265678   3.522   3.880   1.137 -0.0999 -0.7069 -1.4501
14755TIP3   OH265679   0.386   1.439   1.389 -0.1117 -0.1172  0.5547
14755TIP3    H165680   0.295   1.463   1.406 -0.5590 -1.1853 -0.2103
14755TIP3    H265681   0.421   1.513   1.339 -0.9194 -0.2209 -0.1814
14756TIP3   OH265682   0.830   3.301  11.574  0.2165 -0.7598  0.2499
14756TIP3    H165683   0.800   3.340  11.657 -0.5088 -0.9621  0.0916
14756TIP3    H265684   0.924   3.320  11.572  0.2245 -0.6415  1.0582
14757TIP3   OH265685   1.422   1.454   3.013 -0.2772 -0.2232 -0.5912
14757TIP3    H165686   1.400   1.429   2.923 -1.3126  1.2592 -0.7771
14757TIP3    H265687   1.387   1.383   3.067 -0.9782 -0.3934 -1.2540
14758TIP3   OH265688   1.674   3.809   4.980 -0.0391 -0.1108 -0.8369
14758TIP3    H165689   1.763   3.786   4.952  0.2506  0.0721 -0.0833
14758TIP3    H265690   1.668   3.775   5.070 -0.4424  0.6247 -0.5841
14759TIP3   OH265691   6.007   5.265  17.070 -0.3878  0.2148 -0.0085
14759TIP3    H165692   6.081   5.311  17.109 -1.2894  1.3750  0.3766
14759TIP3    H265693   6.047   5.209  17.003  0.9754 -0.2834  1.1767
14760TIP3   OH265694   2.634   5.261  12.547  0.4267 -0.1928  0.0940
14760TIP3    H165695   2.615   5.249  12.640  0.1778  0.7010  0.1631
14760TIP3    H265696   2.610   5.177  12.507 -0.6777 -0.1628  0.6522
14761TIP3   OH265697   5.974   1.944   0.158  0.4977  0.3867 -0.1949
14761TIP3    H165698   5.899   1.984   0.202  0.1613  0.7644 -1.0927
14761TIP3    H265699   5.954   1.851   0.157 -0.1258  0.5184 -0.7139
14762TIP3   OH265700   0.041   1.268   3.629  0.0333 -0.1113 -0.2127
14762TIP3    H165701   0.019   1.335   3.694  0.7282  0.3389 -0.4275
14762TIP3    H265702   0.061   1.317   3.549  1.3575 -0.5025 -0.1497
14763TIP3   OH265703   4.998   5.494   5.891 -0.3472  0.7214 -1.0479
14763TIP3    H165704   4.972   5.538   5.972  2.7606  1.3822 -0.2942
14763TIP3    H265705   4.927   5.513   5.829 -1.8150  1.9338  0.9039
14764TIP3   OH265706   0.052   5.758  15.686 -0.0025 -0.2375  0.4825
14764TIP3    H165707   0.052   5.801  15.771 -0.6103  0.9052 -0.0697
14764TIP3    H265708   0.104   5.678  15.699 -0.1157 -0.1015  1.9152
14765TIP3   OH265709   3.057   5.003  11.719  0.2137  0.2596  0.1274
14765TIP3    H165710   3.030   4.969  11.804 -1.0645 -1.2615 -0.8293
14765TIP3    H265711   2.985   5.060  11.692 -0.4332 -0.9630 -0.8451
14766TIP3   OH265712   0.492   4.756   5.363  0.2216 -0.4380 -0.4823
14766TIP3    H165713   0.538   4.790   5.286  1.1888  0.1189  0.3129
14766TIP3    H265714   0.520   4.813   5.435  2.0161 -2.9220  0.9506
14767TIP3   OH265715   4.875   3.756   3.312  0.1674 -0.2783 -0.2662
14767TIP3    H165716   4.932   3.784   3.384 -0.3318  2.3073 -0.7743
14767TIP3    H265717   4.889   3.822   3.244 -0.3711 -1.9129 -2.0493
14768TIP3   OH265718   4.553   4.844   5.475 -0.0642  0.3204  0.5540
14768TIP3    H165719   4.594   4.889   5.401 -0.8217 -0.7032 -0.5044
14768TIP3    H265720   4.626   4.804   5.522  0.2100 -2.2876 -1.8346
14769TIP3   OH265721   3.886   4.795  15.594 -0.0104  0.4858 -0.4917
14769TIP3    H165722   3.824   4.784  15.522 -0.7413  0.0486  0.1820
14769TIP3    H265723   3.943   4.867  15.567  1.3021 -1.2363 -2.5658
14770TIP3   OH265724   4.058   4.945   4.533  0.0327 -0.2786  0.5563
14770TIP3    H165725   4.106   4.872   4.571 -1.1334 -0.0487  2.6091
14770TIP3    H265726   4.124   4.994   4.484  1.1700 -1.7834  0.5199
14771TIP3   OH265727   0.128   4.070  14.531 -0.1599 -0.6204 -0.2242
14771TIP3    H165728   0.094   4.153  14.497 -0.4646 -0.3043  0.8092
14771TIP3    H265729   0.162   4.025  14.454 -0.1447  0.3899 -0.8327
14772TIP3   OH265730   0.742   1.598   1.214  0.2210  0.0509  0.0134
14772TIP3    H165731   0.778   1.595   1.303  0.2580 -0.8761 -0.0181
14772TIP3    H265732   0.664   1.543   1.218 -1.2754  2.0733  0.0884
14773TIP3   OH265733   3.098   1.180  11.406 -0.7228  0.1818 -0.3378
14773TIP3    H165734   3.067   1.091  11.423 -1.1739  0.3377 -0.3449
14773TIP3    H265735   3.139   1.174  11.319  1.5467 -0.6024  0.6919
14774TIP3   OH265736   6.726   5.569  15.382  0.1336 -0.4541 -0.4176
14774TIP3    H165737   6.773   5.534  15.458 -0.4876 -1.1402 -0.3492
14774TIP3    H265738   6.696   5.492  15.334 -1.0424 -0.0295 -0.3922
14775TIP3   OH265739   2.708   3.465  15.500 -0.1173 -0.6149 -0.5748
14775TIP3    H165740   2.712   3.455  15.405 -0.3820 -0.2198 -0.6316
14775TIP3    H265741   2.782   3.522  15.521 -1.4162  1.2498 -0.8373
14776TIP3   OH265742   4.030   4.566  13.449  0.1349 -0.2103  0.2004
14776TIP3    H165743   3.947   4.578  13.494 -0.3408  1.5634 -1.0165
14776TIP3    H265744   4.012   4.499  13.383 -0.5229  0.5491 -0.4149
14777TIP3   OH265745   2.406   5.330   5.806 -0.0009 -0.2446 -0.1763
14777TIP3    H165746   2.369   5.242   5.795 -0.3313  0.0369 -1.5839
14777TIP3    H265747   2.469   5.339   5.734  0.2665  0.5492  0.1413
14778TIP3   OH265748   5.865   3.739  17.127  0.1391  0.4606  0.1807
14778TIP3    H165749   5.802   3.733  17.198 -0.3699  1.0266 -0.2226
14778TIP3    H265750   5.863   3.830  17.099  1.1537  0.4972  0.1742
14779TIP3   OH265751   0.539   2.441  14.188 -0.1010  0.3114 -0.0231
14779TIP3    H165752   0.498   2.387  14.120 -0.7597 -1.1468  1.4554
14779TIP3    H265753   0.607   2.384  14.225  2.5039  2.2110 -1.5455
14780TIP3   OH265754   6.270   6.705   3.883  0.2683 -0.1400 -0.1475
14780TIP3    H165755   6.304   6.792   3.901 -0.7363  0.0618  0.8516
14780TIP3    H265756   6.249   6.669   3.969 -1.9650 -0.2811 -0.7012
14781TIP3   OH265757   5.232   6.171   0.442 -0.0889 -0.2155  0.3836
14781TIP3    H165758   5.169   6.205   0.505 -0.2464 -0.0486  0.1379
14781TIP3    H265759   5.179   6.132   0.373 -0.0301  2.0562 -1.0500
14782TIP3   OH265760   5.899   1.561   1.381  0.1378 -0.3474  0.4724
14782TIP3    H165761   5.979   1.520   1.413  0.2394  0.7742  1.7158
14782TIP3    H265762   5.922   1.595   1.295  1.0228  0.0573  0.8683
14783TIP3   OH265763   4.358   0.899  14.562 -0.0702 -0.2863 -0.7675
14783TIP3    H165764   4.286   0.857  14.516  0.2818 -1.0492 -0.6323
14783TIP3    H265765   4.423   0.917  14.494  0.3575 -1.2150 -0.6121
14784TIP3   OH265766   4.054   0.141   4.023  0.9687  0.2610 -0.3858
14784TIP3    H165767   4.017   0.057   4.048  0.3325  0.6255 -0.0813
14784TIP3    H265768   4.001   0.170   3.949  0.0730  1.1777  0.5785
14785TIP3   OH265769   2.426   2.262   6.137  0.1686 -0.6953  0.3902
14785TIP3    H165770   2.514   2.239   6.167  1.1515  2.8727  0.7940
14785TIP3    H265771   2.395   2.326   6.201 -3.2803 -2.5730  0.8422
14786TIP3   OH265772   4.947   2.526  11.083  0.0884 -0.0859  0.2037
14786TIP3    H165773   4.909   2.613  11.071 -0.3399 -0.1110  1.2781
14786TIP3    H265774   4.916   2.475  11.008 -0.8014  0.3024  0.2987
14787TIP3   OH265775   3.001   1.558  16.951 -0.1537  0.5372  0.1839
14787TIP3    H165776   3.071   1.513  16.999  0.2419  0.3971 -0.5049
14787TIP3    H265777   3.046   1.626  16.901 -0.3512 -0.2320 -1.0868
14788TIP3   OH265778   0.350   0.180  16.408 -0.4254  0.3273  0.2017
14788TIP3    H165779   0.290   0.231  16.354  0.7977  0.1834 -1.3845
14788TIP3    H265780   0.376   0.107  16.352  0.9120  0.1808  0.9734
14789TIP3   OH265781   4.907   5.445   2.783  0.1609 -0.5454  0.1647
14789TIP3    H165782   4.862   5.453   2.867 -0.7554  1.0694 -0.4267
14789TIP3    H265783   4.990   5.491   2.795  1.9209 -3.7403  1.3335
14790TIP3   OH265784   3.875   1.803  14.455 -0.5405  0.1682  0.2400
14790TIP3    H165785   3.780   1.801  14.443 -0.7268 -1.0389  1.6364
14790TIP3    H265786   3.898   1.714  14.481  0.9556  0.5070  0.1643
14791TIP3   OH265787   1.222   3.656  10.774  0.3588  0.6483 -0.1357
14791TIP3    H165788   1.314   3.681  10.788  0.7204 -0.8114  0.2394
14791TIP3    H265789   1.217   3.565  10.801 -1.0481  0.4698 -0.8715
14792TIP3   OH265790   1.613   4.551  16.940 -0.2535 -0.0189 -0.6706
14792TIP3    H165791   1.625   4.478  17.000 -1.0687  0.4457  0.0944
14792TIP3    H265792   1.673   4.534  16.868  0.9560 -0.4704  0.3943
14793TIP3   OH265793   5.156   3.581   0.614 -0.0222 -0.3003 -0.0864
14793TIP3    H165794   5.204   3.664   0.619  0.9412 -0.7767 -1.1507
14793TIP3    H265795   5.110   3.585   0.530  1.6970 -1.6897 -1.1578
14794TIP3   OH265796   3.715   3.589  15.708  0.3669 -0.1504  0.1310
14794TIP3    H165797   3.685   3.680  15.707  0.8396  0.0613  1.6256
14794TIP3    H265798   3.696   3.560  15.798  0.6845 -1.3647 -0.1851
14795TIP3   OH265799   0.421   5.803   0.073  0.0415  0.6371  0.3667
14795TIP3    H165800   0.516   5.814   0.058 -0.0464 -0.5291 -1.3695
14795TIP3    H265801   0.381   5.856   0.004 -0.5549  0.6500  0.7273
14796TIP3   OH265802   2.791   3.831  16.078  0.4386 -0.1362  0.2181
14796TIP3    H165803   2.778   3.920  16.111 -0.4036 -0.9281  2.1496
14796TIP3    H265804   2.720   3.819  16.015 -0.4476  0.0126  1.1662
14797TIP3   OH265805   5.120   3.655  12.160 -0.1559 -0.1968 -0.4597
14797TIP3    H165806   5.085   3.736  12.198 -2.1470 -1.8792  1.5785
14797TIP3    H265807   5.191   3.629  12.220 -0.3382 -0.5677 -0.3989
14798TIP3   OH265808   2.060   4.383  15.291  0.1478 -0.1795  0.1138
14798TIP3    H165809   2.023   4.376  15.379  0.3356 -0.3241  0.1812
14798TIP3    H265810   2.097   4.471  15.288  0.0799 -0.1491  0.1552
14799TIP3   OH265811   6.681   2.239   0.134  0.0141  0.0366 -0.1895
14799TIP3    H165812   6.615   2.178   0.168  0.8891 -0.9692 -0.2520
14799TIP3    H265813   6.698   2.298   0.207  0.5523 -0.9885  0.5325
14800TIP3   OH265814   5.351   2.894   1.391  0.5016  0.2407  0.0397
14800TIP3    H165815   5.348   2.954   1.316 -1.0808  0.1403  0.0047
14800TIP3    H265816   5.365   2.951   1.466 -0.3109  0.6047 -0.0727
14801TIP3   OH265817   0.690   1.038   3.461  0.1397  0.0336  0.7714
14801TIP3    H165818   0.673   1.109   3.523 -0.1502 -0.4854  1.3028
14801TIP3    H265819   0.785   1.026   3.462  0.4094  1.6315 -0.7171
14802TIP3   OH265820   2.911   2.393   3.646  0.4645  0.1617 -0.2612
14802TIP3    H165821   2.995   2.439   3.651  0.5920 -0.1433  0.6687
14802TIP3    H265822   2.934   2.307   3.609  0.3146  0.6050 -1.4409
14803TIP3   OH265823   1.930   5.805   1.146  0.8959 -0.2423 -0.4398
14803TIP3    H165824   2.025   5.816   1.137  0.9819 -0.8714 -0.3844
14803TIP3    H265825   1.902   5.767   1.063  0.9742 -1.6821  0.1522
14804TIP3   OH265826   2.605   0.104  16.543  0.9936  0.2766  0.5155
14804TIP3    H165827   2.695   0.139  16.543  0.8375  0.7244 -0.7281
14804TIP3    H265828   2.564   0.144  16.467  0.1128 -0.9180  0.3436
14805TIP3   OH265829   2.647   1.203   0.490  0.5221  0.1334  0.4600
14805TIP3    H165830   2.651   1.151   0.571 -0.0247 -0.6298  0.0003
14805TIP3    H265831   2.554   1.223   0.479  0.6734  0.8112  0.3745
14806TIP3   OH265832   4.237   4.175   1.583  0.2111  0.8028 -0.3595
14806TIP3    H165833   4.284   4.225   1.650 -1.3733  1.2244  0.5023
14806TIP3    H265834   4.305   4.139   1.526  1.6635  0.1007  1.7098
14807TIP3   OH265835   5.762   5.882  16.012 -0.0630  0.3621  0.4148
14807TIP3    H165836   5.801   5.969  16.018  1.7996 -0.1873 -2.0405
14807TIP3    H265837   5.671   5.894  16.036  0.5246  2.6478  1.7502
14808TIP3   OH265838   1.596   2.882   5.287  0.1524  0.4307 -0.6442
14808TIP3    H165839   1.681   2.844   5.265  0.1435  0.0969 -0.1263
14808TIP3    H265840   1.572   2.839   5.369 -0.7865  0.0951 -1.0831
14809TIP3   OH265841   0.357   2.449   2.698  0.0062 -0.7787  0.1821
14809TIP3    H165842   0.450   2.434   2.719  0.6365  1.6503 -0.6335
14809TIP3    H265843   0.343   2.542   2.716 -1.9302 -0.7902 -1.0209
14810TIP3   OH265844   2.498   4.235   0.233  0.1445 -0.0351 -0.0231
14810TIP3    H165845   2.576   4.254   0.181 -0.2492  0.7221 -0.3667
14810TIP3    H265846   2.474   4.146   0.209  0.6271 -0.0999 -0.2806
14811TIP3   OH265847   3.515   0.856  12.494  0.5023 -0.3422 -0.1855
14811TIP3    H165848   3.423   0.833  12.508  0.0567  1.3580 -0.1082
14811TIP3    H265849   3.560   0.827  12.573  0.2982 -2.4055 -0.7832
14812TIP3   OH265850   6.085   0.225  14.006  0.6046 -0.2592 -0.0573
14812TIP3    H165851   6.106   0.290  13.939 -2.3265 -1.1968 -2.0694
14812TIP3    H265852   6.146   0.153  13.989  0.6831 -0.0014 -0.9206
14813TIP3   OH265853   3.999   5.290  17.163  0.8138  0.1566  0.6732
14813TIP3    H165854   4.052   5.265  17.088  2.3449 -0.6658  1.9704
14813TIP3    H265855   3.942   5.360  17.131  1.3156 -0.2819 -1.2596
14814TIP3   OH265856   0.429   2.353  14.970  0.5403  0.0057 -0.0695
14814TIP3    H165857   0.480   2.434  14.961  1.5018 -0.5930 -0.1201
14814TIP3    H265858   0.414   2.325  14.880 -1.4749  1.1262 -0.1362
14815TIP3   OH265859   1.584   2.441   2.540 -0.8219 -0.1532  0.0765
14815TIP3    H165860   1.665   2.418   2.495 -0.4532 -2.0269  1.5850
14815TIP3    H265861   1.598   2.532   2.569 -0.0417  0.1824 -1.2594
14816TIP3   OH265862   4.956   0.723   1.042  0.2560 -0.1878  0.1164
14816TIP3    H165863   4.957   0.627   1.038 -1.2850 -0.1977 -0.7251
14816TIP3    H265864   4.863   0.745   1.055  0.3560  1.2320 -1.3414
14817TIP3   OH265865   4.803   0.916  14.774 -0.2345  0.5099 -0.6757
14817TIP3    H165866   4.726   0.953  14.817  0.7491  0.3449  1.3914
14817TIP3    H265867   4.874   0.978  14.794  0.5782 -0.3667 -0.7532
14818TIP3   OH265868   3.708   5.087   5.028  0.1516  0.0089 -0.2290
14818TIP3    H165869   3.728   5.178   5.049 -3.5261  0.8201  0.4977
14818TIP3    H265870   3.620   5.091   4.989  0.9576 -2.9939 -2.7335
14819TIP3   OH265871   1.901   4.190   0.232  0.1984  1.0486  0.4234
14819TIP3    H165872   1.921   4.225   0.318  1.6899  1.5769 -0.1083
14819TIP3    H265873   1.956   4.240   0.172 -0.8237  0.7041 -0.8485
14820TIP3   OH265874   2.519   4.771  15.917 -0.4091 -0.2874 -0.3701
14820TIP3    H165875   2.607   4.800  15.894 -0.8757  0.7440 -0.9841
14820TIP3    H265876   2.508   4.687  15.872  0.5089 -0.7837  0.3189
14821TIP3   OH265877   3.345   4.626  15.169 -0.2167 -0.1017 -0.2754
14821TIP3    H165878   3.259   4.661  15.194 -0.4910  0.0596 -1.3718
14821TIP3    H265879   3.366   4.673  15.088  0.7298 -0.4245 -0.2200
14822TIP3   OH265880   1.783   2.489   2.187  0.2717  0.2225 -0.2418
14822TIP3    H165881   1.788   2.453   2.275 -1.2499  0.2639 -0.1182
14822TIP3    H265882   1.692   2.515   2.176  0.3018 -0.2273 -2.0039
14823TIP3   OH265883   5.966   5.035   0.347 -0.2339 -0.6321 -0.0424
14823TIP3    H165884   5.979   5.129   0.363 -0.5594 -0.6987  0.6685
14823TIP3    H265885   5.902   5.009   0.413 -0.1446 -1.3603 -0.2398
14824TIP3   OH265886   0.798   1.147   2.357 -0.5953 -0.3310  0.1756
14824TIP3    H165887   0.804   1.051   2.355 -1.0340 -0.3561  0.0835
14824TIP3    H265888   0.810   1.170   2.449  1.9052 -0.3126 -0.0682
14825TIP3   OH265889   5.058   6.000  11.629 -0.2187 -0.1850  0.1747
14825TIP3    H165890   4.963   6.003  11.639 -0.4006 -3.4387  0.5062
14825TIP3    H265891   5.075   6.037  11.543 -1.6807  1.1228  0.4102
14826TIP3   OH265892   5.965   6.123  13.961  0.2137 -0.3123 -0.4270
14826TIP3    H165893   5.917   6.206  13.965 -1.5850 -1.3293  2.5517
14826TIP3    H265894   5.986   6.103  14.053 -0.1934 -3.5569 -0.9205
14827TIP3   OH265895   2.429   1.678   1.093 -0.6304 -0.4802  0.1718
14827TIP3    H165896   2.430   1.598   1.145 -0.6705 -0.9331 -0.5149
14827TIP3    H265897   2.487   1.660   1.020  1.5874  1.0880  1.4038
14828TIP3   OH265898   1.422   6.759   1.432 -0.3359 -0.2018  0.2085
14828TIP3    H165899   1.332   6.779   1.407 -0.4290  0.8356  1.2839
14828TIP3    H265900   1.463   6.728   1.351 -1.8992 -1.6454 -0.0773
14829TIP3   OH265901   6.701   4.993  13.145 -0.0970  0.2716  0.2405
14829TIP3    H165902   6.729   4.912  13.101 -1.5308  1.1827 -2.5932
14829TIP3    H265903   6.705   4.972  13.238  1.6851 -2.3268 -0.3036
14830TIP3   OH265904   6.134   0.540   1.220 -0.9265 -0.1173  0.1339
14830TIP3    H165905   6.070   0.492   1.273 -0.6123 -1.6284 -0.7834
14830TIP3    H265906   6.132   0.496   1.135  0.1603  0.8536 -0.4206
14831TIP3   OH265907   0.587   4.572   3.097  0.2087  0.3865  0.4205
14831TIP3    H165908   0.615   4.647   3.149  0.1290  0.6277  0.1134
14831TIP3    H265909   0.511   4.603   3.048  1.0860  0.5731 -0.8722
14832TIP3   OH265910   4.150   1.389  11.641 -0.2661 -0.3922  0.0162
14832TIP3    H165911   4.180   1.417  11.728 -0.0402  0.4204 -0.3171
14832TIP3    H265912   4.194   1.305  11.627  1.0028  0.2422  0.0155
14833TIP3   OH265913   0.728   0.833   2.192 -0.0643 -0.6802 -0.1126
14833TIP3    H165914   0.737   0.804   2.283  1.0914 -0.5470 -0.1695
14833TIP3    H265915   0.675   0.765   2.150 -0.7596 -0.6475  0.6944
14834TIP3   OH265916   1.050   3.377   3.137  0.4581  0.1405 -0.1102
14834TIP3    H165917   1.039   3.289   3.102  0.0890  0.0609  0.1988
14834TIP3    H265918   1.087   3.427   3.065 -0.8231  0.1177 -0.8014
14835TIP3   OH265919   0.859   6.307   4.873  0.1171  0.1573 -0.2329
14835TIP3    H165920   0.871   6.214   4.892 -1.5596 -0.0560 -0.0418
14835TIP3    H265921   0.850   6.311   4.778  0.4656  0.1668 -0.2668
14836TIP3   OH265922   0.043   6.355   0.671 -0.3548  0.2657  0.5720
14836TIP3    H165923   0.051   6.298   0.747 -1.8440  0.2206  0.7356
14836TIP3    H265924   0.083   6.306   0.599  1.4224  0.4718  1.3659
14837TIP3   OH265925   4.057   0.761  15.855  0.0342  0.1645  0.1043
14837TIP3    H165926   4.062   0.668  15.878  0.5128  0.1211 -0.1481
14837TIP3    H265927   3.985   0.795  15.908  1.4151  0.1951  2.1105
14838TIP3   OH265928   3.423   2.131  16.999 -0.8488  0.2307 -0.4688
14838TIP3    H165929   3.389   2.074  16.930 -2.0505 -1.9429  1.7417
14838TIP3    H265930   3.360   2.203  17.005 -0.8900  0.2807 -1.4021
14839TIP3   OH265931   2.202   0.729  12.933 -0.7613  0.5055 -0.1315
14839TIP3    H165932   2.230   0.788  13.003 -1.6082 -1.2356  1.7752
14839TIP3    H265933   2.107   0.720  12.946 -0.9523  0.1877 -1.5603
14840TIP3   OH265934   6.140   4.530   5.436  0.5002 -0.0324 -0.3925
14840TIP3    H165935   6.199   4.586   5.385 -1.3641  1.2348 -1.2851
14840TIP3    H265936   6.079   4.591   5.478 -0.4160 -1.3051  0.2019
14841TIP3   OH265937   6.750   5.109  10.668 -0.1666  0.3147 -0.1907
14841TIP3    H165938   6.744   5.203  10.687  0.7445  0.3513 -0.0545
14841TIP3    H265939   6.786   5.071  10.748  0.4601 -0.0075 -0.6270
14842TIP3   OH265940   5.850   2.960   4.013 -0.0737  0.2072 -0.7494
14842TIP3    H165941   5.906   2.915   4.076 -1.1278  1.7752  1.4591
14842TIP3    H265942   5.762   2.955   4.051 -1.0066  0.1286 -2.7693
14843TIP3   OH265943   0.047   0.449  11.972  0.3467 -0.4172 -0.1530
14843TIP3    H165944   0.085   0.363  11.993 -0.3891 -0.6451  0.2703
14843TIP3    H265945   0.079   0.467  11.883  0.8438 -0.9370 -0.0902
14844TIP3   OH265946   0.966   5.709  16.837  0.7556 -0.3997  0.4170
14844TIP3    H165947   0.947   5.797  16.805  0.8059 -0.5259  0.0216
14844TIP3    H265948   0.898   5.655  16.798  0.6699 -0.5185  0.7361
14845TIP3   OH265949   0.539   2.211   0.886  0.0368 -0.4755  0.2734
14845TIP3    H165950   0.504   2.257   0.809 -0.2321 -0.8801  0.1495
14845TIP3    H265951   0.585   2.135   0.849  0.5183 -0.2837  0.4740
14846TIP3   OH265952   5.942   3.954   1.247  0.5051  0.2562  0.3106
14846TIP3    H165953   5.990   3.911   1.318  1.5390  0.1011 -0.4566
14846TIP3    H265954   5.892   3.883   1.207  1.9937 -0.2481 -0.7749
14847TIP3   OH265955   6.131   3.035  12.556  0.2693 -0.5231 -0.0702
14847TIP3    H165956   6.094   3.123  12.561 -0.0075 -0.5290 -1.5795
14847TIP3    H265957   6.112   2.996  12.642  0.5226  0.9162  0.6713
14848TIP3   OH265958   3.335   1.500   5.192 -0.3375 -0.1582  0.8453
14848TIP3    H165959   3.268   1.473   5.129  0.7958 -0.8063 -0.1545
14848TIP3    H265960   3.319   1.593   5.207  0.3787  0.5026 -1.8295
14849TIP3   OH265961   0.054   0.930   4.077 -0.0452 -0.1564  0.0087
14849TIP3    H165962   0.038   0.927   3.982 -1.7823 -2.4754  0.3003
14849TIP3    H265963  -0.033   0.939   4.115  0.4664 -1.0575  1.4383
14850TIP3   OH265964   3.717   1.002   2.584  0.7503 -0.5732  0.0220
14850TIP3    H165965   3.784   1.059   2.622  1.5934 -0.1870 -1.8923
14850TIP3    H265966   3.648   1.062   2.557  0.3668 -0.7900  0.5136
14851TIP3   OH265967   1.744   2.164  12.714  0.1305  0.5477 -0.5679
14851TIP3    H165968   1.661   2.119  12.698  0.2112 -0.6044  1.8739
14851TIP3    H265969   1.810   2.097  12.701  0.2906 -0.0339  2.4495
14852TIP3   OH265970   0.875   2.233   1.386 -0.6958 -0.1400  0.3579
14852TIP3    H165971   0.789   2.274   1.372 -1.3751 -1.8613 -0.8319
14852TIP3    H265972   0.879   2.219   1.480 -0.7020  2.0017  0.7359
14853TIP3   OH265973   0.454   3.264   6.562  0.7038 -0.5859 -0.8757
14853TIP3    H165974   0.539   3.226   6.538  1.0101  0.3649 -1.3397
14853TIP3    H265975   0.472   3.357   6.574 -0.1775 -0.4577 -0.4624
14854TIP3   OH265976   0.637   1.282   3.966  0.5217 -0.9834  0.3272
14854TIP3    H165977   0.689   1.256   4.043 -0.0442 -1.5120  0.5422
14854TIP3    H265978   0.559   1.322   4.003 -0.2803 -2.2629  0.0542
14855TIP3   OH265979   0.330   4.987   1.116 -0.3709  0.7064  0.5017
14855TIP3    H165980   0.278   4.923   1.164 -0.0169 -1.7247 -2.1149
14855TIP3    H265981   0.418   4.948   1.112 -0.0024  1.5909 -0.6875
14856TIP3   OH265982   4.350   2.803  13.323 -0.2690  0.0454  0.1701
14856TIP3    H165983   4.372   2.824  13.414  0.1501 -0.4566  0.1925
14856TIP3    H265984   4.285   2.869  13.298  0.8387  1.2231  0.2984
14857TIP3   OH265985   4.115   5.841   1.698  0.2829  0.5156 -0.0313
14857TIP3    H165986   4.027   5.804   1.692  1.1657 -1.7835  0.0836
14857TIP3    H265987   4.151   5.832   1.610  0.7244  0.5280  0.1421
14858TIP3   OH265988   4.767   1.722  11.048 -0.2844 -0.0485  0.1164
14858TIP3    H165989   4.710   1.720  10.971  0.1632  0.1551 -0.2224
14858TIP3    H265990   4.731   1.655  11.106 -1.0942  0.3370  0.0687
14859TIP3   OH265991   4.493   2.382  14.426 -0.0820  0.9345 -0.5001
14859TIP3    H165992   4.569   2.440  14.433 -0.0178  0.8687 -0.6585
14859TIP3    H265993   4.507   2.333  14.345  0.6876 -0.4752  0.4465
14860TIP3   OH265994   2.827   0.936   1.099 -0.3189 -0.6599 -0.1817
14860TIP3    H165995   2.912   0.935   1.143 -0.4909  1.8703  0.3630
14860TIP3    H265996   2.798   0.844   1.100  1.9281 -1.4300  0.4992
14861TIP3   OH265997   0.510   0.680  13.503  0.6152  0.3086 -0.1842
14861TIP3    H165998   0.548   0.750  13.556  0.2524  0.5262 -0.2057
14861TIP3    H265999   0.518   0.602  13.558 -1.3984  0.8551  0.9849
14862TIP3   OH266000   2.087   1.905  10.409 -0.0742 -0.2264 -0.0640
14862TIP3    H166001   2.079   1.887  10.315  0.1580 -0.0808 -0.1120
14862TIP3    H266002   2.025   1.976  10.426 -0.3818 -0.4957 -0.0344
14863TIP3   OH266003   4.165   5.320   1.009  0.8091 -0.3149 -0.2866
14863TIP3    H166004   4.137   5.381   1.077  0.2331 -2.0963  1.1645
14863TIP3    H266005   4.187   5.375   0.934  0.4582  1.6496  0.9954
14864TIP3   OH266006   6.665   5.609   0.817 -0.4657  0.0456  0.0830
14864TIP3    H166007   6.740   5.653   0.777  0.3394  0.6909  2.1418
14864TIP3    H266008   6.590   5.664   0.795 -0.3262 -0.4405 -1.7457
14865TIP3   OH266009   3.594   6.058   5.584  0.2406 -0.5141 -0.5424
14865TIP3    H166010   3.545   6.066   5.665  1.5013 -1.4847  0.3529
14865TIP3    H266011   3.616   5.965   5.578 -1.4596 -0.8536 -3.0085
14866TIP3   OH266012   1.463   0.600   2.311  0.4819 -0.1377  0.4131
14866TIP3    H166013   1.539   0.596   2.369  0.0914 -0.2410  0.9280
14866TIP3    H266014   1.457   0.513   2.273  0.4398 -0.2225  0.6123
14867TIP3   OH266015   3.370   3.531  16.472 -0.1775  0.0685  0.5148
14867TIP3    H166016   3.301   3.469  16.447  0.2359 -0.0851 -0.2615
14867TIP3    H266017   3.340   3.615  16.437 -0.4864  0.2184  1.1204
14868TIP3   OH266018   2.169   6.617  11.023  0.3987  0.4853 -0.3108
14868TIP3    H166019   2.163   6.524  11.046  0.2408  0.3299 -0.9565
14868TIP3    H266020   2.182   6.617  10.928  1.1658  1.1029 -0.2122
14869TIP3   OH266021   5.759   5.918  17.178 -0.0236  0.2674  0.1064
14869TIP3    H166022   5.724   5.839  17.137 -0.3270  0.2288  0.4375
14869TIP3    H266023   5.847   5.893  17.207 -0.3063 -0.1036  0.6633
14870TIP3   OH266024   1.892   1.057   5.642 -0.0968  0.1034  0.3427
14870TIP3    H166025   1.809   1.045   5.597  1.0130 -1.7050 -1.3795
14870TIP3    H266026   1.888   1.146   5.677 -1.5484  1.1796 -2.3031
14871TIP3   OH266027   4.249   4.897  11.574 -0.3550 -0.9020  0.1974
14871TIP3    H166028   4.327   4.929  11.619 -1.2362  0.0537  1.1095
14871TIP3    H266029   4.271   4.900  11.481  1.1038 -1.8041  0.4912
14872TIP3   OH266030   0.534   1.165  14.575 -0.0795 -0.4733 -0.4205
14872TIP3    H166031   0.597   1.094  14.570  0.8384  0.3360 -0.6406
14872TIP3    H266032   0.449   1.123  14.560  0.2330 -1.8024  1.2245
14873TIP3   OH266033   4.926   2.075  12.175 -0.0762 -0.5317  0.2641
14873TIP3    H166034   4.957   2.166  12.175 -0.6672 -0.3210  0.1639
14873TIP3    H266035   4.989   2.029  12.120 -0.7158  0.1753 -1.1232
14874TIP3   OH266036   6.424   0.989  14.976 -0.4179  0.1276  0.4939
14874TIP3    H166037   6.420   1.052  14.904  1.6991  0.9218  0.9856
14874TIP3    H266038   6.333   0.973  15.000 -1.1685  0.0817 -2.1208
14875TIP3   OH266039   5.433   2.907   3.088 -0.3503  0.4333  0.6345
14875TIP3    H166040   5.386   2.950   3.160 -0.3557 -0.5936  1.2553
14875TIP3    H266041   5.388   2.938   3.010 -1.2412  0.4770  1.1468
14876TIP3   OH266042   3.443   1.000   4.767  0.0128 -0.1969  0.0073
14876TIP3    H166043   3.532   1.018   4.798 -1.4462  1.9520  3.5682
14876TIP3    H266044   3.422   0.913   4.800  0.8175 -0.8362 -1.1004
14877TIP3   OH266045   3.793   5.189  13.944 -0.3508  0.1570  0.4562
14877TIP3    H166046   3.756   5.260  13.996 -2.3855 -1.7450  1.7554
14877TIP3    H266047   3.886   5.213  13.935 -0.5809  2.1105  2.2971
14878TIP3   OH266048   4.495   6.204   1.518  0.3848 -0.0623 -0.3121
14878TIP3    H166049   4.457   6.154   1.591  1.5646 -1.3079 -0.4995
14878TIP3    H266050   4.476   6.150   1.441 -0.2814  0.9225 -0.8547
14879TIP3   OH266051   2.547   3.593   5.935 -0.3917 -0.0416  0.0379
14879TIP3    H166052   2.639   3.573   5.950 -0.1379  1.1310  0.1720
14879TIP3    H266053   2.541   3.687   5.950 -1.0388  0.4229 -2.6329
14880TIP3   OH266054   1.017   0.552  14.829  0.4550  0.5754 -0.4676
14880TIP3    H166055   1.087   0.490  14.850  0.7996  0.3698 -2.0698
14880TIP3    H266056   1.042   0.633  14.873  0.5545 -0.1158  0.7729
14881TIP3   OH266057   0.968   4.124   5.448 -0.6344 -0.0120 -0.0040
14881TIP3    H166058   1.041   4.084   5.496 -0.5831  1.9863  1.7548
14881TIP3    H266059   0.890   4.096   5.496 -0.6592  1.2466  0.7233
14882TIP3   OH266060   5.548   2.870   0.905  0.3150  0.4541  0.3287
14882TIP3    H166061   5.456   2.891   0.890  0.6170  0.6154 -1.4924
14882TIP3    H266062   5.563   2.789   0.856  1.7256  1.7690 -1.5441
14883TIP3   OH266063   3.341   2.377  15.420  0.5380  0.4342 -0.3592
14883TIP3    H166064   3.402   2.396  15.349 -0.8524  0.5380 -1.5750
14883TIP3    H266065   3.393   2.387  15.500  1.5303  2.7912 -1.2162
14884TIP3   OH266066   2.017   1.728  12.843 -0.0030 -0.1776 -0.1715
14884TIP3    H166067   1.934   1.686  12.864 -0.2121  0.5882  0.6143
14884TIP3    H266068   2.080   1.657  12.840 -0.1751 -0.4924  2.0175
14885TIP3   OH266069   6.625   4.370   4.988  0.3030  0.3543 -0.6088
14885TIP3    H166070   6.582   4.454   4.998  1.2749  0.7541  0.5036
14885TIP3    H266071   6.718   4.391   4.986  0.7366 -0.8041  2.1750
14886TIP3   OH266072   6.341   3.650  15.151  0.1595 -0.0596  0.2194
14886TIP3    H166073   6.297   3.565  15.159 -0.6713  0.2429 -0.9092
14886TIP3    H266074   6.413   3.633  15.089 -2.1268  0.7482 -2.9504
14887TIP3   OH266075   2.618   1.528   3.973  0.2364 -0.4841  0.0632
14887TIP3    H166076   2.614   1.477   3.893 -1.5103 -0.1175 -0.1231
14887TIP3    H266077   2.648   1.467   4.040  2.1771 -0.6788 -0.9161
14888TIP3   OH266078   1.398   0.568   2.708  0.3689  0.0065 -0.0339
14888TIP3    H166079   1.334   0.631   2.675 -1.4965 -2.0604 -0.6117
14888TIP3    H266080   1.380   0.562   2.802 -1.0935 -1.3096 -0.3468
14889TIP3   OH266081   5.213   1.290  14.816 -0.0322 -0.0642  0.5913
14889TIP3    H166082   5.291   1.249  14.854 -0.2380 -1.7033 -0.6317
14889TIP3    H266083   5.242   1.378  14.791  1.8736 -1.0349 -1.0106
14890TIP3   OH266084   2.633   2.050   3.249 -0.4240  0.2090  0.1148
14890TIP3    H166085   2.657   1.957   3.256  1.1986  0.5343 -0.5804
14890TIP3    H266086   2.665   2.076   3.162  0.6452  1.8057  0.9445
14891TIP3   OH266087   0.517   0.247  15.594  0.0714  0.1207 -0.5636
14891TIP3    H166088   0.493   0.164  15.553  1.1444 -1.1716  1.2880
14891TIP3    H266089   0.433   0.290  15.610 -0.7118 -1.7221  0.6468
14892TIP3   OH266090   2.008   2.005   2.130  0.5407  0.2523 -0.0822
14892TIP3    H166091   1.945   2.076   2.144 -1.5475 -1.2607 -1.2503
14892TIP3    H266092   2.001   1.985   2.037  0.2538 -2.1705  0.4025
14893TIP3   OH266093   2.289   6.039  14.245 -0.5149  0.5112 -0.4672
14893TIP3    H166094   2.345   6.116  14.251  1.1190 -0.5427 -1.6304
14893TIP3    H266095   2.336   5.971  14.292 -0.3031 -0.6678 -2.3311
14894TIP3   OH266096   3.931   0.825   1.231 -0.4609  0.2026 -0.3609
14894TIP3    H166097   3.909   0.780   1.313  1.2494 -0.8429 -0.4155
14894TIP3    H266098   3.955   0.754   1.171 -2.3158  0.8990 -2.0062
14895TIP3   OH266099   2.284   5.622   2.339 -0.3528  0.0708 -0.1937
14895TIP3    H166100   2.295   5.681   2.414 -1.5683  0.9735 -0.6900
14895TIP3    H266101   2.224   5.554   2.371 -0.9615  0.5186 -0.3752
14896TIP3   OH266102   6.225   4.297   1.507 -0.3120 -0.0171  0.4211
14896TIP3    H166103   6.200   4.214   1.465 -1.0249  0.1645  0.4764
14896TIP3    H266104   6.299   4.274   1.563 -0.8562 -0.7320  0.8660
14897TIP3   OH266105   2.221   2.675   3.237 -0.2875 -0.3683 -0.3639
14897TIP3    H166106   2.311   2.677   3.206 -0.4019 -0.2246 -0.6931
14897TIP3    H266107   2.223   2.621   3.315  0.6862  2.1853  1.5144
14898TIP3   OH266108   6.680   2.490  15.378 -0.0224  0.3319 -0.0713
14898TIP3    H166109   6.640   2.522  15.459 -1.3045  0.6536 -0.8012
14898TIP3    H266110   6.770   2.471  15.401 -0.3867  0.3641  1.4489
14899TIP3   OH266111   0.257   3.440   1.111 -0.1151  0.8517 -0.2851
14899TIP3    H166112   0.329   3.394   1.155 -0.4788  0.2618 -0.2872
14899TIP3    H266113   0.239   3.515   1.167 -0.5606  0.1194  0.5795
14900TIP3   OH266114   2.295   0.634  15.204 -0.0597 -0.1801 -0.1744
14900TIP3    H166115   2.333   0.677  15.280 -0.6511 -1.3923  0.8568
14900TIP3    H266116   2.345   0.667  15.129  2.6736 -1.2755  1.0322
14901TIP3   OH266117   2.331   1.701   3.155 -0.1863  0.0790  0.2197
14901TIP3    H166118   2.293   1.758   3.223 -2.1529  1.4824 -1.8905
14901TIP3    H266119   2.408   1.748   3.124  0.2823 -0.2005  0.9451
14902TIP3   OH266120   3.452   1.913  13.696  0.6249  0.4143 -0.5769
14902TIP3    H166121   3.367   1.952  13.677  0.1081  0.0313  0.8205
14902TIP3    H266122   3.432   1.823  13.720  1.5625 -0.0233 -1.3495
14903TIP3   OH266123   4.279   3.840  10.861 -0.5179  0.6488 -0.0824
14903TIP3    H166124   4.252   3.863  10.949 -1.5234  1.1654 -0.5096
14903TIP3    H266125   4.307   3.923  10.822 -1.6409  0.7362 -0.7667
14904TIP3   OH266126   4.157   0.723   2.313  0.5067 -0.1325  0.4096
14904TIP3    H166127   4.082   0.755   2.362  1.3575  2.9674 -0.0930
14904TIP3    H266128   4.232   0.772   2.348  1.6667 -0.3407 -1.5781
14905TIP3   OH266129   2.322   3.565   0.383  0.2969  0.1500 -0.2274
14905TIP3    H166130   2.243   3.600   0.425 -0.4449 -1.9217  0.1863
14905TIP3    H266131   2.393   3.585   0.444 -0.1498  0.5974  0.1551
14906TIP3   OH266132   2.790   0.861  14.558  0.5105  0.3154 -0.6794
14906TIP3    H166133   2.777   0.951  14.588  0.6174 -0.1157  0.7217
14906TIP3    H266134   2.861   0.866  14.494 -0.3339  1.3918 -1.5648
14907TIP3   OH266135   0.373   0.360   3.572  0.1010 -0.6175 -0.4413
14907TIP3    H166136   0.349   0.298   3.503 -0.4278 -0.5434 -0.3246
14907TIP3    H266137   0.435   0.420   3.530  1.7541 -2.0487 -0.1896
14908TIP3   OH266138   2.228   5.913  11.377 -0.0921  0.2225 -0.5311
14908TIP3    H166139   2.307   5.883  11.331  0.8929 -0.4067  1.4750
14908TIP3    H266140   2.204   5.993  11.331  0.6585 -0.4942 -2.3020
14909TIP3   OH266141   3.824   6.704  12.475  0.4927 -0.4032 -0.5112
14909TIP3    H166142   3.760   6.730  12.409  1.0708  0.8406 -0.5993
14909TIP3    H266143   3.773   6.650  12.537 -0.3038 -0.6217 -1.3375
14910TIP3   OH266144   2.340   1.009   4.379 -0.0788  0.1583  0.7414
14910TIP3    H166145   2.391   1.076   4.425 -2.0290  2.1674  0.1362
14910TIP3    H266146   2.273   0.982   4.442 -1.0213  0.8413  0.0371
14911TIP3   OH266147   3.983   0.464   2.157  0.2613  0.1405 -0.2855
14911TIP3    H166148   3.946   0.534   2.210 -1.0948  0.7996 -2.0032
14911TIP3    H266149   4.063   0.502   2.119  0.9576 -0.1656  0.8209
14912TIP3   OH266150   6.183   1.899   1.966  0.2293 -0.4985  0.3567
14912TIP3    H166151   6.218   1.978   2.008 -2.2496  1.2426 -0.6208
14912TIP3    H266152   6.124   1.862   2.032  0.3530 -0.7498  0.3243
14913TIP3   OH266153   2.801   0.705   2.972 -0.0210 -0.0714  0.0604
14913TIP3    H166154   2.877   0.724   2.917  2.2972 -3.5731  1.7057
14913TIP3    H266155   2.746   0.648   2.919 -0.8905  1.3372 -0.6217
14914TIP3   OH266156   3.266   4.179  13.552 -0.5360  0.1396  0.0410
14914TIP3    H166157   3.278   4.103  13.496  0.6804 -0.0061  0.4805
14914TIP3    H266158   3.224   4.244  13.495 -1.0309 -0.6388 -0.5021
14915TIP3   OH266159   1.586   1.268   2.478 -0.1277 -0.4881  0.1014
14915TIP3    H166160   1.674   1.237   2.499 -0.9491 -2.1329  1.4070
14915TIP3    H266161   1.555   1.307   2.560 -0.9567 -0.8181 -0.0473
14916TIP3   OH266162   1.812   1.473   4.553  0.4662  0.4467 -0.4219
14916TIP3    H166163   1.863   1.393   4.565 -2.4757 -1.4128  0.5836
14916TIP3    H266164   1.834   1.526   4.630 -1.8289 -2.0066  2.1310
14917TIP3   OH266165   2.234   6.024   5.050 -0.0803  0.2481  0.0815
14917TIP3    H166166   2.215   6.041   4.958 -0.4886 -1.6397 -0.2239
14917TIP3    H266167   2.148   6.010   5.090  0.1518 -0.0005  0.4993
14918TIP3   OH266168   5.760   3.304   0.445  0.1997 -0.2003 -0.4511
14918TIP3    H166169   5.695   3.364   0.408  2.0432  1.3155 -1.3598
14918TIP3    H266170   5.788   3.251   0.370  0.6443 -0.2503 -0.2519
14919TIP3   OH266171   0.401   2.457   0.495  0.8585  0.0210 -0.0102
14919TIP3    H166172   0.495   2.465   0.480  0.6768  0.7586 -0.8584
14919TIP3    H266173   0.386   2.363   0.507  1.9119  0.0415  1.7537
14920TIP3   OH266174   6.344   5.088   2.472  0.0105  0.5619 -0.1824
14920TIP3    H166175   6.430   5.114   2.505  0.7855 -1.5245 -0.3788
14920TIP3    H266176   6.294   5.169   2.470  1.4125  1.5648  1.5772
14921TIP3   OH266177   1.489   5.701  11.040 -0.6200 -0.9764  0.4804
14921TIP3    H166178   1.521   5.754  10.967 -0.7782 -2.9004 -1.0736
14921TIP3    H266179   1.562   5.701  11.103 -0.2446  0.2203  0.0739
14922TIP3   OH266180   2.978   3.089   2.304 -0.4567 -0.0197  0.1685
14922TIP3    H166181   2.968   3.065   2.212  0.4540  1.0577 -0.2303
14922TIP3    H266182   3.059   3.140   2.307  0.2529 -1.1683  1.7981
14923TIP3   OH266183   2.938   5.369  10.799  0.8250  0.0530 -0.2373
14923TIP3    H166184   2.844   5.388  10.800  0.4306 -1.6276  0.6748
14923TIP3    H266185   2.977   5.439  10.748 -0.8495  1.1591 -0.0800
14924TIP3   OH266186   6.338   6.398  12.136  0.3944  0.6876  0.2078
14924TIP3    H166187   6.288   6.320  12.158  0.8842  0.0535 -0.8155
14924TIP3    H266188   6.278   6.471  12.152 -0.8336 -0.0446 -0.8638
14925TIP3   OH266189   5.670   6.542   3.872 -0.0493 -0.5898  0.2029
14925TIP3    H166190   5.726   6.525   3.797  0.7814 -0.5137  0.7963
14925TIP3    H266191   5.631   6.456   3.892 -1.4852 -0.3261 -1.2327
14926TIP3   OH266192   0.839   0.085   4.297  0.2103  0.2596  0.4433
14926TIP3    H166193   0.744   0.073   4.304  0.3014 -2.5702 -1.5928
14926TIP3    H266194   0.851   0.133   4.215  0.5688 -0.0853  0.2930
14927TIP3   OH266195   5.521   4.373   0.165  0.6974  0.0763 -0.0428
14927TIP3    H166196   5.533   4.279   0.172 -0.7254 -0.1057  0.2823
14927TIP3    H266197   5.609   4.410   0.176  1.1869 -1.1802  0.3962
14928TIP3   OH266198   2.016   1.356  12.371  0.5505 -0.6602  0.0419
14928TIP3    H166199   2.085   1.308  12.325 -0.4840 -0.9492 -1.2978
14928TIP3    H266200   2.048   1.365  12.460  1.3528 -2.7449  0.0303
14929TIP3   OH266201   5.258   2.959   2.049  0.3438 -0.5517 -0.0011
14929TIP3    H166202   5.181   2.934   2.100 -1.9825  0.1624 -2.9332
14929TIP3    H266203   5.234   3.042   2.008  3.3205  0.4943  0.1185
14930TIP3   OH266204   5.299   2.834  16.763 -0.3503 -0.1988  0.4130
14930TIP3    H166205   5.224   2.877  16.802  0.0864 -0.3470  1.4342
14930TIP3    H266206   5.271   2.814  16.673 -1.0215  0.9913  0.3382
14931TIP3   OH266207   1.764   1.369   2.276 -0.5649  0.5640 -0.4219
14931TIP3    H166208   1.853   1.370   2.239 -0.7466  0.9180 -0.8627
14931TIP3    H266209   1.727   1.287   2.244 -0.2333  0.1738  0.1739
14932TIP3   OH266210   5.217   6.497  13.935 -0.0883  0.3207 -0.4747
14932TIP3    H166211   5.161   6.573  13.921 -0.2248  0.3944  0.3866
14932TIP3    H266212   5.184   6.431  13.874 -0.1465  0.8560 -1.0324
14933TIP3   OH266213   1.269   6.674   4.503  0.0892  0.6339 -0.5139
14933TIP3    H166214   1.190   6.700   4.551 -0.5650  0.3091 -1.3934
14933TIP3    H266215   1.286   6.584   4.531  0.9621  1.1480  0.7091
14934TIP3   OH266216   2.950   0.617  11.197  0.4930 -0.3105  0.2084
14934TIP3    H166217   3.003   0.664  11.132 -0.9132  0.3223 -0.5257
14934TIP3    H266218   2.895   0.558  11.145 -1.1912  0.7482  0.7095
14935TIP3   OH266219   5.446   1.231  16.011 -0.7835  0.2034 -0.1761
14935TIP3    H166220   5.406   1.173  16.076 -1.3149  1.4084  0.5930
14935TIP3    H266221   5.446   1.317  16.052  1.8962  0.4296 -0.4709
14936TIP3   OH266222   2.392   3.324  15.373 -0.4464  0.3184 -0.6588
14936TIP3    H166223   2.388   3.231  15.395 -1.1961  0.2494 -1.0371
14936TIP3    H266224   2.435   3.365  15.448 -2.3612  0.0074  0.6748
14937TIP3   OH266225   1.304   6.336  13.797  0.0380 -0.5464  0.1059
14937TIP3    H166226   1.298   6.377  13.711  0.1777  1.5660  1.0487
14937TIP3    H266227   1.220   6.292  13.809 -0.4434  0.1658 -0.6119
14938TIP3   OH266228   0.874   0.943  15.034 -0.2119 -0.2125 -0.1206
14938TIP3    H166229   0.787   0.967  15.067  0.6418  2.7761  0.2358
14938TIP3    H266230   0.902   1.020  14.984  1.7013 -1.6508 -1.3835
14939TIP3   OH266231   4.310   1.976  11.523 -0.0287 -0.0769 -0.6415
14939TIP3    H166232   4.398   1.991  11.489  0.9869 -0.4974  1.5927
14939TIP3    H266233   4.280   2.062  11.552  0.4316 -0.2203  0.2874
14940TIP3   OH266234   2.329   4.187  13.479  0.8422  0.4950 -0.0573
14940TIP3    H166235   2.308   4.113  13.422  0.1105 -0.2738  1.1654
14940TIP3    H266236   2.375   4.147  13.553  1.1425  1.3727  0.2340
14941TIP3   OH266237   0.375   4.293  17.177 -1.1773 -0.2565  0.2241
14941TIP3    H166238   0.422   4.238  17.239  1.2066 -0.7156 -1.8251
14941TIP3    H266239   0.374   4.380  17.218  1.3260 -0.2870  0.5084
14942TIP3   OH266240   1.930   5.330   5.187  0.1280  0.2503 -0.0071
14942TIP3    H166241   1.923   5.247   5.139  2.2283  0.8250 -1.4142
14942TIP3    H266242   1.868   5.320   5.259 -0.3534 -2.1819 -0.6486
14943TIP3   OH266243   1.310   3.634   3.779  0.8651 -0.1128  0.2885
14943TIP3    H166244   1.285   3.718   3.818 -0.1628 -0.4370  0.3622
14943TIP3    H266245   1.342   3.658   3.692  2.2370  0.5117  0.9394
14944TIP3   OH266246   6.286   1.479  11.210  0.0085  0.3179 -0.2500
14944TIP3    H166247   6.326   1.403  11.254  0.2151  1.1464  1.0326
14944TIP3    H266248   6.201   1.488  11.251 -0.1795  0.5540 -0.6859
14945TIP3   OH266249   5.720   0.401   1.529 -0.3919 -0.2763 -0.2107
14945TIP3    H166250   5.720   0.476   1.588  1.4409 -0.3738 -0.0518
14945TIP3    H266251   5.659   0.426   1.459 -2.0401  0.1301  1.2911
14946TIP3   OH266252   6.756   4.438   6.540  0.2670 -0.3926  0.1960
14946TIP3    H166253   6.722   4.450   6.451  0.9002  0.2381  0.0325
14946TIP3    H266254   6.684   4.397   6.587  0.3730 -1.9634 -0.9393
14947TIP3   OH266255   3.334   0.519  16.451 -0.3645  0.1024  0.1305
14947TIP3    H166256   3.282   0.459  16.398  0.0317  0.3569 -0.5518
14947TIP3    H266257   3.272   0.552  16.517 -0.2704 -2.1211  1.4432
14948TIP3   OH266258   3.285   2.062  15.349  0.2059  0.1753  0.0113
14948TIP3    H166259   3.247   2.103  15.272  3.3673 -0.0248 -1.8320
14948TIP3    H266260   3.299   2.134  15.410  0.2049  0.8218 -0.7379
14949TIP3   OH266261   4.347   0.841  15.690 -0.6287 -0.4744 -0.5538
14949TIP3    H166262   4.426   0.866  15.642 -1.0386 -2.0139 -2.1313
14949TIP3    H266263   4.349   0.745  15.693 -1.6561 -0.4895  0.7657
14950TIP3   OH266264   3.252   2.826  15.982  0.2598 -0.0541 -0.0495
14950TIP3    H166265   3.289   2.912  15.961  1.7350 -0.6690 -0.1524
14950TIP3    H266266   3.216   2.794  15.900  1.0996 -0.1538 -0.3960
14951TIP3   OH266267   3.089   0.930   5.539 -0.2994  0.3653 -0.4425
14951TIP3    H166268   3.140   1.009   5.524 -1.4491  1.4843  1.1493
14951TIP3    H266269   3.153   0.864   5.567  0.2307  2.2151  3.3203
14952TIP3   OH266270   1.785   6.689   4.510  0.0162  0.0248  0.0918
14952TIP3    H166271   1.778   6.712   4.417 -1.4037 -3.9870 -0.9990
14952TIP3    H266272   1.695   6.698   4.543 -0.0366 -1.1859  0.3004
14953TIP3   OH266273   6.398   5.996   3.211 -0.0587  0.3406 -0.1510
14953TIP3    H166274   6.457   6.065   3.240  0.5896 -0.2591 -0.0096
14953TIP3    H266275   6.395   6.005   3.116  2.2680 -1.1488 -0.4448
14954TIP3   OH266276   3.650   3.901   3.538  0.6306  0.3121  0.2949
14954TIP3    H166277   3.591   3.913   3.612 -2.0645  1.8170 -1.9268
14954TIP3    H266278   3.635   3.811   3.509 -1.4258  0.9859 -0.8616
14955TIP3   OH266279   1.902   0.567  12.170 -0.0322 -0.1806 -0.4090
14955TIP3    H166280   1.858   0.491  12.207  0.3114 -1.5680 -2.6266
14955TIP3    H266281   1.831   0.628  12.149 -0.3012  0.2133  1.4628
14956TIP3   OH266282   1.371   3.886  17.301 -0.7132 -0.0020 -0.2209
14956TIP3    H166283   1.363   3.876  17.206  2.0011 -0.8907 -0.4252
14956TIP3    H266284   1.434   3.958  17.312 -1.1745  0.2427  0.9272
14957TIP3   OH266285   3.279   2.997   0.751  0.1582  0.5256 -0.1206
14957TIP3    H166286   3.341   3.050   0.700 -1.0834  0.9672 -1.2517
14957TIP3    H266287   3.284   2.910   0.712  0.5522  0.3949  0.2260
14958TIP3   OH266288   4.498   1.774  11.301 -0.0882 -0.3424 -0.1976
14958TIP3    H166289   4.502   1.859  11.345  0.7321 -0.2310 -0.4576
14958TIP3    H266290   4.420   1.779  11.246 -0.7567 -0.2414  0.7343
14959TIP3   OH266291   4.536   2.171   3.123 -0.3719 -0.4161 -0.3201
14959TIP3    H166292   4.486   2.232   3.069 -1.6376 -0.6186  0.5629
14959TIP3    H266293   4.593   2.126   3.061  0.0985  1.1591 -1.0807
14960TIP3   OH266294   5.153   6.603  12.661 -0.1630  0.0629  0.1132
14960TIP3    H166295   5.201   6.528  12.698 -0.8724 -0.1906  0.5344
14960TIP3    H266296   5.067   6.599  12.703 -0.9166 -0.0753 -1.3818
14961TIP3   OH266297   0.695   0.751  16.176 -0.2196 -0.1155  0.1547
14961TIP3    H166298   0.628   0.819  16.174 -1.2265 -1.0634  0.1162
14961TIP3    H266299   0.722   0.745  16.267 -1.8144 -1.1942  0.6153
14962TIP3   OH266300   2.326   5.828   3.906 -0.7921 -0.7975  0.3583
14962TIP3    H166301   2.319   5.779   3.824  1.0860 -1.4351  0.5358
14962TIP3    H266302   2.385   5.775   3.961 -2.4607 -0.7030  2.3834
14963TIP3   OH266303   1.621   2.025  16.792  0.5121 -0.8439  0.5385
14963TIP3    H166304   1.601   2.001  16.882 -1.1243 -1.0997  0.1390
14963TIP3    H266305   1.611   2.120  16.789  2.5884 -0.5701  1.0739
14964TIP3   OH266306   6.092   5.697  13.474  0.1473 -0.2311 -0.4928
14964TIP3    H166307   6.044   5.711  13.393 -0.6525  0.4962  0.0786
14964TIP3    H266308   6.132   5.782  13.493  1.1089 -0.6430 -0.5987
14965TIP3   OH266309   2.701   4.445   2.753 -0.3361  1.2641 -0.2702
14965TIP3    H166310   2.690   4.369   2.811 -1.0365  2.1698  0.8210
14965TIP3    H266311   2.786   4.431   2.712  1.0539  1.3964  2.2989
14966TIP3   OH266312   0.083   0.872   4.956  0.1265 -0.2916  0.1483
14966TIP3    H166313   0.109   0.963   4.973 -1.5610  0.5238 -1.3087
14966TIP3    H266314  -0.001   0.862   5.000 -0.0425 -0.9228 -0.3003
14967TIP3   OH266315   1.182   5.303  14.645 -0.2929  0.0607  0.2488
14967TIP3    H166316   1.103   5.329  14.598 -0.3549  0.9109  0.8046
14967TIP3    H266317   1.169   5.334  14.735  0.3588 -0.4311  0.5289
14968TIP3   OH266318   2.746   1.171  15.902  0.3923 -0.3953  0.0685
14968TIP3    H166319   2.807   1.238  15.933 -0.6627  0.9222 -0.6549
14968TIP3    H266320   2.659   1.209  15.912 -0.1825 -1.2595 -1.2519
14969TIP3   OH266321   1.836   0.074  17.126 -0.7654 -0.0572 -0.3741
14969TIP3    H166322   1.817   0.133  17.200  1.2838 -0.5230  0.5917
14969TIP3    H266323   1.924   0.040  17.144 -1.5354 -2.8137 -1.2968
14970TIP3   OH266324   3.452   6.678   2.578  0.3760  0.1083  0.4731
14970TIP3    H166325   3.500   6.664   2.497  0.3886  0.1582  0.4723
14970TIP3    H266326   3.455   6.593   2.622 -0.3639 -0.1653  0.0231
14971TIP3   OH266327   3.086   5.806  12.178 -0.1544 -0.3351  0.5843
14971TIP3    H166328   3.117   5.806  12.269 -0.8618 -1.1853  0.8279
14971TIP3    H266329   3.036   5.726  12.169 -0.7485  0.1247 -0.3442
14972TIP3   OH266330   6.582   4.085   5.945  0.1778  0.1004 -0.4796
14972TIP3    H166331   6.653   4.131   5.901 -0.7203  3.8773  1.6205
14972TIP3    H266332   6.509   4.089   5.883  0.5329  0.2236 -0.8893
14973TIP3   OH266333   2.778   6.330  11.989  0.2429 -0.1060 -0.0764
14973TIP3    H166334   2.748   6.411  12.030  2.4825 -0.5777  2.8943
14973TIP3    H266335   2.720   6.263  12.025 -0.1258 -0.1179 -0.6780
14974TIP3   OH266336   2.279   4.223  14.844 -0.0928 -0.5113 -0.3524
14974TIP3    H166337   2.264   4.282  14.770  1.3321 -0.6556 -0.7800
14974TIP3    H266338   2.276   4.280  14.921  0.5191  0.0044 -0.7024
14975TIP3   OH266339   4.081   6.209   5.795 -0.1861 -0.5163 -1.0186
14975TIP3    H166340   4.020   6.135   5.789 -0.2217 -0.4819 -1.0888
14975TIP3    H266341   4.029   6.279   5.833  0.1119 -0.8093 -0.0526
14976TIP3   OH266342   6.237   0.615   5.932 -1.1315  0.4358 -0.5676
14976TIP3    H166343   6.263   0.584   6.019  0.6787  2.2014 -0.4018
14976TIP3    H266344   6.212   0.706   5.945  2.6033  1.9160 -2.2827
14977TIP3   OH266345   6.739   2.691   4.355 -0.2383 -0.5463 -0.2736
14977TIP3    H166346   6.689   2.759   4.401 -0.9706  0.5543 -2.5685
14977TIP3    H266347   6.826   2.729   4.345 -0.1937 -0.6227 -0.1835
14978TIP3   OH266348   1.925   1.766  15.347  0.0680 -0.3736 -0.1496
14978TIP3    H166349   1.937   1.783  15.253 -0.2452  0.6237 -0.0211
14978TIP3    H266350   1.830   1.752  15.356  0.0670 -0.2176  0.0607
14979TIP3   OH266351   1.381   5.066   0.340 -0.4448 -0.3858  0.8668
14979TIP3    H166352   1.436   5.100   0.411 -0.1949  0.5665  0.2371
14979TIP3    H266353   1.386   5.133   0.272  0.3419 -1.8598 -0.5840
14980TIP3   OH266354   3.252   6.302  16.907  0.2552  0.0599  0.0299
14980TIP3    H166355   3.170   6.348  16.893 -0.2077 -1.3801 -2.5712
14980TIP3    H266356   3.227   6.221  16.951  0.3587 -0.0877 -0.1812
14981TIP3   OH266357   5.886   6.393  12.635  0.0297 -0.4046  0.7273
14981TIP3    H166358   5.795   6.405  12.660 -0.5404 -0.0682 -1.3511
14981TIP3    H266359   5.936   6.434  12.706 -1.4828  0.6888  1.1998
14982TIP3   OH266360   6.441   0.540  14.921 -0.8619 -0.6977  0.1428
14982TIP3    H166361   6.489   0.606  14.971 -0.4112 -1.5321  0.8422
14982TIP3    H266362   6.393   0.590  14.856  1.6447  0.1538 -1.2114
14983TIP3   OH266363   2.431   5.714   1.508 -0.0176 -0.9561 -0.3054
14983TIP3    H166364   2.411   5.660   1.433  0.0118 -1.0723 -0.2293
14983TIP3    H266365   2.433   5.654   1.582 -0.3869 -0.7917 -0.1559
14984TIP3   OH266366   1.921   5.284  10.911  0.0321  0.1635 -0.0948
14984TIP3    H166367   1.992   5.348  10.921 -0.1352  0.5739 -1.3863
14984TIP3    H266368   1.845   5.327  10.951  0.1595  0.3500 -0.0535
14985TIP3   OH266369   1.700   2.264   2.899  0.0465  0.2269 -0.6785
14985TIP3    H166370   1.751   2.184   2.916 -0.3974  0.1252  0.2319
14985TIP3    H266371   1.622   2.253   2.952 -0.8161  0.5026 -1.8606
14986TIP3   OH266372   0.774   0.824   1.754  0.1946 -0.4406 -0.2153
14986TIP3    H166373   0.682   0.820   1.776  0.2239 -1.0690 -0.2103
14986TIP3    H266374   0.776   0.842   1.660  0.0426 -2.3701 -0.6284
14987TIP3   OH266375   3.849   0.177  12.566 -0.0261  0.1625  0.0962
14987TIP3    H166376   3.847   0.093  12.520  0.1411  0.5778 -0.6820
14987TIP3    H266377   3.763   0.183  12.608  0.1997 -0.6917  0.7062
14988TIP3   OH266378   1.516   5.393  14.010  0.0513 -0.4841  0.1607
14988TIP3    H166379   1.468   5.473  13.989  1.3900  0.5058  0.7183
14988TIP3    H266380   1.564   5.414  14.091  0.4375 -1.8470  0.3111
14989TIP3   OH266381   1.621   3.782   2.992 -0.0836  0.5400  0.0333
14989TIP3    H166382   1.533   3.814   2.971 -0.8493 -1.2988  0.2953
14989TIP3    H266383   1.658   3.758   2.907 -1.0377 -1.5775  0.1696
14990TIP3   OH266384   1.700   0.890   5.418 -0.4158  0.0284 -0.5155
14990TIP3    H166385   1.617   0.884   5.371  0.0811  0.2300 -1.4421
14990TIP3    H266386   1.764   0.852   5.357 -0.0104 -1.2741  0.6775
14991TIP3   OH266387   6.177   1.751  14.950 -0.0621 -0.4461 -0.3263
14991TIP3    H166388   6.106   1.743  14.887  1.8783 -2.5458 -2.4466
14991TIP3    H266389   6.246   1.798  14.904  0.8181 -0.5795  0.7915
14992TIP3   OH266390   6.612   1.370  15.095 -0.3233 -0.1948  0.2805
14992TIP3    H166391   6.676   1.382  15.024  0.0911 -0.5431  0.5935
14992TIP3    H266392   6.530   1.404  15.058  0.4657  2.3060  0.6146
14993TIP3   OH266393   2.683   6.191   5.995  0.3777  0.0692  0.6052
14993TIP3    H166394   2.694   6.251   5.921 -0.2496 -0.8307 -0.2450
14993TIP3    H266395   2.594   6.207   6.025 -0.0497 -0.9342 -0.0952
14994TIP3   OH266396   2.142   6.019   0.125  0.5570  0.2654 -0.0751
14994TIP3    H166397   2.164   5.970   0.204  1.3925  0.2562 -0.3109
14994TIP3    H266398   2.048   6.037   0.134  0.5501 -0.1177  0.7027
14995TIP3   OH266399   0.985   6.300   3.111 -0.1472 -0.0124  0.3147
14995TIP3    H166400   1.077   6.326   3.125  0.9567 -3.8003  1.2367
14995TIP3    H266401   0.954   6.358   3.041  2.5281  2.1797  0.7544
14996TIP3   OH266402   0.629   5.690   0.409  0.1490  0.8176  0.0774
14996TIP3    H166403   0.560   5.753   0.385  0.7482  0.9121 -1.5096
14996TIP3    H266404   0.710   5.736   0.389  0.6245 -0.0588 -0.0269
14997TIP3   OH266405   0.513   5.972   3.219 -0.2199 -0.7715  0.4374
14997TIP3    H166406   0.582   5.935   3.164  1.3226  2.2726  0.1024
14997TIP3    H266407   0.502   5.908   3.289  1.6860 -2.2030 -0.4650
14998TIP3   OH266408   1.506   0.516  16.410  0.0187  0.0653  0.1281
14998TIP3    H166409   1.465   0.593  16.371  0.6792  0.3403 -0.0254
14998TIP3    H266410   1.526   0.459  16.336  0.0022 -0.0248  0.1920
14999TIP3   OH266411   1.997   5.379   3.504  0.6881  0.2523 -0.2259
14999TIP3    H166412   1.902   5.366   3.500 -0.0208  2.7326  3.3957
14999TIP3    H266413   2.034   5.292   3.488 -1.9933 -0.4949 -3.4014
15000TIP3   OH266414   2.698   0.647  16.533  0.1680 -0.1669 -0.0447
15000TIP3    H166415   2.742   0.731  16.547 -0.8989  0.3006  0.6202
15000TIP3    H266416   2.744   0.587  16.592  1.7701 -0.3862 -1.4359
15001TIP3   OH266417   5.770   4.470   0.099 -0.1294  0.2773  0.5200
15001TIP3    H166418   5.799   4.557   0.073 -1.8607  0.9347  0.6589
15001TIP3    H266419   5.836   4.411   0.061  0.5438  1.5688 -0.4168
15002TIP3   OH266420   3.867   1.477  13.041  0.3021  0.1917 -0.0222
15002TIP3    H166421   3.929   1.451  12.972 -0.0342  0.9224 -0.6067
15002TIP3    H266422   3.797   1.521  12.995  1.1855  2.8448  0.9749
15003TIP3   OH266423   4.545   5.144   5.643  0.2839  0.1217 -0.2423
15003TIP3    H166424   4.485   5.207   5.683 -0.3129 -0.5558 -0.0485
15003TIP3    H266425   4.568   5.084   5.714  2.2609  1.1398  0.0257
15004TIP3   OH266426   3.558   3.850  15.058  0.5640 -0.0806 -0.3638
15004TIP3    H166427   3.560   3.944  15.078 -2.0417 -0.0153 -0.0760
15004TIP3    H266428   3.465   3.830  15.044  1.1483 -2.4167 -1.4809
15005TIP3   OH266429   5.403   5.523  15.001 -0.1553  0.1043 -0.2555
15005TIP3    H166430   5.495   5.512  15.026  0.0218 -1.2903 -1.4059
15005TIP3    H266431   5.393   5.617  14.986  1.6099  0.0868 -1.9457
15006TIP3   OH266432   0.431   1.695  16.496  0.1024  0.5419 -0.1185
15006TIP3    H166433   0.411   1.602  16.481  3.2342 -0.1688 -0.7326
15006TIP3    H266434   0.396   1.713  16.583 -2.6560 -0.4734 -0.9262
15007TIP3   OH266435   2.194   0.500   0.338 -0.4421  0.1789 -0.8940
15007TIP3    H166436   2.117   0.531   0.385  0.9972  1.4803  0.7245
15007TIP3    H266437   2.214   0.569   0.275  0.8147  1.0832  0.4255
15008TIP3   OH266438   5.265   5.912   2.199 -0.4679  0.0891 -0.1672
15008TIP3    H166439   5.216   5.832   2.180 -2.6110  1.0311  1.0765
15008TIP3    H266440   5.212   5.983   2.164  0.0645  1.1561  1.0721
15009TIP3   OH266441   2.705   4.474   4.239  0.2606  0.1973  0.4373
15009TIP3    H166442   2.743   4.562   4.238 -0.7557  0.6480  0.3986
15009TIP3    H266443   2.740   4.432   4.161  0.0423  0.8828 -0.0371
15010TIP3   OH266444   1.469   2.712   2.466 -0.3787 -0.2273  0.2612
15010TIP3    H166445   1.377   2.734   2.460 -0.2686  0.7594  1.7089
15010TIP3    H266446   1.515   2.793   2.444  0.1149 -0.3221  0.9053
15011TIP3   OH266447   1.834   5.269   0.686  0.1612 -0.9120 -0.0428
15011TIP3    H166448   1.854   5.237   0.598 -1.2977  1.3217 -1.2738
15011TIP3    H266449   1.870   5.358   0.688 -2.4487  0.2128  0.4720
15012TIP3   OH266450   0.448   4.930   2.188  0.0124 -0.9404  0.1270
15012TIP3    H166451   0.510   4.861   2.166  0.5198 -0.3510 -0.3445
15012TIP3    H266452   0.447   4.933   2.284  0.0378 -1.5445  0.1482
15013TIP3   OH266453   0.270   0.733  11.650  0.0979  0.3863 -0.3182
15013TIP3    H166454   0.191   0.679  11.654  1.1566 -1.3098 -1.0495
15013TIP3    H266455   0.255   0.792  11.576 -0.5419  0.1913 -0.3513
15014TIP3   OH266456   2.682   2.161  13.460 -0.9631 -0.3527 -0.0223
15014TIP3    H166457   2.609   2.107  13.489 -0.5619  0.1154  2.0139
15014TIP3    H266458   2.757   2.128  13.509  0.2398 -0.8260 -2.0708
15015TIP3   OH266459   0.519   1.415   0.464  0.3709 -0.5481  0.0644
15015TIP3    H166460   0.594   1.389   0.517 -0.3490 -1.4745  0.6682
15015TIP3    H266461   0.449   1.354   0.490  0.1484 -1.4679 -2.3819
15016TIP3   OH266462   4.337   3.474  12.355 -0.3519 -0.6150  0.0442
15016TIP3    H166463   4.270   3.511  12.411 -0.6406 -0.0885 -0.6296
15016TIP3    H266464   4.308   3.385  12.337 -0.3021 -0.7521  0.6510
15017TIP3   OH266465   1.780   0.284   3.348  0.4372 -0.5362 -0.3589
15017TIP3    H166466   1.826   0.357   3.390 -0.1336 -0.4222  0.0900
15017TIP3    H266467   1.849   0.225   3.319  0.9403  0.4748 -1.2746
15018TIP3   OH266468   4.902   5.721  11.582  0.1486  0.3630 -0.1589
15018TIP3    H166469   4.977   5.746  11.527 -0.8090 -0.5069 -1.9436
15018TIP3    H266470   4.825   5.738  11.527 -0.9897  1.2048  1.6186
15019TIP3   OH266471   4.198   3.079   6.174 -0.5739 -0.3212  0.1455
15019TIP3    H166472   4.120   3.076   6.118 -1.6984 -0.5654  1.6321
15019TIP3    H266473   4.189   3.001   6.229  2.1856 -1.8935 -1.4407
15020TIP3   OH266474   3.774   4.257  13.313  0.4333 -0.6315 -0.2672
15020TIP3    H166475   3.701   4.318  13.324  2.4612  2.3296 -1.6255
15020TIP3    H266476   3.846   4.312  13.281  3.2804 -3.3342  0.9247
15021TIP3   OH266477   3.594   6.371   1.230 -0.2661 -0.3042 -0.3020
15021TIP3    H166478   3.596   6.341   1.321 -0.8084  1.6721  0.4031
15021TIP3    H266479   3.659   6.441   1.227 -2.2770  1.6595 -0.6271
15022TIP3   OH266480   5.810   2.731  15.662 -0.0886 -0.2374 -0.1599
15022TIP3    H166481   5.899   2.753  15.635 -0.5567  1.3173 -0.5442
15022TIP3    H266482   5.821   2.668  15.733  1.3260  0.3758  0.1913
15023TIP3   OH266483   2.757   2.436   6.386  0.6112  0.2940 -0.1443
15023TIP3    H166484   2.729   2.355   6.344 -0.5221  1.4778 -1.7990
15023TIP3    H266485   2.691   2.452   6.453 -1.1464  1.5081 -2.0374
15024TIP3   OH266486   0.729   2.296  13.488  0.0652 -0.0564 -0.3931
15024TIP3    H166487   0.724   2.344  13.405  1.2462  1.7152  0.4920
15024TIP3    H266488   0.701   2.207  13.466 -0.0297  0.4536 -2.5990
15025TIP3   OH266489   5.825   0.159  16.860 -0.1216 -0.2339 -0.3795
15025TIP3    H166490   5.798   0.251  16.858 -0.1321 -0.2440 -0.7662
15025TIP3    H266491   5.750   0.113  16.898 -0.2241 -0.1189 -0.4401
15026TIP3   OH266492   3.992   0.009   1.220 -0.1963  0.2039 -0.4371
15026TIP3    H166493   3.933  -0.064   1.241  3.1404 -2.6767 -0.1851
15026TIP3    H266494   4.004   0.004   1.125  0.2807  0.2189 -0.3816
15027TIP3   OH266495   2.494   5.357   4.085 -0.0989 -0.5672 -0.3764
15027TIP3    H166496   2.434   5.321   4.151  0.2873 -1.3370 -0.4396
15027TIP3    H266497   2.581   5.348   4.125 -0.0961  1.7166  0.2631
15028TIP3   OH266498   4.386   3.885   0.456  0.4737  0.0540  0.1815
15028TIP3    H166499   4.301   3.915   0.489  1.0859  0.1074  1.7774
15028TIP3    H266500   4.378   3.789   0.454 -0.6488  0.1131 -2.6375
15029TIP3   OH266501   3.206   0.729   4.768  0.5808  0.2200  0.2857
15029TIP3    H166502   3.134   0.726   4.704  1.5265  0.8477 -0.8423
15029TIP3    H266503   3.188   0.807   4.821  1.2029  1.2502 -0.9684
15030TIP3   OH266504   5.142   3.193  13.844 -0.1577 -0.1734  0.4429
15030TIP3    H166505   5.058   3.209  13.802 -0.2175 -0.5517  0.4152
15030TIP3    H266506   5.199   3.263  13.811 -0.8564  1.0036  1.6243
15031TIP3   OH266507   3.494   4.531   3.321 -0.2574  0.5233 -0.2867
15031TIP3    H166508   3.538   4.488   3.248 -0.1159 -0.0817  0.1462
15031TIP3    H266509   3.565   4.563   3.377 -0.3658  0.5371 -0.1566
15032TIP3   OH266510   6.742   2.284   0.485 -0.4689 -0.3674  0.3801
15032TIP3    H166511   6.663   2.231   0.494 -1.3867  1.0390  1.0992
15032TIP3    H266512   6.716   2.355   0.426 -0.2546  0.9768  1.8409
15033TIP3   OH266513   0.497   2.035  14.356 -0.4647  0.2347 -0.0533
15033TIP3    H166514   0.518   2.000  14.442 -0.6389  1.3772  0.4681
15033TIP3    H266515   0.455   1.962  14.310  0.0837 -0.5338  0.6487
15034TIP3   OH266516   3.444   1.154   5.025  0.1858  0.2953  0.1231
15034TIP3    H166517   3.519   1.138   4.968  1.5884  2.4921  1.1960
15034TIP3    H266518   3.405   1.234   4.991 -0.2109  0.4877  1.0061
15035TIP3   OH266519   3.818   3.220  15.862  0.0378 -0.0582 -0.0451
15035TIP3    H166520   3.762   3.159  15.815  0.8700 -0.6292 -0.3158
15035TIP3    H266521   3.838   3.289  15.798  2.4775 -1.6393 -1.1443
15036TIP3   OH266522   2.060   2.270  13.545  0.2737 -0.5324  0.7650
15036TIP3    H166523   2.059   2.190  13.596  2.9818  0.4078  2.5701
15036TIP3    H266524   2.135   2.260  13.486 -0.8893 -0.2948 -0.8233
15037TIP3   OH266525   4.329   4.031   6.152 -0.3165  0.5583  0.4603
15037TIP3    H166526   4.374   4.107   6.190 -0.7550  0.9025  0.3103
15037TIP3    H266527   4.291   3.986   6.227  1.1826 -0.3551  0.7002
15038TIP3   OH266528   4.576   3.364   4.765  0.4032 -0.4334  0.5918
15038TIP3    H166529   4.494   3.318   4.751 -0.6779  2.0053 -2.0000
15038TIP3    H266530   4.636   3.327   4.701  0.6906 -0.7530  1.0393
15039TIP3   OH266531   2.050   4.734  11.539  0.3167 -0.4511  0.3615
15039TIP3    H166532   2.025   4.648  11.506  0.3074 -0.1984 -0.3101
15039TIP3    H266533   2.141   4.745  11.512  0.0711  0.0853 -0.2940
15040TIP3   OH266534   5.418   4.699   1.088  0.2809  0.0125  0.6825
15040TIP3    H166535   5.380   4.684   1.175  0.1525 -1.0352  0.4524
15040TIP3    H266536   5.359   4.654   1.028  0.1532  1.0592 -0.0059
15041TIP3   OH266537   1.467   1.889  10.984  0.1120  0.6215  0.3408
15041TIP3    H166538   1.512   1.959  10.937  1.3067 -0.4235 -0.1407
15041TIP3    H266539   1.374   1.906  10.969  0.3691  2.1427  0.3162
15042TIP3   OH266540   5.060   3.969   0.867  0.3759  0.1528 -0.2923
15042TIP3    H166541   5.096   3.959   0.779  1.1972  0.4961 -0.0160
15042TIP3    H266542   5.138   3.974   0.923 -0.0579  2.0334  0.2208
15043TIP3   OH266543   4.730   0.390   6.308 -0.0771 -0.2940 -0.3451
15043TIP3    H166544   4.823   0.397   6.283  0.1363  0.5231  0.6476
15043TIP3    H266545   4.730   0.326   6.379 -0.5207 -1.5818 -1.4397
15044TIP3   OH266546   6.607   0.045  15.694 -0.3139 -0.3958 -0.0397
15044TIP3    H166547   6.644   0.051  15.606 -2.0605 -0.6208 -0.8283
15044TIP3    H266548   6.513   0.037  15.680 -0.7472  0.6561  1.8897
15045TIP3   OH266549   1.083   6.344   1.105  0.5721  0.5358  0.3016
15045TIP3    H166550   1.024   6.269   1.092  1.0687  0.2803 -0.5454
15045TIP3    H266551   1.056   6.380   1.190  0.6682 -0.9262  1.0002
15046TIP3   OH266552   6.573   5.233   6.230 -0.2291 -0.4046 -0.4099
15046TIP3    H166553   6.590   5.264   6.319  1.9550  0.0082 -0.9165
15046TIP3    H266554   6.593   5.309   6.175 -0.2772 -1.0488 -1.3223
15047TIP3   OH266555   3.939   0.969  16.431  0.0958  0.3791  0.0039
15047TIP3    H166556   3.942   0.875  16.447  1.5376  0.7947  2.6933
15047TIP3    H266557   4.031   0.997  16.431 -0.3135  2.2321  3.0336
15048TIP3   OH266558   3.397   4.477  14.351 -0.0518  0.1099  0.0677
15048TIP3    H166559   3.377   4.398  14.402 -3.6572  0.4545 -0.5377
15048TIP3    H266560   3.430   4.443  14.268 -1.3031 -0.8131 -0.0868
15049TIP3   OH266561   3.305   4.549   3.926 -0.2168  0.0731 -0.1546
15049TIP3    H166562   3.355   4.497   3.989 -0.6306 -1.8136 -1.3020
15049TIP3    H266563   3.232   4.585   3.977  0.2957 -0.1308  0.7553
15050TIP3   OH266564   1.391   5.222  15.979  0.0757  0.3469 -0.0175
15050TIP3    H166565   1.350   5.260  16.056  1.3764  1.1895  0.2942
15050TIP3    H266566   1.385   5.291  15.913 -0.5885 -0.1911 -0.5314
15051TIP3   OH266567   0.979   6.630  15.969 -0.3600 -0.2544  0.4068
15051TIP3    H166568   0.886   6.635  15.950 -0.6557 -1.3544  1.4849
15051TIP3    H266569   1.019   6.602  15.886 -1.0445 -0.3667  0.1109
15052TIP3   OH266570   2.643   3.704   1.730 -0.2949 -0.1078 -0.5391
15052TIP3    H166571   2.573   3.678   1.790 -2.1421 -1.8777 -3.2486
15052TIP3    H266572   2.720   3.657   1.761 -0.9823 -0.3723  0.8518
15053TIP3   OH266573   2.690   1.651   1.620  0.4240  0.0855  0.2303
15053TIP3    H166574   2.606   1.695   1.633  0.8293  1.4444 -1.4040
15053TIP3    H266575   2.748   1.690   1.686  0.5077  1.3187 -0.5399
15054TIP3   OH266576   3.486   2.788   5.477  0.0249  0.0149  0.5948
15054TIP3    H166577   3.556   2.799   5.541 -1.5176  1.4539  2.1126
15054TIP3    H266578   3.426   2.725   5.517 -0.3388 -0.0180  0.0103
15055TIP3   OH266579   5.853   5.000   5.720  0.1374  0.7668  0.1159
15055TIP3    H166580   5.759   4.987   5.721  0.3158 -0.7583  1.2083
15055TIP3    H266581   5.886   4.941   5.788  1.9416  0.6445 -0.8074
15056TIP3   OH266582   4.863   1.966   5.315  0.4753 -0.1360 -0.2292
15056TIP3    H166583   4.823   1.902   5.374  1.6211 -0.4822  0.1945
15056TIP3    H266584   4.809   2.044   5.324  0.3130 -0.3602  0.8647
15057TIP3   OH266585   0.680   0.355  15.377 -0.3083  0.2800  0.6961
15057TIP3    H166586   0.686   0.284  15.442  1.8165 -1.0038 -0.7742
15057TIP3    H266587   0.617   0.323  15.312 -0.5512  0.4601  0.8412
15058TIP3   OH266588   5.420   0.342   5.832  0.7804 -0.5069 -0.3074
15058TIP3    H166589   5.482   0.406   5.797  1.0133 -0.9348 -0.6867
15058TIP3    H266590   5.375   0.388   5.903 -0.5558  0.8129 -1.9034
15059TIP3   OH266591   6.673   3.878   3.742 -0.2663 -0.3233 -0.1501
15059TIP3    H166592   6.632   3.940   3.681 -1.1797  0.0342  0.7994
15059TIP3    H266593   6.766   3.899   3.738 -0.5638  1.1567  0.1969
15060TIP3   OH266594   1.846   4.311  12.481  0.2803  0.8309  0.2090
15060TIP3    H166595   1.901   4.384  12.450 -1.7430  2.6223  0.6056
15060TIP3    H266596   1.768   4.354  12.516 -0.1160 -1.4467  2.3401
15061TIP3   OH266597   6.176   6.158  14.496  0.0515 -0.0305  0.2213
15061TIP3    H166598   6.141   6.203  14.573 -0.4684  2.2328 -1.2171
15061TIP3    H266599   6.134   6.072  14.497 -2.4067  1.0733  0.8090
15062TIP3   OH266600   2.167   1.538  16.806 -0.3248 -0.4768  0.4716
15062TIP3    H166601   2.080   1.507  16.831 -0.1221 -0.7139  0.8958
15062TIP3    H266602   2.155   1.631  16.788 -0.5689 -0.4031  1.0018
15063TIP3   OH266603   3.237   1.283  12.255 -0.6857 -0.1033 -0.1254
15063TIP3    H166604   3.150   1.318  12.275 -2.0639 -4.0497  1.6773
15063TIP3    H266605   3.265   1.239  12.335  1.4506 -1.8666 -1.6889
15064TIP3   OH266606   5.899   4.338   0.331 -0.2480  0.0503 -0.1755
15064TIP3    H166607   5.959   4.412   0.345  2.0914 -1.6625 -0.4198
15064TIP3    H266608   5.898   4.327   0.236 -3.1378  1.6365 -0.4320
15065TIP3   OH266609   4.555   2.696  14.445 -0.4315 -0.4103  0.3277
15065TIP3    H166610   4.589   2.745  14.521  2.0179 -1.3768 -0.0456
15065TIP3    H266611   4.627   2.699  14.382 -1.5591 -1.5768 -1.0503
15066TIP3   OH266612   2.887   1.420   0.648 -0.0655 -0.1723 -0.3894
15066TIP3    H166613   2.861   1.469   0.726 -0.6980 -0.1425 -0.6193
15066TIP3    H266614   2.887   1.329   0.675  3.1642  0.0053  0.6632
15067TIP3   OH266615   5.126   3.409   2.313  0.3950 -0.0991 -0.0693
15067TIP3    H166616   5.034   3.406   2.286  0.2940  1.2941  0.0497
15067TIP3    H266617   5.175   3.410   2.231  0.4713 -3.1316 -0.1755
15068TIP3   OH266618   2.209   4.563   5.232 -0.3711 -0.0914  0.4821
15068TIP3    H166619   2.243   4.582   5.144 -0.4548 -0.1659  0.4343
15068TIP3    H266620   2.261   4.619   5.290 -0.4713  0.1301  0.3618
15069TIP3   OH266621   1.062   5.182  16.182 -0.0141 -0.4671 -0.8339
15069TIP3    H166622   1.132   5.246  16.172  0.6626 -1.0215  0.1562
15069TIP3    H266623   1.106   5.103  16.212 -1.1465 -0.5439  0.7525
15070TIP3   OH266624   1.372   1.936   4.771  0.0023  0.1323 -0.0431
15070TIP3    H166625   1.414   1.980   4.697  1.7756  0.1032  0.8868
15070TIP3    H266626   1.385   1.843   4.754 -1.1441  0.0465 -0.5404
15071TIP3   OH266627   0.717   6.700  15.930 -0.6156  0.3800 -0.2500
15071TIP3    H166628   0.741   6.748  15.850  0.2084 -0.5631 -0.5809
15071TIP3    H266629   0.638   6.651  15.906 -0.5891  0.3951 -0.3695
15072TIP3   OH266630   5.498   2.454   5.524 -0.1788 -0.5332  0.3613
15072TIP3    H166631   5.429   2.397   5.491 -1.3342 -0.6373  2.7757
15072TIP3    H266632   5.476   2.541   5.490 -1.2350 -0.6523  0.7078
15073TIP3   OH266633   4.407   5.917   0.236 -0.2437  0.0953 -0.5113
15073TIP3    H166634   4.391   5.905   0.143 -0.3468  0.3962 -0.5330
15073TIP3    H266635   4.343   5.860   0.279 -0.0765 -0.1804 -0.6235
15074TIP3   OH266636   5.992   1.789  11.725 -0.5729 -0.3569  0.0133
15074TIP3    H166637   5.908   1.811  11.685  0.1041  0.5496 -0.9519
15074TIP3    H266638   6.044   1.753  11.654 -0.6370 -2.4317  0.9335
15075TIP3   OH266639   0.097   6.136   1.511 -0.7138 -0.6684 -0.2634
15075TIP3    H166640   0.159   6.207   1.529 -1.0799 -0.2957 -0.4686
15075TIP3    H266641   0.023   6.179   1.469 -0.5590 -1.2847 -1.2036
15076TIP3   OH266642   1.471   1.049  10.469  0.5772 -0.6260  0.0426
15076TIP3    H166643   1.466   1.017  10.379  0.3566  0.3090 -0.2951
15076TIP3    H266644   1.396   1.109  10.477  1.0029 -0.1585  0.6111
15077TIP3   OH266645   1.661   0.680  16.598  0.7955 -0.4088  0.0565
15077TIP3    H166646   1.615   0.625  16.535 -0.3830 -0.4478  0.9272
15077TIP3    H266647   1.709   0.619  16.653  1.3445 -0.4090 -0.4105
15078TIP3   OH266648   3.222   2.203  15.096  0.9646  0.0797  0.6259
15078TIP3    H166649   3.127   2.198  15.089  1.0657 -1.4500 -0.0023
15078TIP3    H266650   3.254   2.129  15.045  2.5855  1.8072 -1.0206
15079TIP3   OH266651   5.926   2.005   1.245 -0.2793 -0.0233 -0.1041
15079TIP3    H166652   5.982   1.977   1.318  1.0646 -1.1211 -1.4882
15079TIP3    H266653   5.837   1.984   1.274  0.4293 -3.2835  0.0869
15080TIP3   OH266654   4.055   3.529  15.480  0.2895  0.0016  0.1237
15080TIP3    H166655   4.013   3.616  15.480  0.5697  0.1377  0.6724
15080TIP3    H266656   4.006   3.480  15.415  1.2906  1.1377 -1.5807
15081TIP3   OH266657   3.425   4.313   1.325  0.5935  0.3402  0.5958
15081TIP3    H166658   3.504   4.309   1.378  1.3934 -2.2312 -0.6022
15081TIP3    H266659   3.448   4.368   1.251  1.5809 -0.9790 -0.1174
15082TIP3   OH266660   4.078   5.736   4.800 -0.1308  0.0229 -0.1406
15082TIP3    H166661   3.987   5.743   4.827  0.4587 -0.2622  2.1717
15082TIP3    H266662   4.095   5.816   4.750 -1.3306  0.6361  0.3979
15083TIP3   OH266663   5.759   5.114   2.465  0.2712  0.1020 -0.0062
15083TIP3    H166664   5.841   5.157   2.441  0.9680 -1.3658 -0.4043
15083TIP3    H266665   5.754   5.040   2.405 -1.3468  0.1565  0.0408
15084TIP3   OH266666   4.575   1.238  16.261  0.0556 -0.3769 -0.3280
15084TIP3    H166667   4.514   1.167  16.284 -0.3342 -0.7293 -2.3209
15084TIP3    H266668   4.659   1.194  16.248 -0.4478 -0.7512 -2.8090
15085TIP3   OH266669   6.616   5.609  12.418 -0.5580 -0.2026  0.4544
15085TIP3    H166670   6.529   5.578  12.445 -1.0982  0.0685 -0.9058
15085TIP3    H266671   6.599   5.689  12.369  0.2284 -1.2917 -1.7224
15086TIP3   OH266672   6.661   3.475  11.433  0.1290  0.0832 -0.4123
15086TIP3    H166673   6.711   3.494  11.512 -2.6806 -1.1043  1.8193
15086TIP3    H266674   6.589   3.538  11.434 -2.1216 -2.3293  0.1980
15087TIP3   OH266675   6.295   4.313  12.291  0.2703  0.7288  0.0368
15087TIP3    H166676   6.239   4.244  12.325 -0.4506  0.0465 -2.3322
15087TIP3    H266677   6.362   4.325  12.358  0.3112 -2.1358  0.6303
15088TIP3   OH266678   1.167   5.897   0.200  0.1063  0.3465 -0.0671
15088TIP3    H166679   1.207   5.982   0.181  0.5461 -0.1299 -1.3455
15088TIP3    H266680   1.184   5.844   0.123  1.4029 -1.4939  1.3907
15089TIP3   OH266681   6.691   5.218   4.072 -0.5443 -0.2344  0.3242
15089TIP3    H166682   6.678   5.130   4.108 -0.4714 -0.9932 -1.4167
15089TIP3    H266683   6.735   5.204   3.988 -0.8786  1.4351 -0.1700
15090TIP3   OH266684   4.120   5.752  16.637 -0.0367 -0.5751  0.5834
15090TIP3    H166685   4.117   5.701  16.718  0.1996 -0.2337  0.8115
15090TIP3    H266686   4.031   5.784  16.626 -0.5213 -2.1282 -0.2823
15091TIP3   OH266687   3.612   1.778  14.316  0.3000 -0.1686 -0.4097
15091TIP3    H166688   3.555   1.855  14.319 -1.4865 -1.4415  0.5607
15091TIP3    H266689   3.625   1.761  14.223 -0.0927  0.7470 -0.6382
15092TIP3   OH266690   3.349   4.185  12.980  0.6323  0.0712 -0.3178
15092TIP3    H166691   3.384   4.268  13.014 -0.2881  0.8219 -1.1292
15092TIP3    H266692   3.277   4.212  12.922 -0.4460 -1.3435  0.2986
15093TIP3   OH266693   1.972   6.158  12.422  0.5826  0.2535 -0.3128
15093TIP3    H166694   2.063   6.187  12.429 -0.1136  2.4749  0.5453
15093TIP3    H266695   1.945   6.185  12.335  0.3021  1.1750  0.0365
15094TIP3   OH266696   3.435   3.664  10.694 -0.0349 -0.0546  0.6069
15094TIP3    H166697   3.431   3.598  10.625 -1.6044 -1.6252  2.1058
15094TIP3    H266698   3.345   3.693  10.706  0.5434  2.0839  0.3304
15095TIP3   OH266699   0.207   2.513   3.399 -0.4017  0.3145  0.5823
15095TIP3    H166700   0.259   2.592   3.383 -0.6483  0.0660 -1.7707
15095TIP3    H266701   0.117   2.540   3.382 -0.5408 -0.3594  0.2274
15096TIP3   OH266702   0.281   2.132   1.448  0.0687  0.2162  0.3263
15096TIP3    H166703   0.253   2.094   1.532  0.8409  2.5006  1.7108
15096TIP3    H266704   0.200   2.140   1.398 -0.4217 -1.1628  0.8381
15097TIP3   OH266705   0.754   2.723  10.901  0.5128  0.3990 -0.1634
15097TIP3    H166706   0.688   2.656  10.884  1.4050 -0.7401  0.6887
15097TIP3    H266707   0.719   2.774  10.974  1.6430 -1.8438  2.0934
15098TIP3   OH266708   2.673   6.284   1.459  0.8123 -0.6828  0.1939
15098TIP3    H166709   2.638   6.373   1.470  1.4507 -0.1010 -2.0810
15098TIP3    H266710   2.709   6.262   1.545 -1.2442  0.3820  1.4032
15099TIP3   OH266711   5.374   0.748   0.609  0.2113 -0.1771  0.5469
15099TIP3    H166712   5.341   0.665   0.574  1.5181 -0.5815  0.2116
15099TIP3    H266713   5.296   0.795   0.637 -0.8374 -0.3211 -1.8665
15100TIP3   OH266714   2.716   0.091  12.428  0.1182 -0.1212 -0.7647
15100TIP3    H166715   2.736   0.173  12.383  3.2482 -0.3103  0.0611
15100TIP3    H266716   2.777   0.028  12.391 -0.0615 -1.2896  0.8354
15101TIP3   OH266717   6.597   3.126  16.600  0.3140 -0.2652 -0.0684
15101TIP3    H166718   6.626   3.217  16.611  0.5184 -0.3779  0.3285
15101TIP3    H266719   6.504   3.133  16.580  0.5450  0.0897 -1.0972
15102TIP3   OH266720   5.996   2.119  16.223  0.1296  0.2605 -0.1749
15102TIP3    H166721   5.969   2.140  16.133 -2.4716  0.5747  0.5810
15102TIP3    H266722   6.060   2.049  16.213  1.6522  1.8389 -2.3333
15103TIP3   OH266723   2.139   1.538  15.078 -0.5917 -0.1875  0.0924
15103TIP3    H166724   2.047   1.564  15.079 -1.1486 -1.8428  2.5252
15103TIP3    H266725   2.147   1.476  15.151  2.8955  1.4025  1.2848
15104TIP3   OH266726   4.275   4.951  15.183  0.1210  0.5904  0.4561
15104TIP3    H166727   4.212   4.965  15.113 -0.1463 -1.9596  0.0960
15104TIP3    H266728   4.358   4.936  15.138  0.3167  0.7327  0.7655
15105TIP3   OH266729   1.607   6.631   0.995  0.3871 -0.6169 -0.4343
15105TIP3    H166730   1.543   6.640   0.923  0.2326  0.8053 -0.1362
15105TIP3    H266731   1.608   6.537   1.012 -0.8582 -0.8007 -1.1534
15106TIP3   OH266732   3.294   0.577   5.993  0.1647 -0.0959  0.2185
15106TIP3    H166733   3.254   0.591   6.079 -0.7412  0.3785 -0.2595
15106TIP3    H266734   3.337   0.660   5.973  0.2299 -0.1497  0.1358
15107TIP3   OH266735   2.336   1.759   4.273  0.4349 -0.2878  0.0591
15107TIP3    H166736   2.416   1.798   4.306 -0.4947  0.6327  1.3416
15107TIP3    H266737   2.268   1.825   4.289 -0.5031 -0.8156 -1.4804
15108TIP3   OH266738   1.876   2.030  12.419  0.2590  0.0612  0.2406
15108TIP3    H166739   1.781   2.024  12.411  0.1962 -0.0216  1.0034
15108TIP3    H266740   1.896   2.122  12.399  0.2011 -0.2668 -1.5151
15109TIP3   OH266741   4.581   3.685  11.671  0.2152  0.2023 -0.1005
15109TIP3    H166742   4.605   3.606  11.719  0.7682  0.7604  0.5668
15109TIP3    H266743   4.639   3.753  11.707 -1.6164  1.3615  0.7967
15110TIP3   OH266744   6.712   2.935  13.353  0.2310  0.0182  0.4814
15110TIP3    H166745   6.763   3.016  13.360  0.8394 -0.3352  0.1900
15110TIP3    H266746   6.681   2.934  13.262  0.1363 -0.0320  0.5131
15111TIP3   OH266747   0.198   6.477   3.127  0.2701  0.0285  0.6291
15111TIP3    H166748   0.231   6.557   3.085 -1.4678  0.2845 -0.3361
15111TIP3    H266749   0.105   6.493   3.140  0.2313 -1.1695  2.0690
15112TIP3   OH266750   0.211   1.345   4.147 -0.3766 -0.6013 -0.5140
15112TIP3    H166751   0.253   1.269   4.186  0.6201  0.5111  0.6650
15112TIP3    H266752   0.172   1.392   4.221 -1.1600 -0.0649 -1.2393
15113TIP3   OH266753   4.649   6.241   4.373 -0.2975 -0.7030 -0.0580
15113TIP3    H166754   4.570   6.199   4.408  1.0900 -0.4593  3.9586
15113TIP3    H266755   4.704   6.168   4.344 -0.9321 -1.0888 -0.2918
15114TIP3   OH266756   4.654   2.855  12.047 -0.5547 -0.1270 -0.1176
15114TIP3    H166757   4.619   2.767  12.029  0.1785 -0.4606  0.0498
15114TIP3    H266758   4.688   2.885  11.962  1.5748 -1.1010  0.3270
15115TIP3   OH266759   0.960   1.812  12.844  0.1341 -0.0686 -0.6174
15115TIP3    H166760   0.991   1.867  12.916 -1.4662  0.1936 -0.1093
15115TIP3    H266761   0.865   1.808  12.855 -0.0199 -0.9990 -2.0319
15116TIP3   OH266762   3.472   5.251  15.629 -0.0675 -0.7999 -0.1239
15116TIP3    H166763   3.435   5.170  15.594 -1.3409 -0.5908  0.6705
15116TIP3    H266764   3.448   5.318  15.565 -0.4929 -0.7718  0.0665
15117TIP3   OH266765   2.791   2.755  17.051  0.0239  0.0540  0.3896
15117TIP3    H166766   2.804   2.774  16.958 -0.0585 -2.6385 -0.2402
15117TIP3    H266767   2.697   2.740  17.060  0.1598 -0.6761  0.6820
15118TIP3   OH266768   3.068   0.376   3.128  0.0623 -0.3232 -0.0189
15118TIP3    H166769   3.080   0.392   3.222 -1.0735  0.4118  0.0193
15118TIP3    H266770   3.012   0.299   3.124 -1.6030  0.8344 -0.0199
15119TIP3   OH266771   2.387   6.505  14.532 -0.3367 -0.0799 -0.0639
15119TIP3    H166772   2.347   6.526  14.448  0.9651  3.0127 -0.0649
15119TIP3    H266773   2.459   6.446  14.510  0.1610  0.9112 -1.2066
15120TIP3   OH266774   4.163   3.454  12.012  0.0084  0.4323 -0.2911
15120TIP3    H166775   4.157   3.520  12.081  3.6733 -0.1096  0.7502
15120TIP3    H266776   4.108   3.488  11.942  0.9425  4.1728  0.5583
15121TIP3   OH266777   0.888   3.597  16.065 -0.6455 -0.2082 -0.2160
15121TIP3    H166778   0.804   3.554  16.053 -0.6396 -0.8171  1.6370
15121TIP3    H266779   0.897   3.607  16.160  1.4833 -0.3717 -0.3509
15122TIP3   OH266780   0.394   2.652   5.095 -0.5617  0.1026 -0.3764
15122TIP3    H166781   0.322   2.600   5.132 -0.5214  1.3281  1.5683
15122TIP3    H266782   0.473   2.601   5.115 -0.8240 -1.2900 -2.5961
15123TIP3   OH266783   4.030   5.796  12.620  0.1956  0.0814 -0.0884
15123TIP3    H166784   3.954   5.849  12.644 -1.2196 -1.8880  0.0454
15123TIP3    H266785   4.046   5.741  12.696  1.3563  0.0276 -0.3585
15124TIP3   OH266786   0.579   1.220  15.386 -0.2094  0.1699  0.2123
15124TIP3    H166787   0.526   1.262  15.319  0.9399  1.5429  0.1112
15124TIP3    H266788   0.515   1.183  15.447 -1.2675 -0.6209 -1.3108
15125TIP3   OH266789   2.265   4.709   5.003  0.2951  0.3017 -0.0107
15125TIP3    H166790   2.271   4.803   4.985 -0.8029  0.1853 -1.1387
15125TIP3    H266791   2.235   4.670   4.920 -0.6320 -0.8514  0.8229
15126TIP3   OH266792   1.536   6.152   0.552 -0.3852  0.3973 -0.1583
15126TIP3    H166793   1.544   6.206   0.631  1.6750  1.9312 -1.3255
15126TIP3    H266794   1.505   6.213   0.485  0.7205 -0.1647 -1.2134
15127TIP3   OH266795   3.651   5.796  15.871  1.0782  0.2569 -0.2176
15127TIP3    H166796   3.556   5.808  15.870  1.1700  0.9984 -1.2361
15127TIP3    H266797   3.663   5.701  15.870  0.3545 -0.1036  4.2442
15128TIP3   OH266798   4.211   1.367   6.001 -0.3012  0.2980 -0.9737
15128TIP3    H166799   4.284   1.403   5.951  0.4071  0.9487  0.4582
15128TIP3    H266800   4.154   1.328   5.936  1.8877 -1.2767 -2.0849
15129TIP3   OH266801   4.153   3.918   1.450 -0.5140 -0.5275  0.0940
15129TIP3    H166802   4.203   3.996   1.427  0.6246 -0.5182  2.2698
15129TIP3    H266803   4.199   3.846   1.406  0.5265 -0.3249  0.7982
15130TIP3   OH266804   5.320   2.654   5.409 -0.8533 -0.1386 -0.0008
15130TIP3    H166805   5.246   2.704   5.443 -1.4820  0.6175 -2.2951
15130TIP3    H266806   5.290   2.563   5.409 -1.3077  0.0083  0.2384
15131TIP3   OH266807   1.680   0.310   4.671 -0.7535  0.0962 -0.3629
15131TIP3    H166808   1.592   0.273   4.666 -0.8689  0.2976  0.0722
15131TIP3    H266809   1.708   0.319   4.580 -1.4815  0.7204 -0.5391
15132TIP3   OH266810   2.161   3.649   2.530  0.5048  0.3925  0.2062
15132TIP3    H166811   2.119   3.563   2.524  0.2245  0.4598  1.1117
15132TIP3    H266812   2.254   3.631   2.518  0.4983 -0.0948  0.8425
15133TIP3   OH266813   3.108   6.459  16.428 -0.2950  0.5610  0.1460
15133TIP3    H166814   3.031   6.513  16.409 -0.5573  2.0824  4.4550
15133TIP3    H266815   3.074   6.370  16.432 -1.3691  0.9383 -0.1667
15134TIP3   OH266816   1.736   6.546  14.998 -0.0352  0.0936 -0.1801
15134TIP3    H166817   1.785   6.570  14.920  0.0572 -2.2584 -0.9187
15134TIP3    H266818   1.702   6.459  14.979 -1.4543  0.1687  1.7498
15135TIP3   OH266819   3.279   1.216  14.865  0.0157 -0.3155  0.4605
15135TIP3    H166820   3.360   1.176  14.897  0.9940  0.4441 -0.9458
15135TIP3    H266821   3.262   1.171  14.782 -1.6072 -1.1902  1.2232
15136TIP3   OH266822   6.533   3.503  16.135  0.0475  0.2222 -0.2484
15136TIP3    H166823   6.621   3.466  16.142 -0.8364 -1.7572  2.5035
15136TIP3    H266824   6.531   3.574  16.199 -1.1077 -1.7910  2.1438
15137TIP3   OH266825   1.616   0.032   3.355  0.0013 -0.1680  0.2971
15137TIP3    H166826   1.638   0.125   3.352 -0.8996  0.0305 -0.6415
15137TIP3    H266827   1.700  -0.012   3.352  0.3989  0.6050 -1.0163
15138TIP3   OH266828   0.584   1.280  12.830 -0.7137  0.0454  0.0541
15138TIP3    H166829   0.536   1.345  12.883  0.6395  1.6678 -0.6340
15138TIP3    H266830   0.656   1.253  12.887 -0.5268  0.1242 -0.1480
15139TIP3   OH266831   0.931   5.851  11.081  0.8638  0.3815 -0.3431
15139TIP3    H166832   0.876   5.773  11.072  2.4131 -0.7528 -0.3456
15139TIP3    H266833   0.882   5.920  11.035  0.2362 -0.9868 -1.8528
15140TIP3   OH266834   2.818   4.900   4.774 -0.3059  0.3990  0.1829
15140TIP3    H166835   2.779   4.891   4.687  1.8603  1.3949 -0.9803
15140TIP3    H266836   2.808   4.814   4.814 -1.6310  0.0050 -0.9250
15141TIP3   OH266837   1.549   2.616  15.716  0.4382  0.3981 -0.2567
15141TIP3    H166838   1.490   2.599  15.643  1.6995 -5.0114 -0.4542
15141TIP3    H266839   1.599   2.693  15.690 -2.3010  1.5151 -2.7888
15142TIP3   OH266840   2.537   6.346   2.139 -0.0579 -0.1022 -0.2454
15142TIP3    H166841   2.584   6.429   2.135 -1.3714  0.6338 -0.9379
15142TIP3    H266842   2.515   6.336   2.232  2.5238 -1.1257  0.3430
15143TIP3   OH266843   4.992   4.469   4.651  0.2868  0.0988  0.5982
15143TIP3    H166844   5.030   4.523   4.719  0.2985  0.3568  0.3910
15143TIP3    H266845   4.923   4.524   4.612  1.1015  0.4359 -0.4241
15144TIP3   OH266846   4.191   2.853   5.348  0.2845  0.2555  0.5908
15144TIP3    H166847   4.166   2.862   5.256 -2.2681  1.7306  1.3002
15144TIP3    H266848   4.151   2.771   5.376 -0.5384  0.7055  0.7821
15145TIP3   OH266849   5.288   3.944   2.038 -0.2041  0.1939  0.5102
15145TIP3    H166850   5.272   3.968   1.947  2.8162  2.0330  0.3420
15145TIP3    H266851   5.200   3.931   2.075 -1.5371 -1.8534 -2.8712
15146TIP3   OH266852   2.708   5.655   1.812 -0.4114 -0.2203  0.0081
15146TIP3    H166853   2.789   5.661   1.762 -0.4675 -1.2903 -0.2300
15146TIP3    H266854   2.650   5.602   1.757 -0.4497 -1.4720  1.2276
15147TIP3   OH266855   5.614   3.807  16.018 -0.7937 -0.1926 -0.5643
15147TIP3    H166856   5.524   3.817  16.049 -0.3776  0.0062  0.6497
15147TIP3    H266857   5.640   3.896  15.991 -0.1813  0.2787  1.4058
15148TIP3   OH266858   0.775   2.598   1.153 -0.6683 -0.0963 -0.8792
15148TIP3    H166859   0.706   2.633   1.211 -1.7909 -2.0452 -0.9382
15148TIP3    H266860   0.835   2.553   1.213 -0.9129 -0.6669 -1.0551
15149TIP3   OH266861   3.756   4.618  13.544  0.2300  0.6854  0.2414
15149TIP3    H166862   3.716   4.696  13.583  1.4841  1.9577 -0.9029
15149TIP3    H266863   3.767   4.558  13.617  0.4435  2.0964  1.4199
15150TIP3   OH266864   6.181   5.212   3.639  0.4282  0.0153  0.0969
15150TIP3    H166865   6.115   5.233   3.573  0.3426 -0.8413 -0.1108
15150TIP3    H266866   6.176   5.283   3.703 -0.5248  0.0874 -0.0460
15151TIP3   OH266867   0.814   3.566  12.555 -0.3085  0.3870  0.2890
15151TIP3    H166868   0.847   3.607  12.475  0.7083  0.1245  0.5520
15151TIP3    H266869   0.878   3.498  12.575  0.2234  1.3395  2.0603
15152TIP3   OH266870   4.281   3.018  16.197 -0.3215  0.6259  0.2491
15152TIP3    H166871   4.353   3.067  16.158 -1.2888 -0.2150 -2.9048
15152TIP3    H266872   4.215   3.012  16.127 -1.8902 -1.7854  1.7775
15153TIP3   OH266873   3.030   1.330   2.748 -0.0462 -0.5948  0.1987
15153TIP3    H166874   2.984   1.334   2.664  1.7124 -0.8759 -0.8439
15153TIP3    H266875   3.015   1.240   2.779  0.5726 -0.9924 -0.6144
15154TIP3   OH266876   4.312   2.515   1.912  0.1811 -0.4775 -0.5174
15154TIP3    H166877   4.326   2.567   1.833  0.2264 -0.5406 -0.5513
15154TIP3    H266878   4.322   2.577   1.984  0.0078 -0.3927 -0.5663
15155TIP3   OH266879   2.614   5.156   3.769  0.8094  0.3281  0.0187
15155TIP3    H166880   2.661   5.214   3.829  1.0534 -0.6616  0.8171
15155TIP3    H266881   2.524   5.155   3.802  1.0080 -0.4456  0.5727
15156TIP3   OH266882   5.399   1.767  16.035  0.5329  0.1295  0.1701
15156TIP3    H166883   5.480   1.722  16.010  0.1201  0.1339 -1.2728
15156TIP3    H266884   5.401   1.849  15.986  0.3449  0.8150  1.2763
15157TIP3   OH266885   1.858   3.879  16.713  0.4406  0.2203 -0.2144
15157TIP3    H166886   1.878   3.971  16.693 -1.7246  1.1688  1.5255
15157TIP3    H266887   1.932   3.850  16.767  0.0201  1.7915  1.3273
15158TIP3   OH266888   3.130   5.631   5.112 -0.2417  0.0985  0.5843
15158TIP3    H166889   3.102   5.695   5.046 -2.0831 -0.6242  0.6013
15158TIP3    H266890   3.123   5.546   5.068 -0.2557 -0.2904  1.3135
15159TIP3   OH266891   1.635   1.791   5.661 -0.8967  0.4175  0.2594
15159TIP3    H166892   1.653   1.773   5.568  2.5137  2.5410  0.3376
15159TIP3    H266893   1.559   1.849   5.660 -1.7283 -0.6108 -1.0423
15160TIP3   OH266894   2.483   4.294   6.252  0.2280 -0.7593  0.7666
15160TIP3    H166895   2.393   4.260   6.254  0.3927 -1.1872  0.8979
15160TIP3    H266896   2.538   4.219   6.272  0.5880 -0.3739  1.2491
15161TIP3   OH266897   5.007   1.970   5.093  0.4171  0.1648 -0.0249
15161TIP3    H166898   4.958   1.968   5.175 -0.1529  0.2512 -0.3576
15161TIP3    H266899   5.065   2.046   5.101 -0.8921  1.2461 -0.3989
15162TIP3   OH266900   3.099   1.352  13.890  0.1099  0.2132  0.3917
15162TIP3    H166901   3.022   1.296  13.900  1.5847 -1.6753  2.0279
15162TIP3    H266902   3.105   1.368  13.796 -1.3296 -0.9902  0.0593
15163TIP3   OH266903   0.251   4.812  16.281 -0.2695 -0.1245  0.2237
15163TIP3    H166904   0.173   4.758  16.263 -0.0672  0.1821 -1.8675
15163TIP3    H266905   0.303   4.758  16.340 -1.9580 -0.4197  1.5280
15164TIP3   OH266906   3.504   4.855   0.336 -0.1109 -0.4497  0.1871
15164TIP3    H166907   3.466   4.942   0.324  0.9450 -0.0063 -0.0348
15164TIP3    H266908   3.576   4.851   0.273 -1.7818 -2.5220 -1.7910
15165TIP3   OH266909   6.266   3.912   1.785 -0.2472 -0.1307 -0.5298
15165TIP3    H166910   6.304   3.850   1.847 -2.4147  0.4264  1.5198
15165TIP3    H266911   6.172   3.904   1.798 -0.6926  4.8754  1.3235
15166TIP3   OH266912   0.636   3.446  13.073 -0.1578 -0.1681 -0.4289
15166TIP3    H166913   0.716   3.442  13.020  0.8543 -2.9376  1.0780
15166TIP3    H266914   0.581   3.377  13.037 -1.1796  0.6128 -0.3885
15167TIP3   OH266915   3.252   0.610  12.960  0.1856  0.0139  0.3506
15167TIP3    H166916   3.331   0.641  12.917  0.0427 -1.2981 -0.9317
15167TIP3    H266917   3.182   0.664  12.923  0.3162  0.2979  0.5155
15168TIP3   OH266918   2.281   0.798  15.509 -0.3636  0.4086  0.5242
15168TIP3    H166919   2.266   0.704  15.493  0.7827  0.1920  0.6451
15168TIP3    H266920   2.351   0.801  15.573 -0.6721  1.3594  0.8316
15169TIP3   OH266921   6.728   2.074   5.489 -0.2332  0.2486 -0.0513
15169TIP3    H166922   6.726   2.094   5.395 -1.4329 -0.1380 -0.1273
15169TIP3    H266923   6.686   2.150   5.530 -2.4634 -0.8418 -0.1233
15170TIP3   OH266924   0.465   5.221   0.685 -0.3004 -0.5218  0.1472
15170TIP3    H166925   0.534   5.184   0.739  0.9709 -2.0029 -2.3423
15170TIP3    H266926   0.495   5.310   0.664 -0.1212 -0.4550  0.6830
15171TIP3   OH266927   1.514   3.382  14.861 -0.7997 -0.5138  0.1317
15171TIP3    H166928   1.572   3.391  14.937 -0.3133  0.9016 -0.3784
15171TIP3    H266929   1.427   3.373  14.899 -0.3339 -2.3400  0.8995
15172TIP3   OH266930   5.690   5.840   6.527  0.5409 -0.1501  0.0256
15172TIP3    H166931   5.622   5.776   6.549 -0.5213  0.6420 -0.8120
15172TIP3    H266932   5.688   5.844   6.431  0.7893  0.9147  0.0535
15173TIP3   OH266933   5.512   3.409  14.421  0.1316 -0.4517  0.3657
15173TIP3    H166934   5.482   3.374  14.505 -0.4157 -1.7922 -0.3541
15173TIP3    H266935   5.447   3.379  14.357  0.4790  0.6227 -0.5364
15174TIP3   OH266936   1.916   6.146  14.609  0.2071 -0.1114 -0.5860
15174TIP3    H166937   1.886   6.111  14.693  1.2116  0.4105  0.0173
15174TIP3    H266938   1.840   6.192  14.573 -0.2057 -0.2611  0.0784
15175TIP3   OH266939   5.206   0.107  15.675 -0.4145 -0.0524 -0.1170
15175TIP3    H166940   5.247   0.117  15.761  0.1412 -2.8942  0.0783
15175TIP3    H266941   5.112   0.103  15.693 -0.2779 -0.9960  0.4394
15176TIP3   OH266942   1.244   4.291   1.534 -0.1272  0.4783  0.4425
15176TIP3    H166943   1.167   4.249   1.495 -0.2820  1.6455 -0.5770
15176TIP3    H266944   1.314   4.227   1.525 -0.3593  0.4116 -1.0619
15177TIP3   OH266945   3.251   0.140   0.669 -0.3215 -0.3734 -0.6319
15177TIP3    H166946   3.282   0.153   0.579 -0.1316 -0.0195 -0.5156
15177TIP3    H266947   3.161   0.108   0.658 -0.3861 -0.0907 -0.9433
15178TIP3   OH266948   0.037   2.960   2.253 -0.1538  0.2784  0.3832
15178TIP3    H166949  -0.020   2.899   2.206 -0.9698  2.0395 -1.0329
15178TIP3    H266950  -0.023   3.017   2.301  0.3119  2.1602 -1.1201
15179TIP3   OH266951   0.086   3.170  13.326  0.0450 -0.1538 -0.1161
15179TIP3    H166952   0.037   3.252  13.336  0.6188  0.0679  0.9353
15179TIP3    H266953   0.151   3.189  13.258 -0.9496 -0.2988 -1.1577
15180TIP3   OH266954   2.871   6.021  16.697 -0.6697 -0.0267 -0.1274
15180TIP3    H166955   2.798   5.969  16.663 -0.6355 -0.5082  0.5311
15180TIP3    H266956   2.879   5.995  16.788  2.2659 -2.2487 -0.8576
15181TIP3   OH266957   2.689   3.457   4.679  0.0096 -0.1713  0.4779
15181TIP3    H166958   2.714   3.364   4.681  2.5445  0.4000 -0.6919
15181TIP3    H266959   2.660   3.472   4.589  0.1854  0.3084  0.5006
15182TIP3   OH266960   2.909   5.292  11.366  0.6823  0.9034  1.0405
15182TIP3    H166961   2.906   5.199  11.341 -1.4993  1.1456  0.1754
15182TIP3    H266962   2.948   5.336  11.290  0.1244  0.8725  0.7277
15183TIP3   OH266963   4.923   4.481  11.018 -0.4045 -0.2410  0.3890
15183TIP3    H166964   4.835   4.461  10.986  0.3106 -1.2901 -1.0162
15183TIP3    H266965   4.972   4.400  11.007  0.7628  0.3442  1.1066
15184TIP3   OH266966   0.798   0.334  16.926  0.0328 -0.2898 -0.0885
15184TIP3    H166967   0.811   0.365  16.837  1.2992  1.8694  0.7447
15184TIP3    H266968   0.704   0.345  16.942 -0.0212  0.3979 -0.8108
15185TIP3   OH266969   5.418   2.277   2.680  0.4391  0.5717 -0.0154
15185TIP3    H166970   5.439   2.200   2.627 -1.3360 -0.6169  0.8986
15185TIP3    H266971   5.356   2.326   2.627  0.6046  0.7240 -0.0705
15186TIP3   OH266972   2.158   2.220   1.401 -0.3828 -0.0066 -0.0997
15186TIP3    H166973   2.172   2.314   1.391  1.8770 -0.3807 -1.1163
15186TIP3    H266974   2.226   2.192   1.462 -0.4514 -1.1078 -0.5041
15187TIP3   OH266975   6.438   5.319  13.783  0.3284  0.5725  0.3246
15187TIP3    H166976   6.370   5.262  13.748  0.5168 -1.0110  2.3956
15187TIP3    H266977   6.518   5.293  13.737  0.7018 -1.9208  2.2330
15188TIP3   OH266978   0.618   1.335  16.061  0.3334 -0.1641 -0.0277
15188TIP3    H166979   0.598   1.413  16.113  0.4743 -1.5687  2.2944
15188TIP3    H266980   0.640   1.268  16.126  2.8793 -1.4262 -2.0162
15189TIP3   OH266981   3.061   5.180   0.634  0.2771  0.6793 -0.0940
15189TIP3    H166982   3.060   5.089   0.665 -0.4730  0.9491  0.7012
15189TIP3    H266983   3.013   5.229   0.700 -0.3063  1.4857 -1.0786
15190TIP3   OH266984   0.401   5.516  12.594 -0.2477 -0.0443  0.6677
15190TIP3    H166985   0.311   5.522  12.563  0.1667  2.4244 -0.2589
15190TIP3    H266986   0.451   5.574  12.536  1.6753 -0.2014  2.0599
15191TIP3   OH266987   0.686   5.802   1.598 -0.1015  0.1268 -0.5571
15191TIP3    H166988   0.614   5.854   1.562 -0.8106  0.8069  1.6359
15191TIP3    H266989   0.660   5.711   1.581 -1.2836  0.3749 -0.2222
15192TIP3   OH266990   6.053   2.273  10.515  0.8054 -0.1714 -0.5612
15192TIP3    H166991   6.109   2.323  10.574  1.5018 -1.1971 -0.3247
15192TIP3    H266992   5.991   2.337  10.481  0.9447  0.6170  0.6081
15193TIP3   OH266993   2.098   1.491   6.231  0.1990 -0.1637 -0.2080
15193TIP3    H166994   2.049   1.530   6.158  0.9066 -0.5202 -0.8812
15193TIP3    H266995   2.111   1.564   6.292  0.0516  0.2576 -0.6735
15194TIP3   OH266996   3.312   3.948  11.796  0.4585 -0.3972  0.1696
15194TIP3    H166997   3.314   4.043  11.804  2.2503 -0.3303 -0.6961
15194TIP3    H266998   3.327   3.916  11.885  1.5899  0.1603  0.1931
15195TIP3   OH266999   6.662   4.501   1.510  0.1741  0.0995  0.2280
15195TIP3    H167000   6.739   4.444   1.508  0.2050  0.1399  0.2923
15195TIP3    H267001   6.655   4.531   1.600  0.2491  0.3216  0.1621
15196TIP3   OH267002   4.334   4.238   0.695 -0.2287 -0.9581 -0.2571
15196TIP3    H167003   4.335   4.332   0.678  1.1780 -1.0577 -0.8091
15196TIP3    H267004   4.409   4.204   0.647 -1.5172 -2.5792 -1.2012
15197TIP3   OH267005   2.259   6.573   5.843  0.4303 -0.2221 -0.0331
15197TIP3    H167006   2.224   6.627   5.914  0.8291  0.7233 -0.5254
15197TIP3    H267007   2.209   6.492   5.846  1.3152 -0.7454  2.1616
15198TIP3   OH267008   2.278   2.975  15.811  1.3094 -0.3097 -0.0667
15198TIP3    H167009   2.301   3.026  15.888  1.0683 -0.2099 -0.0563
15198TIP3    H267010   2.241   2.894  15.846  1.4342 -0.3715 -0.0787
15199TIP3   OH267011   6.457   1.234   1.059  0.4570 -0.0378  0.5320
15199TIP3    H167012   6.530   1.292   1.080  0.3977 -0.5764  2.4764
15199TIP3    H267013   6.409   1.279   0.990  1.1552  1.5995  1.0630
15200TIP3   OH267014   3.840   1.814  16.862  0.0423 -0.4460  0.6177
15200TIP3    H167015   3.851   1.901  16.825 -0.3312  0.1045  1.7231
15200TIP3    H267016   3.862   1.754  16.791 -1.7023  0.5263 -0.8329
15201TIP3   OH267017   5.835   1.917  11.547  0.2038  0.1955  0.3500
15201TIP3    H167018   5.882   1.965  11.480 -0.2241 -0.8909 -0.7558
15201TIP3    H267019   5.752   1.964  11.557 -0.5916 -0.7796 -1.3687
15202TIP3   OH267020   0.529   5.315  12.144  0.2585 -0.1059  0.3664
15202TIP3    H167021   0.595   5.251  12.116 -0.0008 -0.1824 -0.0835
15202TIP3    H267022   0.471   5.265  12.202  0.5397 -0.0626  0.6873
15203TIP3   OH267023   1.509   3.811  13.877 -0.1930 -0.3828  0.2398
15203TIP3    H167024   1.502   3.716  13.868 -0.8504 -0.2410 -0.8752
15203TIP3    H267025   1.469   3.831  13.962 -0.6474 -1.0274  0.1787
15204TIP3   OH267026   0.958   6.089  11.390  0.3742  0.1710  0.2633
15204TIP3    H167027   0.896   6.020  11.365 -0.0272  0.9405 -1.0125
15204TIP3    H267028   0.902   6.162  11.417  0.7946  0.0096  1.6570
15205TIP3   OH267029   0.705   6.570  17.185  0.3197 -0.4977  0.3223
15205TIP3    H167030   0.711   6.566  17.280  0.6304  0.4377  0.3566
15205TIP3    H267031   0.647   6.498  17.161 -1.1855  0.2910  1.3728
15206TIP3   OH267032   1.173   4.036   4.536  0.1313 -0.1175 -0.2036
15206TIP3    H167033   1.184   3.975   4.609 -1.2514 -0.0331  0.1116
15206TIP3    H267034   1.166   3.979   4.459  0.5272 -0.2640 -0.1337
15207TIP3   OH267035   4.203   1.293   0.616 -0.1408  0.1049 -0.2052
15207TIP3    H167036   4.252   1.372   0.595  0.5771 -0.3635 -0.3471
15207TIP3    H267037   4.154   1.315   0.695  0.3265  0.5780 -0.0397
15208TIP3   OH267038   0.044   2.918   2.778  0.8899  0.8511 -0.3678
15208TIP3    H167039   0.076   2.955   2.861  1.0988  0.5044 -0.2951
15208TIP3    H267040  -0.047   2.897   2.795  0.6833  1.5939 -0.4948
15209TIP3   OH267041   6.041   5.953   5.213  0.6868  0.4105 -0.2126
15209TIP3    H167042   5.988   6.032   5.213  0.0077 -0.0122  1.2449
15209TIP3    H267043   5.993   5.891   5.158  1.0610  0.8980 -1.0981
15210TIP3   OH267044   3.799   6.296   1.760  0.0919  0.0391 -0.2800
15210TIP3    H167045   3.792   6.391   1.768 -1.8864 -0.2054  1.8304
15210TIP3    H267046   3.885   6.282   1.720  0.3067  2.6980 -0.9472
15211TIP3   OH267047   4.341   3.606  16.263 -0.3534  0.4210 -0.0107
15211TIP3    H167048   4.292   3.537  16.309 -1.1377  1.2670  0.4610
15211TIP3    H267049   4.324   3.590  16.170  1.3647 -1.4008 -0.0842
15212TIP3   OH267050   1.858   5.375   4.008  0.7825  0.0854 -0.3174
15212TIP3    H167051   1.934   5.427   3.984  1.1129  0.9854  2.3422
15212TIP3    H267052   1.794   5.390   3.939  1.0100  3.7777  0.1140
15213TIP3   OH267053   3.908   0.439   5.082  0.0584 -0.3493 -0.1368
15213TIP3    H167054   3.857   0.499   5.136 -0.3861 -1.6223  0.8850
15213TIP3    H267055   3.852   0.421   5.006 -0.5863 -0.8932  0.4530
15214TIP3   OH267056   0.334   0.756   1.295  0.3940  0.2387 -0.3194
15214TIP3    H167057   0.252   0.761   1.244 -0.5218 -1.9514  0.7997
15214TIP3    H267058   0.364   0.847   1.299 -0.9231  0.8689 -2.4159
15215TIP3   OH267059   2.695   1.489  14.023 -0.4779 -0.1957  0.2504
15215TIP3    H167060   2.661   1.497  14.112 -0.6096  0.7201  0.1228
15215TIP3    H267061   2.755   1.414  14.028  0.2183  0.4015  1.3376
15216TIP3   OH267062   2.980   6.536  13.807 -1.0685 -0.6712  0.1561
15216TIP3    H167063   2.899   6.509  13.765  1.1169 -3.3128 -2.8429
15216TIP3    H267064   2.984   6.484  13.887 -2.2173 -0.6631  0.2318
15217TIP3   OH267065   2.238   6.703   4.836  0.0111  0.0601 -0.0731
15217TIP3    H167066   2.149   6.669   4.849  0.0002  0.1148 -0.0072
15217TIP3    H267067   2.260   6.678   4.746 -0.6239  1.3317 -0.5973
15218TIP3   OH267068   0.831   2.108  17.318  0.2253  0.0258  0.5954
15218TIP3    H167069   0.754   2.054  17.303  1.5132 -1.1941 -2.3618
15218TIP3    H267070   0.892   2.051  17.365  0.3922  0.0212  0.3718
15219TIP3   OH267071   4.883   6.428   4.792  0.1004  0.6757 -0.4257
15219TIP3    H167072   4.879   6.386   4.706 -0.5352  1.4451 -0.7892
15219TIP3    H267073   4.791   6.437   4.818  0.3169 -0.5663  0.8561
15220TIP3   OH267074   2.970   4.470   3.346 -0.4124 -0.3154 -0.2043
15220TIP3    H167075   3.062   4.455   3.367 -0.4762  1.5100  1.8195
15220TIP3    H267076   2.928   4.385   3.356  0.6520 -0.6823  1.4223
15221TIP3   OH267077   1.487   6.640  12.644  0.0321  0.1041 -0.4198
15221TIP3    H167078   1.476   6.545  12.638  0.1710  0.1505 -1.6279
15221TIP3    H267079   1.399   6.673  12.663 -0.7320 -0.0428 -3.2711
15222TIP3   OH267080   1.392   6.299  12.582  0.2704 -0.0856  0.2692
15222TIP3    H167081   1.314   6.304  12.638 -0.8986  0.5453 -1.3336
15222TIP3    H267082   1.372   6.229  12.520  0.1889  1.2391 -1.2596
15223TIP3   OH267083   2.775   4.599  13.985  0.0233  0.6781 -0.5400
15223TIP3    H167084   2.868   4.619  13.995  1.1371 -3.8206  0.0780
15223TIP3    H267085   2.770   4.547  13.905 -2.1087  1.2299 -0.8264
15224TIP3   OH267086   0.697   2.597   2.477 -0.0194 -0.6491 -0.2306
15224TIP3    H167087   0.792   2.596   2.489 -0.1376 -1.9229  0.8715
15224TIP3    H267088   0.681   2.670   2.418  1.7664 -1.1785 -1.4751
15225TIP3   OH267089   5.875   4.654   6.215  0.5139  0.0738 -0.2558
15225TIP3    H167090   5.851   4.719   6.282 -0.2552 -1.3551  0.9056
15225TIP3    H267091   5.792   4.616   6.187  1.0147 -1.0164 -0.2831
15226TIP3   OH267092   0.540   4.822  15.292  0.4085 -0.2468  0.4324
15226TIP3    H167093   0.617   4.820  15.235  0.8688  0.6372  0.9899
15226TIP3    H267094   0.507   4.912  15.284 -0.2732 -0.4754  0.5887
15227TIP3   OH267095   2.195   4.868   4.435  0.2967 -0.2267 -0.5948
15227TIP3    H167096   2.180   4.773   4.439  0.9886 -0.4350 -2.2000
15227TIP3    H267097   2.197   4.887   4.341 -0.2296  1.4561 -0.2865
15228TIP3   OH267098   4.053   5.719  14.756  0.2759 -0.2306 -0.1156
15228TIP3    H167099   4.016   5.807  14.743 -1.6379 -0.8261  0.8533
15228TIP3    H267100   4.124   5.732  14.819 -0.7247  0.4918  0.9033
15229TIP3   OH267101   6.392   5.730   5.678  0.3779  0.5931 -0.8427
15229TIP3    H167102   6.481   5.763   5.667  0.1934  0.3383 -4.4722
15229TIP3    H267103   6.352   5.740   5.591 -3.0846  0.4475  0.5647
15230TIP3   OH267104   3.688   3.235  17.303  0.1491 -0.1049 -0.4629
15230TIP3    H167105   3.603   3.280  17.297 -0.7987 -1.8408 -0.5941
15230TIP3    H267106   3.735   3.264  17.225  0.2259  1.8750  0.2585
15231TIP3   OH267107   0.943   3.873   5.297  0.0381  0.3146  0.1461
15231TIP3    H167108   0.914   3.944   5.355 -0.0562 -0.2728  0.8287
15231TIP3    H267109   0.978   3.807   5.356  0.1390 -0.2015 -0.4881
15232TIP3   OH267110   4.014   2.143   1.957 -0.6736 -0.3190 -0.3275
15232TIP3    H167111   3.955   2.172   1.888 -0.5974  0.2993 -0.1360
15232TIP3    H267112   4.096   2.190   1.940  0.3986 -2.4718 -1.6497
15233TIP3   OH267113   0.865   0.275   4.485 -0.0056 -0.0321  0.3163
15233TIP3    H167114   0.869   0.219   4.407 -0.5439  0.6180 -0.1855
15233TIP3    H267115   0.825   0.356   4.455  0.1078  0.3650  1.1971
15234TIP3   OH267116   2.903   2.982  12.770  0.1487 -0.2037  0.2253
15234TIP3    H167117   2.936   2.931  12.845  1.6883 -0.8326 -0.8273
15234TIP3    H267118   2.926   3.072  12.790  0.0412 -0.2938  0.7674
15235TIP3   OH267119   3.890   2.171   1.729  0.0097 -0.3187  0.0172
15235TIP3    H167120   3.833   2.230   1.680 -0.4518  0.3881  1.3487
15235TIP3    H267121   3.958   2.145   1.666 -2.3431 -2.0772 -1.9620
15236TIP3   OH267122   2.675   1.438  11.100  0.3215 -0.0546  0.1638
15236TIP3    H167123   2.680   1.420  11.194  0.3434  0.8665  0.3475
15236TIP3    H267124   2.586   1.470  11.085  0.3742 -0.0185 -0.0903
15237TIP3   OH267125   1.157   3.983   4.944 -0.2069  0.3482 -0.2072
15237TIP3    H167126   1.251   3.976   4.928  0.2611 -1.1232  2.4581
15237TIP3    H267127   1.118   3.916   4.887  0.6326 -0.5315  0.2162
15238TIP3   OH267128   4.676   5.314   5.160 -0.2133 -0.0947  0.2191
15238TIP3    H167129   4.635   5.280   5.240 -0.0708 -0.8804 -0.0361
15238TIP3    H267130   4.604   5.322   5.098  0.0067 -1.5614 -0.2584
15239TIP3   OH267131   4.185   0.795  11.670 -0.2394 -0.2646 -0.1349
15239TIP3    H167132   4.145   0.734  11.608 -1.3022  0.1106  0.1545
15239TIP3    H267133   4.188   0.878  11.622 -1.8368  0.2348  0.5482
15240TIP3   OH267134   4.142   6.174   3.968  0.0477 -0.7829  0.5590
15240TIP3    H167135   4.169   6.265   3.976 -2.7811  0.4882 -2.1804
15240TIP3    H267136   4.077   6.162   4.036 -0.0770 -0.5459  0.4812
15241TIP3   OH267137   1.717   6.635   0.137 -0.3762 -0.6554  0.3972
15241TIP3    H167138   1.746   6.680   0.216 -0.3454 -0.1594  0.1116
15241TIP3    H267139   1.798   6.611   0.092 -0.3288  1.9093 -1.0624
15242TIP3   OH267140   4.612   5.320  16.485 -0.3337  0.2177  0.2828
15242TIP3    H167141   4.597   5.227  16.470  1.0978 -0.1729  1.0304
15242TIP3    H267142   4.549   5.365  16.429 -1.1081 -1.2005 -0.0105
15243TIP3   OH267143   1.871   4.840  12.750  0.1687 -0.3928  0.4969
15243TIP3    H167144   1.813   4.863  12.822 -0.8058  0.7467 -0.5818
15243TIP3    H267145   1.900   4.925  12.715  0.9887 -0.9212 -0.1589
15244TIP3   OH267146   1.160   1.658   0.133  0.2790 -0.2065  0.3745
15244TIP3    H167147   1.141   1.752   0.132  0.5160 -0.1525 -0.2517
15244TIP3    H267148   1.175   1.637   0.225 -1.4512  0.0063  0.7258
15245TIP3   OH267149   0.223   5.285  11.260  0.3336 -0.0829  0.2158
15245TIP3    H167150   0.258   5.374  11.268  0.9377 -0.4673  2.4226
15245TIP3    H267151   0.184   5.283  11.172  0.8332  2.1536 -0.1279
15246TIP3   OH267152   1.533   1.942  15.892  0.1218 -0.1975 -0.1103
15246TIP3    H167153   1.586   2.012  15.854 -1.6041 -0.4675 -3.3446
15246TIP3    H267154   1.522   1.879  15.821 -3.5939 -0.6331  0.6807
15247TIP3   OH267155   5.066   1.435  10.750 -0.2159  0.1129  0.5423
15247TIP3    H167156   4.993   1.469  10.700 -0.5361  0.2258  1.0814
15247TIP3    H267157   5.083   1.349  10.712 -0.0254  0.4621 -0.1888
15248TIP3   OH267158   0.911   3.542   1.926  0.0117  0.2333  0.6289
15248TIP3    H167159   0.860   3.466   1.897  1.1043 -0.9642  1.7079
15248TIP3    H267160   0.846   3.604   1.959 -0.7975 -1.8692  3.4089
15249TIP3   OH267161   1.131   2.347  14.854 -0.1381  0.2673  0.0784
15249TIP3    H167162   1.137   2.347  14.758  0.1041  1.3966  0.0719
15249TIP3    H267163   1.149   2.438  14.879 -0.2051 -0.0088  1.1997
15250TIP3   OH267164   2.450   5.637  13.941  0.7913  0.0341  0.2761
15250TIP3    H167165   2.363   5.612  13.971  0.8220 -0.9191 -0.3737
15250TIP3    H267166   2.493   5.674  14.018  0.0547 -0.1436  0.7757
15251TIP3   OH267167   5.420   5.249  15.882 -0.4087 -0.3559 -0.1661
15251TIP3    H167168   5.369   5.244  15.963 -0.2655 -0.3627 -0.0763
15251TIP3    H267169   5.357   5.227  15.813 -0.6612  0.1641 -0.1095
15252TIP3   OH267170   4.059   4.466   2.744  0.0752  0.1781  0.6921
15252TIP3    H167171   4.124   4.408   2.782 -0.6996 -1.7090 -0.7307
15252TIP3    H267172   4.103   4.509   2.672  0.9052  2.1295  2.2595
15253TIP3   OH267173   0.007   0.938  12.062  0.2061  0.3443 -0.0554
15253TIP3    H167174   0.097   0.925  12.031  0.2661  0.0871  0.2171
15253TIP3    H267175  -0.037   0.856  12.043  0.4011 -0.0429  1.0497
15254TIP3   OH267176   5.755   2.157   5.638 -0.1918  0.2279  0.3178
15254TIP3    H167177   5.814   2.094   5.680  0.8634  0.2641 -1.0289
15254TIP3    H267178   5.692   2.180   5.706  1.4907  0.3684  1.9230
15255TIP3   OH267179   6.688   0.728  15.767 -0.5083  0.2223 -0.2378
15255TIP3    H167180   6.602   0.758  15.797 -0.3501 -1.4047  2.1239
15255TIP3    H267181   6.671   0.642  15.728  0.3510 -2.3931  4.3902
15256TIP3   OH267182   5.321   6.492   0.922  0.2861 -0.0893  1.0810
15256TIP3    H167183   5.384   6.532   0.862  2.2694 -0.5195  2.7525
15256TIP3    H267184   5.294   6.564   0.979  0.0258 -0.1192  0.9971
15257TIP3   OH267185   4.464   2.311  11.314  1.2365 -0.2240 -0.6477
15257TIP3    H167186   4.408   2.385  11.336  0.9535 -0.8966  1.0768
15257TIP3    H267187   4.485   2.323  11.222 -2.7557 -0.6007 -1.7857
15258TIP3   OH267188   3.336   0.492  12.637 -0.1414  0.3086 -0.2740
15258TIP3    H167189   3.337   0.431  12.711  1.6029  1.0981  0.4108
15258TIP3    H267190   3.254   0.541  12.646 -0.4358 -0.3174  0.5207
15259TIP3   OH267191   0.394   6.245   0.201  0.1931 -0.3219  0.2319
15259TIP3    H167192   0.357   6.309   0.262 -1.0143  0.0582 -0.8551
15259TIP3    H267193   0.466   6.204   0.249  0.1351  0.9169  1.4150
15260TIP3   OH267194   4.111   6.162  16.745 -0.2110 -0.0111  0.0648
15260TIP3    H167195   4.114   6.130  16.655 -0.6684 -0.5080  0.2184
15260TIP3    H267196   4.201   6.155  16.776 -0.5225 -2.7346  0.6193
15261TIP3   OH267197   5.668   0.697   1.307  0.1754  0.7706 -0.1941
15261TIP3    H167198   5.671   0.629   1.374  0.5930  0.6674 -0.3159
15261TIP3    H267199   5.695   0.777   1.353  1.3261  0.5360 -0.4327
15262TIP3   OH267200   1.492   0.584   3.694 -0.9007  0.2119 -0.5829
15262TIP3    H167201   1.566   0.626   3.736 -1.0985 -0.7114  0.7858
15262TIP3    H267202   1.416   0.634   3.723 -1.2667 -1.6441  2.0370
15263TIP3   OH267203   1.590   1.079  16.710 -0.0352 -0.2845  0.0896
15263TIP3    H167204   1.569   1.153  16.767  1.4111  0.3735 -0.1858
15263TIP3    H267205   1.618   1.118  16.628 -0.3992 -1.1821 -0.4844
15264TIP3   OH267206   1.693   2.838  15.587 -0.4393 -0.6803  0.0160
15264TIP3    H167207   1.673   2.900  15.517  0.0039 -1.8895 -1.2031
15264TIP3    H267208   1.702   2.893  15.665  0.7087  0.8825 -1.1718
15265TIP3   OH267209   2.054   5.808   6.453 -0.1312 -0.2245 -0.1448
15265TIP3    H167210   2.050   5.812   6.357 -0.6442  1.0650 -0.0918
15265TIP3    H267211   1.968   5.841   6.481  0.3643  0.3241  0.7584
15266TIP3   OH267212   1.444   1.729  16.491  0.1906 -0.0297  0.3391
15266TIP3    H167213   1.444   1.714  16.396  0.1512  0.0981  0.3184
15266TIP3    H267214   1.521   1.784  16.506 -1.2329  2.1996  0.0033
15267TIP3   OH267215   6.098   2.348   0.099 -0.8484  0.2065  0.0786
15267TIP3    H167216   6.108   2.293   0.021 -0.1987  1.1887 -0.5549
15267TIP3    H267217   6.112   2.289   0.173 -0.6262 -0.5678 -0.5710
15268TIP3   OH267218   6.584   4.434   1.139  0.2276 -0.3194 -0.4457
15268TIP3    H167219   6.614   4.468   1.223 -0.9184 -1.2947  0.3915
15268TIP3    H267220   6.553   4.345   1.158  1.3722 -1.1556 -2.2032
15269TIP3   OH267221   0.393   2.353  14.436 -0.1201  0.2825 -0.2222
15269TIP3    H167222   0.443   2.432  14.458  0.6215 -0.0485 -0.6973
15269TIP3    H267223   0.419   2.333  14.346 -1.8350  0.6640 -0.8431
15270TIP3   OH267224   5.688   4.788  16.338  0.0463 -0.2996  0.1532
15270TIP3    H167225   5.730   4.874  16.339  0.6827 -0.5587 -1.6577
15270TIP3    H267226   5.755   4.728  16.373  0.8170 -0.5315 -1.6422
15271TIP3   OH267227   4.915   6.520   2.784  0.2513  0.2770  0.1332
15271TIP3    H167228   4.916   6.433   2.825 -0.5122  0.5917  0.8387
15271TIP3    H267229   4.976   6.572   2.835  0.9954  0.0609 -0.5230
15272TIP3   OH267230   6.229   5.648  14.127 -0.0263 -0.0366 -0.0650
15272TIP3    H167231   6.153   5.667  14.072  0.0632  0.6805  0.0492
15272TIP3    H267232   6.297   5.709  14.098  0.3741 -0.3886  0.1119
15273TIP3   OH267233   5.710   6.069   1.348  0.4004  0.0441  0.0175
15273TIP3    H167234   5.640   6.128   1.377  1.2251  1.5154 -0.8864
15273TIP3    H267235   5.663   5.991   1.317 -0.8836  1.0812 -0.7711
15274TIP3   OH267236   5.409   2.813  15.907  0.1598 -0.2811 -0.2041
15274TIP3    H167237   5.378   2.895  15.945 -2.5266 -0.6386 -1.4184
15274TIP3    H267238   5.486   2.790  15.959 -0.8323  1.4124  2.1802
15275TIP3   OH267239   3.749   1.175  10.811 -0.4468 -0.1977  0.4839
15275TIP3    H167240   3.702   1.259  10.806  0.1264  0.0551 -2.5570
15275TIP3    H267241   3.818   1.190  10.875 -1.8330  0.8218  1.8204
15276TIP3   OH267242   1.028   5.087  14.879 -0.2817  0.1692 -0.0487
15276TIP3    H167243   1.101   5.146  14.858  0.1056 -0.8674 -1.8139
15276TIP3    H267244   0.966   5.100  14.807 -1.0070 -0.3128  0.4787
15277TIP3   OH267245   3.843   0.575  16.660  0.3839 -0.0801  0.4557
15277TIP3    H167246   3.768   0.515  16.655  0.5953 -0.2578 -1.1074
15277TIP3    H267247   3.858   0.587  16.753  0.8454 -3.1063  0.8516
15278TIP3   OH267248   6.424   0.013   5.629 -0.2642  0.6260  0.7919
15278TIP3    H167249   6.502  -0.042   5.627  0.4535  1.6242  0.5015
15278TIP3    H267250   6.411   0.034   5.721 -0.1358  0.5176  0.8347
15279TIP3   OH267251   1.217   3.324  13.697  0.7552  0.3634 -0.0031
15279TIP3    H167252   1.201   3.240  13.741 -3.7379  0.7849 -0.3618
15279TIP3    H267253   1.293   3.307  13.641  0.1911 -3.4398  0.0742
15280TIP3   OH267254   3.802   4.462   5.205 -0.2809  0.3226 -0.3184
15280TIP3    H167255   3.850   4.476   5.287  0.8393  0.4643 -0.9729
15280TIP3    H267256   3.738   4.393   5.226  2.0672 -1.9527 -0.0939
15281TIP3   OH267257   3.833   5.095   1.146 -0.2976 -0.3100 -0.3593
15281TIP3    H167258   3.807   5.187   1.148 -0.8677 -0.4080 -1.8428
15281TIP3    H267259   3.822   5.065   1.236 -0.0334  1.0813  0.1717
15282TIP3   OH267260   1.475   5.234   3.244 -0.5368  0.0688  0.1085
15282TIP3    H167261   1.569   5.252   3.232 -0.3806 -1.1643 -0.7700
15282TIP3    H267262   1.450   5.189   3.164 -1.5472 -0.9007  0.9517
15283TIP3   OH267263   0.708   2.830  12.763 -0.0254 -0.7591  0.1790
15283TIP3    H167264   0.660   2.795  12.838 -0.9133 -0.6325 -0.3169
15283TIP3    H267265   0.795   2.791  12.770  0.1610 -0.1268  1.7200
15284TIP3   OH267266   2.040   3.556  11.958  0.0509  0.3531 -0.6627
15284TIP3    H167267   2.129   3.529  11.980  0.1639 -0.0318 -1.5600
15284TIP3    H267268   1.989   3.538  12.037  0.4034 -1.2128 -0.7502
15285TIP3   OH267269   2.253   4.473  11.967  0.2606  0.4056  0.2869
15285TIP3    H167270   2.320   4.496  12.033  0.5660  0.6394 -0.0990
15285TIP3    H267271   2.238   4.554  11.919  0.0861  0.2199  0.0260
15286TIP3   OH267272   1.423   4.485   1.675  0.0402 -0.4228  1.1128
15286TIP3    H167273   1.331   4.511   1.668  0.0808 -0.5113  0.2071
15286TIP3    H267274   1.447   4.507   1.765 -0.4362  1.0450  0.9136
15287TIP3   OH267275   4.128   2.948   6.778  0.5984  0.3146 -0.7576
15287TIP3    H167276   4.195   2.893   6.818  0.3238  1.3894  1.3423
15287TIP3    H267277   4.046   2.903   6.797  0.3313  1.5376  1.3606
15288TIP3   OH267278   3.539   3.404   4.379 -0.0332  0.2989  0.4866
15288TIP3    H167279   3.552   3.395   4.285 -1.4209 -0.5197  0.3484
15288TIP3    H267280   3.488   3.485   4.389  0.0037  0.3173  0.5298
15289TIP3   OH267281   5.640   1.891  15.260 -0.0802 -0.5254 -0.8848
15289TIP3    H167282   5.653   1.846  15.343 -0.9170 -0.3519 -0.6439
15289TIP3    H267283   5.545   1.898  15.251  0.0178  0.8621 -1.0885
15290TIP3   OH267284   0.569   4.039   3.476  0.6098 -0.0283  0.2786
15290TIP3    H167285   0.562   4.053   3.382  1.6461 -0.0139  0.1997
15290TIP3    H267286   0.501   4.096   3.513 -0.2920 -0.5736 -0.4824
15291TIP3   OH267287   1.522   5.438   0.929  0.4036  0.2992 -0.3893
15291TIP3    H167288   1.455   5.499   0.961 -0.6583  0.5366 -2.8273
15291TIP3    H267289   1.589   5.494   0.891  0.7709  0.0127 -0.1624
15292TIP3   OH267290   2.535   4.855   3.596 -0.2766 -0.2175 -0.4234
15292TIP3    H167291   2.559   4.796   3.524  1.8731 -2.6292  1.9905
15292TIP3    H267292   2.619   4.881   3.634 -1.3180  0.1942  1.7454
15293TIP3   OH267293   5.096   1.900   6.047 -0.4672  0.3154  0.0429
15293TIP3    H167294   5.081   1.842   5.972 -0.2167  0.5434 -0.1830
15293TIP3    H267295   5.168   1.956   6.020 -0.1281  0.1530  0.5953
15294TIP3   OH267296   0.066   4.050   0.835 -0.2348  0.3768 -0.5248
15294TIP3    H167297   0.147   4.051   0.885 -0.5760  1.4633  0.0287
15294TIP3    H267298   0.079   3.980   0.771  0.8650  0.0830 -0.0097
15295TIP3   OH267299   4.807   2.180  11.399 -0.3791 -0.0506  0.1351
15295TIP3    H167300   4.826   2.104  11.454  0.0114  1.2211  1.8693
15295TIP3    H267301   4.889   2.229  11.396 -0.4960  0.1103 -1.3358
15296TIP3   OH267302   6.207   1.342  15.947 -0.3345  0.0841 -0.2693
15296TIP3    H167303   6.246   1.420  15.909 -3.4143  0.3976 -3.2139
15296TIP3    H267304   6.277   1.276  15.943  1.2916  1.7573 -0.8737
15297TIP3   OH267305   3.843   5.845   3.178  1.2549 -0.6696 -0.7372
15297TIP3    H167306   3.858   5.843   3.084  3.5841  0.4755 -0.4567
15297TIP3    H267307   3.926   5.875   3.216 -0.3943  1.5797  1.4567
15298TIP3   OH267308   0.529   1.600   2.080  0.6045 -0.1880  0.5939
15298TIP3    H167309   0.486   1.679   2.048  0.6685  0.4077  1.9266
15298TIP3    H267310   0.556   1.554   2.000 -1.3826  0.0205 -0.2709
15299TIP3   OH267311   3.652   2.972   2.361  0.9629 -0.0858 -0.0261
15299TIP3    H167312   3.670   3.013   2.446  1.2998 -0.8472  0.2826
15299TIP3    H267313   3.583   3.025   2.323 -0.7915 -0.9831  1.6799
15300TIP3   OH267314   1.580   0.964   3.216 -0.4782 -0.3709  0.1576
15300TIP3    H167315   1.575   0.882   3.167 -1.4658 -0.5849  0.5763
15300TIP3    H267316   1.550   0.941   3.304 -0.7669  0.4366  0.2796
15301TIP3   OH267317   1.351   0.684  15.863 -0.7392 -0.0377  0.3135
15301TIP3    H167318   1.402   0.722  15.792 -0.5714 -1.3167 -0.2682
15301TIP3    H267319   1.261   0.688  15.833 -0.5795 -1.4939 -0.4387
15302TIP3   OH267320   5.558   1.854   5.634 -0.3095  0.7458  0.0318
15302TIP3    H167321   5.599   1.847   5.548  0.0549  0.1336  0.2464
15302TIP3    H267322   5.464   1.854   5.615 -0.2341  2.0734 -0.4546
15303TIP3   OH267323   4.628   5.486  14.182  0.3107  0.6711 -0.3789
15303TIP3    H167324   4.571   5.534  14.123  0.5669  2.3053  0.6292
15303TIP3    H267325   4.702   5.459  14.128 -1.6473 -2.0800 -1.8622
15304TIP3   OH267326   4.370   1.597  12.677  0.2773  0.4965  0.3366
15304TIP3    H167327   4.361   1.548  12.596  1.3171 -2.0218  1.6106
15304TIP3    H267328   4.289   1.580  12.725 -0.2033  1.7117 -0.0314
15305TIP3   OH267329   6.037   1.638  15.949  0.4287  0.0497 -0.0934
15305TIP3    H167330   5.962   1.590  15.984 -0.3333  0.0681 -1.6279
15305TIP3    H267331   6.113   1.603  15.998 -0.2475 -1.8043 -0.2851
15306TIP3   OH267332   4.256   2.537  12.148  0.0631  0.3546  0.1984
15306TIP3    H167333   4.286   2.576  12.230 -1.4969  0.5847  0.6892
15306TIP3    H267334   4.190   2.598  12.115 -0.2770 -0.3945 -0.5430
15307TIP3   OH267335   2.326   2.421  12.281 -0.1459  0.0840 -0.1891
15307TIP3    H167336   2.386   2.495  12.273 -1.3933  1.3105  1.0225
15307TIP3    H267337   2.372   2.357  12.334  0.7011  0.2673 -0.6909
15308TIP3   OH267338   3.005   5.924   1.159  0.3078 -0.5095  0.2660
15308TIP3    H167339   2.957   5.842   1.164 -1.1862  0.3767  2.1833
15308TIP3    H267340   2.939   5.991   1.180  1.1478  1.3461 -2.5545
15309TIP3   OH267341   4.192   6.083  11.161  0.7076  0.4420  0.1433
15309TIP3    H167342   4.120   6.129  11.118  1.9600  1.0828 -1.3411
15309TIP3    H267343   4.214   6.012  11.100  0.4402 -0.6214  1.2453
15310TIP3   OH267344   5.597   6.662   5.578  0.1146  0.2590  0.5990
15310TIP3    H167345   5.645   6.658   5.495 -0.0461  1.6190  0.4216
15310TIP3    H267346   5.510   6.627   5.557  0.6176 -1.0703  0.6356
15311TIP3   OH267347   2.221   2.755  17.109 -0.0076  0.4575  0.7884
15311TIP3    H167348   2.224   2.713  17.195  1.2449 -1.5795 -0.1556
15311TIP3    H267349   2.140   2.724  17.069 -0.0592  0.5290  0.8382
15312TIP3   OH267350   3.969   6.176  11.755  0.3414 -0.0556  0.5969
15312TIP3    H167351   4.055   6.157  11.790  0.4145 -0.5268  0.1658
15312TIP3    H267352   3.947   6.262  11.791  0.1710 -0.7479  2.2245
15313TIP3   OH267353   5.777   2.507  14.840  0.4298  0.0230 -0.4226
15313TIP3    H167354   5.836   2.444  14.798 -1.6310 -1.6604 -0.9842
15313TIP3    H267355   5.762   2.472  14.927  1.5768  1.3927  0.3685
15314TIP3   OH267356   6.013   3.717  11.142 -0.0322 -0.7414  0.0396
15314TIP3    H167357   5.960   3.719  11.062  0.3160  1.2793 -0.1913
15314TIP3    H267358   6.090   3.666  11.119  0.9752  1.3690 -1.5825
15315TIP3   OH267359   2.624   1.143  12.026  0.4829 -0.3292 -0.0546
15315TIP3    H167360   2.675   1.181  12.098 -1.3164 -0.4361  1.3475
15315TIP3    H267361   2.649   1.051  12.024  0.2294 -0.4279  0.7648
15316TIP3   OH267362   1.118   2.683  12.109  0.4367 -0.2242  0.8904
15316TIP3    H167363   1.185   2.693  12.042 -0.1426  0.5975  0.4207
15316TIP3    H267364   1.113   2.588  12.123 -0.3742 -0.5358 -1.2144
15317TIP3   OH267365   5.543   6.211  13.855  0.4750  0.1665  0.3117
15317TIP3    H167366   5.562   6.281  13.792  1.6366  0.8715  1.3808
15317TIP3    H267367   5.447   6.210  13.861  0.2463 -0.6683 -2.2203
15318TIP3   OH267368   4.980   0.788  17.155 -0.5206  0.2976  0.5669
15318TIP3    H167369   5.062   0.746  17.128 -0.4319  0.3926  0.6873
15318TIP3    H267370   4.988   0.797  17.250 -1.1259 -0.6600  0.7197
15319TIP3   OH267371   4.305   5.005  16.740  0.0425  0.1795 -0.0081
15319TIP3    H167372   4.339   5.011  16.829 -0.1008 -2.4070  0.3008
15319TIP3    H267373   4.278   5.094  16.718  0.5884  0.9743  2.3066
15320TIP3   OH267374   3.626   3.852  15.681 -0.3522  0.2719  0.3569
15320TIP3    H167375   3.615   3.947  15.690 -0.5947  0.3021 -0.2117
15320TIP3    H267376   3.537   3.818  15.678 -0.2943  0.1902 -0.9884
15321TIP3   OH267377   5.289   3.346   5.369  0.8909 -0.3658 -0.1608
15321TIP3    H167378   5.374   3.349   5.413  1.2116  0.1535 -0.8035
15321TIP3    H267379   5.260   3.437   5.365  1.0946 -0.3436 -1.4506
15322TIP3   OH267380   6.581   1.140   4.777  0.2335  0.4513  0.4671
15322TIP3    H167381   6.610   1.209   4.717 -0.8601  1.1920  0.7661
15322TIP3    H267382   6.627   1.061   4.747 -2.1271  0.1619 -2.9375
15323TIP3   OH267383   6.407   1.431   5.962 -0.3720  0.9019 -0.0147
15323TIP3    H167384   6.400   1.353   6.017 -3.6579  1.5236  0.6303
15323TIP3    H267385   6.458   1.402   5.886  0.4253 -1.2177  1.2304
15324TIP3   OH267386   6.688   0.860   6.521  0.1268  0.2474  0.1512
15324TIP3    H167387   6.774   0.854   6.480  1.2163 -0.1580  2.3577
15324TIP3    H267388   6.626   0.836   6.451  1.8709 -0.6381 -1.1547
15325TIP3   OH267389   2.301   2.857   4.178 -0.4628  0.0053 -0.1164
15325TIP3    H167390   2.233   2.922   4.194  0.1170  0.0433  2.6635
15325TIP3    H267391   2.378   2.908   4.154 -0.2793  0.3354  1.0852
15326TIP3   OH267392   0.018   4.518   2.115 -0.0561 -0.1772 -0.0995
15326TIP3    H167393  -0.027   4.483   2.192 -0.5426  1.7021  0.5361
15326TIP3    H267394   0.025   4.444   2.055 -3.5306 -0.7112 -0.0326
15327TIP3   OH267395   5.693   1.347   2.294 -0.2744  0.6838 -0.1897
15327TIP3    H167396   5.666   1.384   2.378  1.1916 -1.4673  1.3491
15327TIP3    H267397   5.669   1.254   2.299 -1.6866  0.8055 -2.8927
15328TIP3   OH267398   3.088   4.322   3.803 -0.2287 -0.1265 -0.0403
15328TIP3    H167399   3.005   4.322   3.756 -0.9586  0.4967  1.1937
15328TIP3    H267400   3.110   4.415   3.814 -0.1964 -0.2480  1.0252
15329TIP3   OH267401   6.211   0.647  10.853 -0.2494  0.1382  0.0842
15329TIP3    H167402   6.264   0.705  10.799  0.3320 -0.1782  0.3050
15329TIP3    H267403   6.121   0.677  10.840  0.1392  1.8260  1.0711
15330TIP3   OH267404   0.761   5.664   5.714 -0.6299  0.1534  0.1029
15330TIP3    H167405   0.850   5.630   5.721  0.4102  1.8467 -3.0628
15330TIP3    H267406   0.766   5.752   5.751 -1.1566  0.0682  0.3941
15331TIP3   OH267407   6.764   4.732  15.110 -0.5361 -0.1003 -0.5048
15331TIP3    H167408   6.761   4.639  15.085 -0.9240 -0.5630  1.0918
15331TIP3    H267409   6.843   4.766  15.067  0.6485 -1.6483  0.3265
15332TIP3   OH267410   1.492   5.734  16.151  0.4072  0.2043 -0.7767
15332TIP3    H167411   1.418   5.795  16.145  0.9617  0.7842 -2.9765
15332TIP3    H267412   1.537   5.759  16.231 -0.5618  1.3113 -0.5371
15333TIP3   OH267413   5.457   5.870   3.346 -0.0154  0.0473  0.3849
15333TIP3    H167414   5.495   5.886   3.433  0.7718  0.8798 -0.1016
15333TIP3    H267415   5.531   5.876   3.286 -0.8876  1.6825 -0.5861
15334TIP3   OH267416   5.609   5.538   1.035  0.4809  0.1656 -0.2594
15334TIP3    H167417   5.626   5.577   0.949  0.7609 -0.1436 -0.3463
15334TIP3    H267418   5.683   5.566   1.088  0.8978 -0.5768 -0.4344
15335TIP3   OH267419   0.183   4.800   1.270 -0.0337 -0.3000 -0.1962
15335TIP3    H167420   0.089   4.793   1.254 -0.5689  1.0194  1.9838
15335TIP3    H267421   0.191   4.804   1.365  2.2042  0.0864 -0.3490
15336TIP3   OH267422   1.475   0.828  15.653 -0.0976 -0.7913  0.1488
15336TIP3    H167423   1.501   0.919  15.664 -0.7664 -0.4074 -1.2142
15336TIP3    H267424   1.536   0.793  15.588  0.2217 -1.3627  0.7401
15337TIP3   OH267425   0.924   3.938  13.440 -0.1033 -0.1918 -0.3788
15337TIP3    H167426   0.917   3.846  13.466 -0.3765 -0.0316  0.1493
15337TIP3    H267427   1.006   3.944  13.392 -1.6265 -1.3837 -3.3796
15338TIP3   OH267428   5.448   4.967   0.231  0.7288  0.8998  0.0802
15338TIP3    H167429   5.450   4.873   0.252  0.4728  1.0627  0.8471
15338TIP3    H267430   5.362   4.980   0.192  0.8690  0.7685 -0.2816
15339TIP3   OH267431   2.064   4.615  14.338 -0.4445  0.0925  0.1184
15339TIP3    H167432   1.995   4.666  14.378  0.7945  1.7936  0.1846
15339TIP3    H267433   2.120   4.679  14.295 -0.1817 -1.4253 -1.9647
15340TIP3   OH267434   4.140   3.854   5.478 -0.1641  0.2344 -0.6033
15340TIP3    H167435   4.170   3.772   5.516  0.7438 -0.1548 -2.1174
15340TIP3    H267436   4.112   3.831   5.389 -0.8906  1.3763 -0.6893
15341TIP3   OH267437   4.564   1.694  12.929  0.1945  0.0605  0.4013
15341TIP3    H167438   4.639   1.751  12.914 -0.1876  0.8359  1.3355
15341TIP3    H267439   4.584   1.649  13.011 -0.6549  0.7956  1.0268
15342TIP3   OH267440   2.879   4.519   1.643 -0.0548  0.4474 -0.7583
15342TIP3    H167441   2.957   4.557   1.601  0.4473  0.6353  0.3098
15342TIP3    H267442   2.827   4.485   1.570  0.8821  0.5888 -1.5187
15343TIP3   OH267443   1.075   6.706  10.639 -0.3033  0.0070 -0.5580
15343TIP3    H167444   1.056   6.702  10.545  1.8111 -2.1593 -0.9881
15343TIP3    H267445   1.169   6.725  10.643 -0.1399 -0.9638  1.0775
15344TIP3   OH267446   5.519   4.481   0.524 -0.0270  0.0232 -0.3978
15344TIP3    H167447   5.565   4.535   0.460 -0.6979 -0.0100 -0.9308
15344TIP3    H267448   5.561   4.500   0.607 -0.4675  1.6400 -0.5028
15345TIP3   OH267449   1.149   3.571  13.538  0.1520  0.5956 -0.7043
15345TIP3    H167450   1.059   3.563  13.506  0.3187  1.5231 -1.4456
15345TIP3    H267451   1.161   3.494  13.594 -0.4866 -0.5544 -2.0905
15346TIP3   OH267452   3.990   3.553   0.722  0.1830  0.1999 -0.4658
15346TIP3    H167453   3.931   3.626   0.703 -0.0988 -0.3026 -1.5935
15346TIP3    H267454   4.030   3.532   0.638 -0.2673 -1.3987 -0.3070
15347TIP3   OH267455   4.764   1.202  11.379 -0.1425 -0.0803 -0.9341
15347TIP3    H167456   4.809   1.201  11.294 -0.9427 -0.0741 -1.3634
15347TIP3    H267457   4.835   1.201  11.443  0.4592 -1.4382 -1.5911
15348TIP3   OH267458   1.558   1.783   3.110 -0.0994  0.0674  0.0087
15348TIP3    H167459   1.569   1.819   3.198  0.5755  0.9428 -0.4136
15348TIP3    H267460   1.530   1.692   3.124  1.6278 -0.3278  1.1407
15349TIP3   OH267461   5.717   1.216  16.033  0.1889 -0.2128  0.6131
15349TIP3    H167462   5.721   1.216  16.128 -2.7438  2.0407  0.8876
15349TIP3    H267463   5.624   1.233  16.013  0.7634 -0.2378 -2.6227
15350TIP3   OH267464   0.112   0.816  15.883  0.4363 -0.2248  0.1913
15350TIP3    H167465   0.032   0.767  15.862 -0.0547 -0.4993  2.4362
15350TIP3    H267466   0.176   0.787  15.818 -0.2299 -2.8552  0.5924
15351TIP3   OH267467   5.944   0.357  16.233 -0.3021 -0.0307 -0.1132
15351TIP3    H167468   6.028   0.373  16.276 -0.3687 -0.3021  0.1193
15351TIP3    H267469   5.959   0.381  16.142  0.3156 -1.0247 -0.2860
15352TIP3   OH267470   2.767   2.522   1.170 -0.2781 -0.0936  0.4893
15352TIP3    H167471   2.719   2.591   1.125 -1.1072 -0.5896  0.5987
15352TIP3    H267472   2.823   2.483   1.102 -2.4083 -1.6573 -0.4697
15353TIP3   OH267473   1.862   2.896  15.998  0.3868  0.0090 -0.4549
15353TIP3    H167474   1.912   2.962  15.950  1.8063 -0.9734 -0.4111
15353TIP3    H267475   1.771   2.923  15.989  0.7527  0.8108 -2.2370
15354TIP3   OH267476   5.171   1.925  15.736 -0.2176 -0.5751 -0.6011
15354TIP3    H167477   5.180   1.835  15.767  1.6735 -0.6235 -1.1613
15354TIP3    H267478   5.249   1.970  15.769 -0.7399  0.6700 -0.9898
15355TIP3   OH267479   5.273   0.442  15.552  0.2668  0.3063 -0.0385
15355TIP3    H167480   5.298   0.509  15.615  0.2883  0.3905 -0.1365
15355TIP3    H267481   5.184   0.416  15.578  0.4810 -0.0420  0.3514
15356TIP3   OH267482   2.181   1.380   4.891  0.0691  0.1032 -0.2872
15356TIP3    H167483   2.239   1.456   4.886 -0.3552  0.4297 -0.2722
15356TIP3    H267484   2.171   1.351   4.800  1.8839 -1.2108 -0.1352
15357TIP3   OH267485   1.046   1.230  12.892  0.2617 -0.2778 -0.6822
15357TIP3    H167486   1.110   1.252  12.824 -0.0913  0.8302 -0.6812
15357TIP3    H267487   0.981   1.301  12.888  1.1347  0.7921  1.9454
15358TIP3   OH267488   4.054   1.600  17.189  0.3857  0.0179  0.0836
15358TIP3    H167489   4.099   1.566  17.266 -0.8863 -0.1294  0.7695
15358TIP3    H267490   4.025   1.523  17.141 -1.1182  0.1066  0.8243
15359TIP3   OH267491   4.360   1.370  13.800 -0.0553  0.0465  0.0235
15359TIP3    H167492   4.410   1.308  13.747  0.5675  1.5055 -1.1733
15359TIP3    H267493   4.354   1.328  13.886  0.8047 -1.4184 -0.5859
15360TIP3   OH267494   0.851   0.013  15.172  0.5064  1.0137 -0.0268
15360TIP3    H167495   0.889   0.099  15.154 -0.5165  1.1394 -1.9269
15360TIP3    H267496   0.757   0.025  15.162  0.4118 -0.5534 -1.6841
15361TIP3   OH267497   3.563   0.675  13.715 -0.2295  0.2760  0.3063
15361TIP3    H167498   3.497   0.679  13.784 -1.2055 -0.8276 -0.5265
15361TIP3    H267499   3.645   0.662  13.761 -0.4768  2.2517  1.4119
15362TIP3   OH267500   5.372   5.504   1.830  0.4470 -0.0898  0.1227
15362TIP3    H167501   5.318   5.520   1.753  0.4152 -0.0511  0.1534
15362TIP3    H267502   5.332   5.429   1.873 -0.1556  0.5321  0.6766
15363TIP3   OH267503   6.437   2.682  16.822  0.3968  0.1570 -0.0092
15363TIP3    H167504   6.381   2.652  16.893 -0.6334 -0.0814 -0.8962
15363TIP3    H267505   6.389   2.753  16.781  1.2815  0.7410 -0.0700
15364TIP3   OH267506   6.319   3.339   3.520 -0.4616  0.1390 -1.0353
15364TIP3    H167507   6.361   3.409   3.471  0.8409 -1.8424 -2.9533
15364TIP3    H267508   6.389   3.298   3.570 -0.3430 -1.9688 -2.7462
15365TIP3   OH267509   3.039   5.531   3.558  0.3089 -0.1343 -0.3005
15365TIP3    H167510   3.103   5.602   3.564  1.0540 -0.8627  0.9931
15365TIP3    H267511   3.052   5.481   3.639 -1.7220 -0.4629 -0.1262
15366TIP3   OH267512   4.296   1.198  15.353 -0.0111 -0.0761 -0.9725
15366TIP3    H167513   4.255   1.283  15.370  0.4351  0.0729 -0.6246
15366TIP3    H267514   4.339   1.175  15.435 -1.1891 -1.2536 -0.6542
15367TIP3   OH267515   6.577   2.077   6.163 -0.0685 -0.7054 -0.1598
15367TIP3    H167516   6.555   2.045   6.250 -1.0481  0.7342  0.1568
15367TIP3    H267517   6.659   2.125   6.174 -0.2253 -0.4693 -0.0061
15368TIP3   OH267518   0.948   1.768   5.583 -0.2908  0.4195  0.7954
15368TIP3    H167519   0.916   1.818   5.658  1.5039  2.4453  0.3227
15368TIP3    H267520   0.952   1.832   5.512  0.3978 -0.8560 -0.3495
15369TIP3   OH267521   2.650   0.421   4.306 -0.4982  0.7417  0.0284
15369TIP3    H167522   2.663   0.502   4.356  0.3419  0.6258  0.0001
15369TIP3    H267523   2.690   0.438   4.221  0.1407  0.1133  0.1987
15370TIP3   OH267524   1.063   1.960  13.067  0.1142  0.3828  0.6858
15370TIP3    H167525   1.145   1.929  13.105  0.0349  0.0113  0.5624
15370TIP3    H267526   0.996   1.933  13.130  0.1456  1.2002  1.0718
15371TIP3   OH267527   3.126   6.483   5.719  0.1875 -0.1939  0.0631
15371TIP3    H167528   3.101   6.450   5.632  1.3938  0.3140 -0.4949
15371TIP3    H267529   3.080   6.567   5.726  1.1716  0.4380 -0.6981
15372TIP3   OH267530   1.429   0.652  13.601 -0.0091 -0.3123  0.0238
15372TIP3    H167531   1.377   0.581  13.639 -0.4540  0.2325  0.4583
15372TIP3    H267532   1.519   0.619  13.602 -0.2059 -0.8548  0.2454
15373TIP3   OH267533   1.222   0.391   4.014  0.3223  0.5206 -0.1924
15373TIP3    H167534   1.188   0.373   3.926  2.0070 -0.1006 -0.7569
15373TIP3    H267535   1.202   0.311   4.064  0.2349  0.4818 -0.2899
15374TIP3   OH267536   2.876   4.915   5.433 -0.0268 -0.1106  0.2596
15374TIP3    H167537   2.821   4.923   5.355  1.4804 -0.4655 -0.8700
15374TIP3    H267538   2.854   4.993   5.485  1.4504  2.0846 -2.1748
15375TIP3   OH267539   5.272   5.434   4.319  0.1161  0.2678  0.7183
15375TIP3    H167540   5.363   5.458   4.301 -0.2606  0.5852 -0.8802
15375TIP3    H267541   5.268   5.340   4.302 -0.5221  0.7675 -2.3535
15376TIP3   OH267542   1.336   4.225   5.123 -0.6466  0.9456  0.0823
15376TIP3    H167543   1.302   4.248   5.037 -0.2631 -0.3114 -0.4221
15376TIP3    H267544   1.430   4.209   5.109 -0.3832  1.6507  0.9221
15377TIP3   OH267545   4.475   1.182   3.702  0.4449  0.4778  0.0755
15377TIP3    H167546   4.478   1.194   3.607 -1.2091  0.6082  0.0040
15377TIP3    H267547   4.505   1.092   3.715 -1.3137 -0.2864 -0.8100
15378TIP3   OH267548   4.596   1.147   1.335  0.4391  0.0728 -0.6046
15378TIP3    H167549   4.504   1.146   1.361  0.6334  0.9243  0.1722
15378TIP3    H267550   4.595   1.142   1.240 -0.4948  2.0525 -0.7334
15379TIP3   OH267551   5.607   6.037  11.832  0.2120  0.1958 -0.4483
15379TIP3    H167552   5.620   5.943  11.843 -0.9409  0.0639 -0.1169
15379TIP3    H267553   5.634   6.076  11.915  0.0108  0.0920 -0.3357
15380TIP3   OH267554   5.510   1.692  11.829 -0.1982  0.6925  0.1578
15380TIP3    H167555   5.531   1.754  11.899  1.3339  1.0658 -0.5869
15380TIP3    H267556   5.440   1.637  11.865  1.3393  0.0855  2.4233
15381TIP3   OH267557   3.630   6.025  14.436  0.5359  0.6314 -0.0966
15381TIP3    H167558   3.563   6.024  14.504  1.6484 -1.7357  1.0714
15381TIP3    H267559   3.651   5.933  14.421  2.7565  1.2522 -1.2156
15382TIP3   OH267560   2.120   0.516  10.721  0.0980 -0.6004 -0.4598
15382TIP3    H167561   2.121   0.531  10.816 -0.7771 -0.6114 -0.4391
15382TIP3    H267562   2.063   0.440  10.710  0.4118 -0.7619 -0.9766
15383TIP3   OH267563   5.434   4.415  12.843  0.4106 -0.4288  0.2045
15383TIP3    H167564   5.400   4.429  12.931  2.1345 -1.8892  1.1820
15383TIP3    H267565   5.421   4.498  12.799  0.4435  0.6982  2.1948
15384TIP3   OH267566   5.707   6.066  11.533 -0.7094 -0.2274 -0.2156
15384TIP3    H167567   5.662   6.104  11.608 -1.3506 -0.4757 -0.4664
15384TIP3    H267568   5.795   6.104  11.536 -0.8253  0.0016  0.4775
15385TIP3   OH267569   3.058   5.804  15.814 -0.2309 -0.0949  0.0487
15385TIP3    H167570   3.012   5.763  15.887  1.4092  0.0377  1.2086
15385TIP3    H267571   2.998   5.872  15.783 -0.9357 -0.0944  1.3338
15386TIP3   OH267572   5.847   5.555  13.559 -0.0513  0.2087  0.2982
15386TIP3    H167573   5.915   5.619  13.579  0.0006  0.8707 -1.6944
15386TIP3    H267574   5.859   5.537  13.465 -0.4500 -2.2854  0.6489
15387TIP3   OH267575   6.390   4.975   5.537 -0.1077  0.4664 -0.1286
15387TIP3    H167576   6.407   5.069   5.544 -2.3365  0.9211 -0.3337
15387TIP3    H267577   6.352   4.952   5.621  0.5303 -0.3056 -0.0394
15388TIP3   OH267578   3.603   1.673  11.775  0.0507 -0.0502 -0.4066
15388TIP3    H167579   3.509   1.690  11.779 -0.2066 -1.0239 -1.7041
15388TIP3    H267580   3.621   1.659  11.682  1.4274 -0.2213 -0.1410
15389TIP3   OH267581   0.105   0.996  17.124  0.3783  0.3046  0.4543
15389TIP3    H167582   0.144   1.083  17.126  1.6938 -0.2560 -0.2331
15389TIP3    H267583   0.151   0.950  17.055  0.8065 -1.4434  1.8275
15390TIP3   OH267584   3.918   5.727  15.254 -0.1950 -0.2245 -0.0096
15390TIP3    H167585   3.996   5.674  15.268 -0.4565 -0.4493  0.5982
15390TIP3    H267586   3.932   5.805  15.307 -0.9659 -0.8620  1.1898
15391TIP3   OH267587   6.628   2.593  17.244 -0.5485  0.1473  0.4067
15391TIP3    H167588   6.702   2.534  17.261  0.6134  1.1535 -0.9293
15391TIP3    H267589   6.562   2.537  17.203  1.0702 -0.0693 -2.1413
15392TIP3   OH267590   4.267   0.015   1.163  0.1940 -0.2639 -0.5904
15392TIP3    H167591   4.174   0.021   1.186  0.3611 -0.1275  0.0812
15392TIP3    H267592   4.273  -0.062   1.106 -0.1104 -1.1787  0.5586
15393TIP3   OH267593   0.368   0.993  16.702 -1.0970 -0.4643  0.2132
15393TIP3    H167594   0.299   0.980  16.637 -0.6485 -1.9311 -0.0107
15393TIP3    H267595   0.437   1.039  16.655 -0.9918 -1.0564 -0.2342
15394TIP3   OH267596   6.436   3.602  12.354 -0.4544  0.2190 -0.1656
15394TIP3    H167597   6.422   3.634  12.443 -1.7289 -2.0146  0.4985
15394TIP3    H267598   6.522   3.559  12.358 -0.9447 -0.7526  0.2914
15395TIP3   OH267599   3.523   0.406  12.021 -0.1909  0.3396  0.1653
15395TIP3    H167600   3.533   0.342  12.092  0.2339  0.4778  0.2285
15395TIP3    H267601   3.604   0.400  11.971 -0.9936 -0.6700 -1.0820
15396TIP3   OH267602   5.804   0.394   6.017 -0.0779 -0.0586  0.3159
15396TIP3    H167603   5.844   0.464   6.068 -1.6733  0.7148  0.5703
15396TIP3    H267604   5.833   0.313   6.059  2.8945  0.3144 -0.7898
15397TIP3   OH267605   3.707   5.338  13.300  0.1487  0.4218 -0.5765
15397TIP3    H167606   3.700   5.244  13.279  0.7598 -0.2561  1.9688
15397TIP3    H267607   3.625   5.375  13.268 -0.4128 -1.1119 -1.0207
15398TIP3   OH267608   1.509   5.789  12.469  0.1987 -0.1117  0.5649
15398TIP3    H167609   1.566   5.827  12.402 -0.6997  1.1455  0.4706
15398TIP3    H267610   1.465   5.864  12.507 -0.8747 -0.9995  1.1146
15399TIP3   OH267611   3.343   5.608   2.946 -0.1712 -0.0705 -0.1991
15399TIP3    H167612   3.378   5.688   2.908  0.5715  0.2516  1.1088
15399TIP3    H267613   3.409   5.541   2.926 -1.8888 -1.0400 -3.4750
15400TIP3   OH267614   0.670   0.722   0.650 -0.0637 -0.2728 -0.0418
15400TIP3    H167615   0.672   0.738   0.744 -0.9548 -2.8781  0.5031
15400TIP3    H267616   0.746   0.769   0.616  0.4970  0.4137  2.0182
15401TIP3   OH267617   1.328   2.161   5.001  0.0457  0.3769 -0.4857
15401TIP3    H167618   1.415   2.200   5.013 -0.1028  0.5458  0.0781
15401TIP3    H267619   1.342   2.089   4.940  0.6753  0.0902 -0.0155
15402TIP3   OH267620   1.928   1.956   3.884 -0.5537 -0.2637  0.9870
15402TIP3    H167621   2.003   1.897   3.879  0.3212  0.8617  0.5688
15402TIP3    H267622   1.924   1.982   3.977  0.8049  1.1880  0.6825
15403TIP3   OH267623   3.665   0.419  14.083 -0.1507  0.3036  0.3577
15403TIP3    H167624   3.622   0.417  13.997  1.6302  1.1687 -0.6235
15403TIP3    H267625   3.607   0.472  14.138 -0.3740  1.4539 -0.9186
15404TIP3   OH267626   0.018   5.076   0.312  0.2734  0.3262 -0.2779
15404TIP3    H167627  -0.002   4.987   0.284  1.7587 -0.2547  0.4016
15404TIP3    H267628  -0.023   5.084   0.398  0.2588  0.2492 -0.2779
15405TIP3   OH267629   2.694   1.017   1.877  0.8594 -0.1024  0.3673
15405TIP3    H167630   2.691   0.989   1.786 -0.0169 -1.0511  0.6623
15405TIP3    H267631   2.620   1.078   1.886 -0.2038 -1.4182  0.8551
15406TIP3   OH267632   3.906   2.094  15.150 -0.3268  0.5598  0.1081
15406TIP3    H167633   3.850   2.088  15.072  0.3389  0.1741 -0.3487
15406TIP3    H267634   3.859   2.043  15.217 -0.1430 -0.4420 -0.5057
15407TIP3   OH267635   0.714   0.145  12.825 -0.3779 -0.1611 -0.0103
15407TIP3    H167636   0.732   0.087  12.751 -0.2987 -0.7211  0.4445
15407TIP3    H267637   0.716   0.233  12.787 -0.3716 -0.4450 -0.6790
15408TIP3   OH267638   4.748   3.911  11.758  0.4648 -0.6255  0.1880
15408TIP3    H167639   4.776   4.003  11.755  1.3716 -0.9000  0.2174
15408TIP3    H267640   4.823   3.864  11.793 -0.3240 -1.2613  1.0782
15409TIP3   OH267641   2.753   6.622  16.692  0.0116 -0.1400  0.8335
15409TIP3    H167642   2.823   6.675  16.730  1.2085 -0.4802 -0.7676
15409TIP3    H267643   2.760   6.537  16.735  1.0598 -0.3901  0.1870
15410TIP3   OH267644   5.231   3.401  17.131 -0.3638 -0.6453 -0.1723
15410TIP3    H167645   5.311   3.447  17.105 -0.1042 -0.3131  1.1238
15410TIP3    H267646   5.180   3.394  17.051 -0.6120  2.2631 -0.3694
15411TIP3   OH267647   0.130   3.263  11.088 -0.0601 -0.1182 -0.0806
15411TIP3    H167648   0.169   3.220  11.165 -0.1519  0.3009  0.2040
15411TIP3    H267649   0.161   3.212  11.014  0.7143 -0.0212  0.1742
15412TIP3   OH267650   0.225   3.062   2.660 -0.5663  0.0499  0.2452
15412TIP3    H167651   0.150   3.012   2.691  1.2523 -2.1848  1.3237
15412TIP3    H267652   0.296   2.998   2.653  1.4944  2.1979  0.1269
15413TIP3   OH267653   5.938   1.328  13.912  0.4913 -0.2785  0.2099
15413TIP3    H167654   5.909   1.397  13.853 -0.1499 -0.1038  0.7164
15413TIP3    H267655   6.033   1.332  13.909  0.4781  1.2123  0.9056
15414TIP3   OH267656   1.477   0.991   2.119 -0.8239 -0.3397 -0.0884
15414TIP3    H167657   1.420   0.943   2.179  0.8041 -1.8769  0.3148
15414TIP3    H267658   1.464   0.950   2.034 -1.0063 -0.0679 -0.1932
15415TIP3   OH267659   1.528   1.941  11.237  0.3093  0.0762 -0.0137
15415TIP3    H167660   1.604   1.999  11.235  2.3150 -2.2342  2.0112
15415TIP3    H267661   1.532   1.893  11.154  1.5492 -0.5109  0.3596
15416TIP3   OH267662   5.627   0.159   6.108  0.2378 -0.2151  0.5771
15416TIP3    H167663   5.634   0.224   6.178  1.1853  0.2656  0.0640
15416TIP3    H267664   5.534   0.137   6.104 -0.0571  0.8810  0.9769
15417TIP3   OH267665   6.411   3.472   2.494  0.3146 -1.1276 -0.3489
15417TIP3    H167666   6.499   3.457   2.528 -0.7653 -0.6056  3.1370
15417TIP3    H267667   6.415   3.561   2.458  1.3059 -1.2678 -0.6171
15418TIP3   OH267668   5.194   0.201  13.372 -0.3744  0.6484  0.6958
15418TIP3    H167669   5.105   0.167  13.380  0.6012 -1.7498  2.6055
15418TIP3    H267670   5.183   0.294  13.354 -3.2485  0.3246  0.3846
15419TIP3   OH267671   0.241   4.570  16.819  0.1069 -0.2786 -0.4550
15419TIP3    H167672   0.230   4.646  16.876  0.8992  0.3224 -1.0811
15419TIP3    H267673   0.330   4.579  16.783  0.0382 -1.2474 -0.9050
15420TIP3   OH267674   2.010   1.942   1.097  0.1873  0.8807  0.3909
15420TIP3    H167675   2.089   1.953   1.043  0.9063  1.0925  1.4630
15420TIP3    H267676   2.014   2.013   1.160 -0.5398  0.5220  0.8542
15421TIP3   OH267677   4.023   3.515   2.206  0.5511  0.3123  0.1305
15421TIP3    H167678   4.105   3.489   2.164  0.1191  0.3615 -0.7597
15421TIP3    H267679   3.963   3.443   2.187  0.3854  0.2715  0.7866
15422TIP3   OH267680   4.754   2.966  16.895  0.0612 -0.2212  0.0244
15422TIP3    H167681   4.768   3.044  16.948 -2.8560  0.9099 -0.6258
15422TIP3    H267682   4.673   2.928  16.930 -1.5070  0.0944 -2.9136
15423TIP3   OH267683   0.902   1.527   0.301 -0.4427  0.0638  0.0084
15423TIP3    H167684   0.920   1.511   0.208  0.8598  1.4041  0.0122
15423TIP3    H267685   0.921   1.443   0.343 -0.4455 -0.3815 -0.8505
15424TIP3   OH267686   3.182   4.769  13.487 -0.1866  0.6175  0.2891
15424TIP3    H167687   3.129   4.745  13.562  1.1035  2.0918  1.7337
15424TIP3    H267688   3.119   4.791  13.419 -1.3784 -0.6171  0.9426
15425TIP3   OH267689   0.946   2.439  13.533  0.1924 -0.4448  0.7390
15425TIP3    H167690   1.035   2.410  13.512 -0.3230 -0.8734 -1.0328
15425TIP3    H267691   0.892   2.362  13.517 -0.8855  0.6993 -1.5903
15426TIP3   OH267692   1.146   2.115   2.247  0.5773 -0.5180 -0.0040
15426TIP3    H167693   1.073   2.137   2.305  0.9962 -0.8243  0.6441
15426TIP3    H267694   1.214   2.081   2.305  2.6724  3.1070 -0.0292
15427TIP3   OH267695   5.278   1.838   5.571 -0.4070  0.2216 -0.2733
15427TIP3    H167696   5.276   1.844   5.475 -1.2855 -0.9530 -0.3484
15427TIP3    H267697   5.268   1.744   5.589  0.9223  0.2776  0.9520
15428TIP3   OH267698   1.969   5.114  10.705  0.1454 -0.1758 -0.3316
15428TIP3    H167699   1.922   5.191  10.738 -1.8000 -0.7624 -1.5591
15428TIP3    H267700   2.008   5.144  10.623  1.9491  0.2866  0.6444
15429TIP3   OH267701   0.535   2.412   4.390 -0.0455  0.0341  0.1552
15429TIP3    H167702   0.617   2.459   4.373 -1.3183  2.2895 -0.1923
15429TIP3    H267703   0.485   2.471   4.446 -1.4679 -1.2564  0.3125
15430TIP3   OH267704   2.820   1.286   2.039 -0.5590  0.0116 -0.3609
15430TIP3    H167705   2.812   1.368   1.991  2.3895  1.0179  0.6379
15430TIP3    H267706   2.863   1.227   1.979 -0.9684 -0.2133 -0.4391
15431TIP3   OH267707   4.356   1.039   1.949  0.3969 -0.3424  0.6720
15431TIP3    H167708   4.425   1.049   2.014 -0.0492 -1.5298  1.3534
15431TIP3    H267709   4.275   1.057   1.997  0.2746  2.7469 -0.5067
15432TIP3   OH267710   6.187   3.683   0.331  0.3747 -0.0107 -0.1770
15432TIP3    H167711   6.160   3.775   0.337 -0.5681 -0.3573  1.5474
15432TIP3    H267712   6.279   3.684   0.356  0.4660  0.4951 -0.5068
15433TIP3   OH267713   6.520   3.471  13.545  0.1196  0.2025  0.4194
15433TIP3    H167714   6.506   3.380  13.572 -1.2889  0.1503 -0.3698
15433TIP3    H267715   6.484   3.475  13.457  0.9849  1.3303  0.0985
15434TIP3   OH267716   6.290   3.047   3.074  0.0982  0.1769 -0.0552
15434TIP3    H167717   6.258   3.058   3.163 -0.0166  1.0480 -0.2034
15434TIP3    H267718   6.385   3.034   3.084 -0.1273 -1.4088  0.3026
15435TIP3   OH267719   2.005   5.283   3.224 -0.6260 -0.3852  0.5115
15435TIP3    H167720   1.917   5.292   3.261 -2.2468 -0.7938 -2.8228
15435TIP3    H267721   2.035   5.197   3.255 -1.4565 -0.3190  1.5511
15436TIP3   OH267722   3.588   1.553   0.260 -0.3475  0.0616  0.1265
15436TIP3    H167723   3.532   1.608   0.205 -0.5378  1.2519  1.4665
15436TIP3    H267724   3.668   1.605   0.273  0.7370 -1.2261 -0.9771
15437TIP3   OH267725   0.152   0.890   2.466  0.3127  0.7632  0.1357
15437TIP3    H167726   0.179   0.964   2.520  1.3145  0.6216 -0.1518
15437TIP3    H267727   0.125   0.929   2.382  2.8164  0.6876 -0.7694
15438TIP3   OH267728   6.472   5.719   1.240 -0.4097 -0.1634  0.7142
15438TIP3    H167729   6.435   5.764   1.164  0.5404  0.8001  0.7964
15438TIP3    H267730   6.520   5.645   1.204  0.0764  0.3179  0.3579
15439TIP3   OH267731   5.779   4.607   3.419 -0.0975  0.1394  0.1390
15439TIP3    H167732   5.775   4.560   3.336 -1.4617  0.2223  0.1321
15439TIP3    H267733   5.836   4.682   3.401  0.8250 -0.6419 -0.2865
15440TIP3   OH267734   0.218   1.528   4.523 -0.6168  0.2904  0.0769
15440TIP3    H167735   0.222   1.617   4.488  1.3727  0.5823  0.9152
15440TIP3    H267736   0.269   1.532   4.604 -0.3708 -1.6431  0.0562
15441TIP3   OH267737   0.349   2.761  11.333 -0.3665  0.4972 -0.0787
15441TIP3    H167738   0.369   2.680  11.285  0.4234 -0.8983  2.4509
15441TIP3    H267739   0.253   2.763  11.337 -0.3826 -0.7684  0.5387
15442TIP3   OH267740   6.068   5.067  11.324  0.1294  0.1041 -0.2018
15442TIP3    H167741   6.129   5.021  11.381 -0.1700 -0.0079  0.0270
15442TIP3    H267742   6.012   4.999  11.288 -1.4290  0.4460  1.4604
15443TIP3   OH267743   1.843   6.171   4.540 -0.1840  0.2729  0.3593
15443TIP3    H167744   1.911   6.105   4.525  0.9172  1.6021 -0.6695
15443TIP3    H267745   1.793   6.174   4.459  0.7174  1.7405 -0.1744
15444TIP3   OH267746   3.362   5.267   5.558 -0.2952  0.2069 -0.1295
15444TIP3    H167747   3.303   5.192   5.559 -2.2588  1.6807  0.9408
15444TIP3    H267748   3.416   5.256   5.637  0.9312 -1.1194 -1.0904
15445TIP3   OH267749   0.541   5.670   3.851 -0.4764 -0.3036 -0.3684
15445TIP3    H167750   0.524   5.602   3.916  0.3741  0.6015  0.8354
15445TIP3    H267751   0.536   5.752   3.900 -0.1924  0.4309 -1.5277
15446TIP3   OH267752   0.968   3.959   0.285 -0.2634 -0.2967 -0.1802
15446TIP3    H167753   0.979   4.024   0.354 -0.8028 -0.5453  0.1494
15446TIP3    H267754   0.874   3.959   0.267 -0.3857 -1.4856  0.3368
15447TIP3   OH267755   3.200   6.376   4.544  0.1364 -0.3576  0.2820
15447TIP3    H167756   3.185   6.470   4.555  0.1607 -0.0331 -2.0148
15447TIP3    H267757   3.269   6.355   4.607  1.6646  1.6531 -0.5945
15448TIP3   OH267758   6.759   5.588   4.869 -0.4380  0.5072  0.0257
15448TIP3    H167759   6.802   5.603   4.785 -1.0755 -1.3236 -0.6893
15448TIP3    H267760   6.673   5.628   4.858 -0.8402 -0.4548 -0.5666
15449TIP3   OH267761   2.259   2.442  14.538 -0.0279 -0.4893  0.0981
15449TIP3    H167762   2.278   2.535  14.538  0.6289 -0.5978 -1.2230
15449TIP3    H267763   2.295   2.410  14.455 -0.6139 -1.8391  0.3341
15450TIP3   OH267764   6.298   6.635  15.266  0.1720  0.4243  0.0527
15450TIP3    H167765   6.340   6.617  15.350 -1.7352 -1.2861  0.7059
15450TIP3    H267766   6.353   6.589  15.202  0.6572  0.2778  0.5682
15451TIP3   OH267767   4.538   6.465  14.290 -0.3274 -0.1973  0.1488
15451TIP3    H167768   4.464   6.405  14.280  0.1059 -0.7000 -0.1046
15451TIP3    H267769   4.609   6.410  14.323  0.7662 -0.3655 -2.2555
15452TIP3   OH267770   1.238   4.823   6.846  0.5536  0.4514  0.6811
15452TIP3    H167771   1.291   4.784   6.777  1.0036  1.3757  0.4881
15452TIP3    H267772   1.210   4.907   6.810 -0.8529  0.0974  0.8732
15453TIP3   OH267773   1.935   3.852  13.079 -0.0036  0.1164  0.2827
15453TIP3    H167774   1.989   3.773  13.072 -1.0617 -0.4826 -1.9609
15453TIP3    H267775   1.999   3.923  13.085  0.9753 -0.8078  1.5259
15454TIP3   OH267776   4.673   3.369   2.633  0.0733  0.4435  0.7903
15454TIP3    H167777   4.750   3.363   2.576 -1.9002  1.6899 -2.2944
15454TIP3    H267778   4.631   3.283   2.624  0.1918  0.3583  1.0479
15455TIP3   OH267779   4.596   1.228  16.954 -0.8101 -0.8506  0.1271
15455TIP3    H167780   4.562   1.157  17.010  0.4109 -0.9919  0.7238
15455TIP3    H267781   4.520   1.285  16.939 -2.0520 -2.7203 -1.1061
15456TIP3   OH267782   2.271   1.999   3.148  0.2128 -0.5839 -0.1192
15456TIP3    H167783   2.363   2.011   3.125  0.2178 -0.1836  0.0994
15456TIP3    H267784   2.272   1.946   3.227  0.2572 -0.4900 -0.0576
15457TIP3   OH267785   6.448   4.322  11.410 -0.1541 -0.1141 -0.4572
15457TIP3    H167786   6.458   4.319  11.314  0.0983  0.4498 -0.4519
15457TIP3    H267787   6.354   4.333  11.423 -0.1742 -0.0492 -0.6440
15458TIP3   OH267788   2.302   5.093  16.292 -0.2437  0.4102 -0.1557
15458TIP3    H167789   2.376   5.039  16.265 -0.0411  0.2326  0.7308
15458TIP3    H267790   2.274   5.137  16.212  0.7036  0.3353 -0.5379
15459TIP3   OH267791   2.962   1.929   0.764  0.3842 -0.1650 -0.0215
15459TIP3    H167792   3.051   1.900   0.743  0.2378 -1.2309  0.7390
15459TIP3    H267793   2.939   1.880   0.843 -1.1773 -0.5287 -0.6653
15460TIP3   OH267794   1.575   1.581   3.318 -0.5864 -0.3231  0.7566
15460TIP3    H167795   1.544   1.577   3.409  0.0708  0.5132  1.0387
15460TIP3    H267796   1.592   1.489   3.295 -2.3599 -0.7168  0.8832
15461TIP3   OH267797   0.270   5.001  16.654 -0.4829  0.2015  0.0401
15461TIP3    H167798   0.272   5.033  16.745 -1.9164 -0.4917  0.3387
15461TIP3    H267799   0.196   5.047  16.615 -0.1208  0.1814 -0.6757
15462TIP3   OH267800   0.906   1.850   3.428  0.2631  0.1774 -0.2626
15462TIP3    H167801   0.915   1.779   3.364  1.8943 -1.0579  1.2026
15462TIP3    H267802   0.876   1.805   3.508  0.7670  1.2230  0.5346
15463TIP3   OH267803   3.215   4.826  12.998  0.2026  0.1560  0.2766
15463TIP3    H167804   3.165   4.904  13.019  0.0391  0.7811 -2.1458
15463TIP3    H267805   3.306   4.854  13.001  0.3743 -0.4783  2.7255
15464TIP3   OH267806   1.895   5.798   0.546  0.8275 -0.2305 -0.1859
15464TIP3    H167807   1.917   5.891   0.541  0.3116 -0.1194 -0.4746
15464TIP3    H267808   1.924   5.762   0.463 -0.2993 -0.0254 -0.6913
15465TIP3   OH267809   5.258   5.491  12.986  0.1234  0.6397 -0.3129
15465TIP3    H167810   5.277   5.487  13.080  2.4019 -1.6200 -0.7710
15465TIP3    H267811   5.175   5.538  12.981  1.3349  3.4979  2.5921
15466TIP3   OH267812   4.256   4.829  13.242 -0.6926 -0.2272 -0.2377
15466TIP3    H167813   4.228   4.800  13.155  0.0918 -3.2901  0.4508
15466TIP3    H267814   4.184   4.802  13.300 -0.6272  0.6449  0.2672
15467TIP3   OH267815   0.675   3.231   6.093  0.3447 -0.1292 -0.5223
15467TIP3    H167816   0.669   3.277   6.177  3.9250  1.4008 -0.9170
15467TIP3    H267817   0.593   3.252   6.048 -1.3632 -0.4149  2.2324
15468TIP3   OH267818   1.947   4.827  16.066  0.3502  0.9436 -0.2976
15468TIP3    H167819   1.892   4.755  16.033  1.1784  0.2034 -0.1180
15468TIP3    H267820   2.028   4.784  16.093 -0.1366  1.5381  2.4087
15469TIP3   OH267821   3.141   4.562  13.753  0.0539 -0.4026  0.1269
15469TIP3    H167822   3.145   4.528  13.842  1.0240 -1.6182 -0.3481
15469TIP3    H267823   3.231   4.590  13.734  0.0368 -0.8501 -0.7055
15470TIP3   OH267824   2.230   3.828  17.180 -0.0434  0.0560  0.2970
15470TIP3    H167825   2.260   3.772  17.251  0.5519  0.1568  0.1320
15470TIP3    H267826   2.151   3.870  17.214  1.6523  2.1507  1.9558
15471TIP3   OH267827   5.298   1.634   0.776 -0.1826  0.1655 -0.1674
15471TIP3    H167828   5.348   1.553   0.786  1.6786  0.9817 -2.0277
15471TIP3    H267829   5.346   1.698   0.829 -1.5271  0.1498  1.1273
15472TIP3   OH267830   2.747   4.816   5.661  0.7022  0.2831 -0.0810
15472TIP3    H167831   2.735   4.889   5.722 -0.4597  0.3050 -0.3011
15472TIP3    H267832   2.811   4.848   5.597  0.4438  1.0078  0.0079
15473TIP3   OH267833   1.195   4.641  11.698  0.2840 -0.1470  0.1203
15473TIP3    H167834   1.126   4.630  11.633  0.5872  2.0476 -0.6664
15473TIP3    H267835   1.149   4.641  11.782 -0.8825  2.2295 -0.4402
15474TIP3   OH267836   3.538   0.748   2.034 -0.1393 -0.5402 -0.4533
15474TIP3    H167837   3.537   0.834   1.993  1.2648 -1.4899 -2.7348
15474TIP3    H267838   3.485   0.757   2.113 -1.3410  1.9759 -1.4547
15475TIP3   OH267839   3.170   0.743  15.995 -0.2526 -0.0101  0.2557
15475TIP3    H167840   3.095   0.702  15.952  0.6709 -0.4078 -1.0370
15475TIP3    H267841   3.165   0.713  16.086 -0.4685 -1.7861 -0.3033
15476TIP3   OH267842   4.443   0.653  15.433 -0.2534 -0.2205  0.1543
15476TIP3    H167843   4.492   0.684  15.356  0.6182 -1.6194  0.1162
15476TIP3    H267844   4.489   0.693  15.507 -0.0490 -0.2168  0.0280
15477TIP3   OH267845   2.811   4.899  12.124  0.4729  0.2889 -0.3981
15477TIP3    H167846   2.858   4.816  12.123 -0.7177 -0.4174 -0.2133
15477TIP3    H267847   2.762   4.900  12.042 -1.7641 -0.5800  0.8288
15478TIP3   OH267848   4.366   3.262  15.325 -0.0913 -0.2133  0.1421
15478TIP3    H167849   4.404   3.181  15.292  0.6421 -0.0564  0.5690
15478TIP3    H267850   4.325   3.303  15.249 -1.4344 -1.5036  0.1302
15479TIP3   OH267851   2.949   1.566  12.672  0.3735 -0.4592  0.4989
15479TIP3    H167852   2.992   1.643  12.633 -0.8816 -0.3249 -0.6976
15479TIP3    H267853   3.016   1.498  12.669  1.0762  0.2154  0.3170
15480TIP3   OH267854   1.517   4.269   2.314 -0.4753 -0.3580 -0.1091
15480TIP3    H167855   1.534   4.301   2.403  2.6776  2.3647 -1.4529
15480TIP3    H267856   1.441   4.319   2.285 -0.2772  0.2885  0.4309
15481TIP3   OH267857   1.852   6.404   3.359  0.1765 -0.2163 -0.1748
15481TIP3    H167858   1.819   6.352   3.286 -0.6590  0.2621 -0.1470
15481TIP3    H267859   1.869   6.340   3.428 -0.8030 -0.4673 -0.1557
15482TIP3   OH267860   6.123   6.522  11.120 -0.5755 -0.1708 -0.8647
15482TIP3    H167861   6.087   6.483  11.199 -0.7889  1.7327  0.0374
15482TIP3    H267862   6.072   6.484  11.049 -0.6533 -1.6027 -0.0656
15483TIP3   OH267863   5.887   6.721  15.256  0.5094 -0.1837 -0.2831
15483TIP3    H167864   5.888   6.813  15.283  0.5175 -0.4945  0.8420
15483TIP3    H267865   5.921   6.721  15.167 -0.2325  0.9931 -0.5860
15484TIP3   OH267866   1.811   6.765   5.747  0.2472  0.2059 -0.2141
15484TIP3    H167867   1.761   6.842   5.774 -0.6926 -0.5502  0.2759
15484TIP3    H267868   1.812   6.708   5.825 -0.5407 -1.0087 -1.0521
15485TIP3   OH267869   6.745   4.395  13.825 -0.2729  1.1236  0.1438
15485TIP3    H167870   6.830   4.352  13.832  0.2987  1.9866 -1.0762
15485TIP3    H267871   6.764   4.480  13.783 -1.8864  0.7438 -1.4974
15486TIP3   OH267872   4.789   1.135  16.785  0.2788 -0.5280 -0.3067
15486TIP3    H167873   4.743   1.182  16.854  0.5727 -1.2710  0.4173
15486TIP3    H267874   4.750   1.048  16.786  0.6052 -0.6827 -0.7635
15487TIP3   OH267875   6.273   6.773  12.436  0.3233  0.4134  0.0011
15487TIP3    H167876   6.199   6.765  12.497  0.6194 -1.4367  0.1654
15487TIP3    H267877   6.238   6.742  12.352  1.1173 -1.3297  0.2774
15488TIP3   OH267878   6.602   6.475   1.679  0.1534 -0.2425  0.3602
15488TIP3    H167879   6.625   6.396   1.630  0.4716 -0.6212  1.1129
15488TIP3    H267880   6.621   6.454   1.770  2.9685  1.6388  0.3472
15489TIP3   OH267881   6.126   1.720   2.582  0.1508 -0.5413  0.2341
15489TIP3    H167882   6.038   1.718   2.619  0.1572 -0.3739  0.2596
15489TIP3    H267883   6.184   1.724   2.658  0.1972 -1.0704  0.2312
15490TIP3   OH267884   5.173   3.219  16.577  0.1561 -0.3297 -0.2103
15490TIP3    H167885   5.251   3.167  16.556  0.0533 -0.9179  0.8184
15490TIP3    H267886   5.171   3.287  16.510  1.6300 -0.2263 -0.1713
15491TIP3   OH267887   0.757   5.808  16.192  0.1172 -0.3118 -0.6007
15491TIP3    H167888   0.792   5.774  16.274  0.6781  1.0880 -0.2264
15491TIP3    H267889   0.828   5.860  16.155 -0.0290 -1.1382 -2.1361
15492TIP3   OH267890   2.780   3.260  12.187 -0.5281  0.1375 -0.5205
15492TIP3    H167891   2.782   3.206  12.108 -0.7694 -1.6680  0.6536
15492TIP3    H267892   2.696   3.306  12.182  0.5507  2.1257 -2.5575
15493TIP3   OH267893   0.350   4.768   3.203 -0.2845 -0.0407 -0.3308
15493TIP3    H167894   0.392   4.840   3.155 -0.8190 -0.8681 -2.1128
15493TIP3    H267895   0.320   4.808   3.284 -2.0589  2.2280 -1.9637
15494TIP3   OH267896   4.062   0.194   4.385  0.5262  0.3030 -0.2831
15494TIP3    H167897   4.121   0.208   4.459 -0.8709 -0.4249  1.0365
15494TIP3    H267898   4.117   0.203   4.308  2.7781 -2.0775  0.8970
15495TIP3   OH267899   2.612   2.011  11.978  0.3021  0.0484  0.5383
15495TIP3    H167900   2.598   2.034  11.887 -0.2027  1.1862  0.8969
15495TIP3    H267901   2.686   1.950  11.976  0.2076 -0.0434 -0.6305
15496TIP3   OH267902   3.729   3.239   2.790  0.2643  0.3209  0.0843
15496TIP3    H167903   3.655   3.298   2.799  0.8432  1.0951 -0.1300
15496TIP3    H267904   3.806   3.296   2.785  0.8621 -0.4528  0.0968
15497TIP3   OH267905   6.326   4.751   4.461  0.4240 -0.6219 -0.4550
15497TIP3    H167906   6.390   4.768   4.530  1.0329 -1.6804 -0.7405
15497TIP3    H267907   6.342   4.820   4.395 -0.5397  0.7450  0.6717
15498TIP3   OH267908   5.351   1.043  14.125 -0.2932  0.0567 -0.3901
15498TIP3    H167909   5.421   0.981  14.107  0.2229  0.6104 -0.3231
15498TIP3    H267910   5.274   1.007  14.080 -0.8040 -2.1796  2.0566
15499TIP3   OH267911   1.434   4.967   1.345  0.2825 -0.0547  0.4727
15499TIP3    H167912   1.488   4.927   1.413 -1.0950  0.3770  1.8473
15499TIP3    H267913   1.345   4.963   1.378 -0.5088 -0.2657 -1.5314
15500TIP3   OH267914   1.495   5.526   4.804  0.1652  0.1303 -0.7006
15500TIP3    H167915   1.494   5.530   4.708 -0.2402  1.4836 -0.6594
15500TIP3    H267916   1.424   5.466   4.826 -0.2790  0.4466 -1.2385
15501TIP3   OH267917   1.127   6.266   4.710  0.5245 -0.1038  0.7455
15501TIP3    H167918   1.082   6.205   4.769  0.0779 -0.0335  0.4778
15501TIP3    H267919   1.141   6.344   4.763 -0.4269  0.1884  0.5842
15502TIP3   OH267920   2.370   2.085  12.134  0.7071 -0.3025  0.4757
15502TIP3    H167921   2.292   2.088  12.077  0.4285 -2.4959  0.6406
15502TIP3    H267922   2.442   2.067  12.074  0.7213 -0.5571  0.5656
15503TIP3   OH267923   0.131   2.791   0.935 -0.3163  0.2587  0.0842
15503TIP3    H167924   0.207   2.841   0.964  1.0606 -1.0317 -1.0913
15503TIP3    H267925   0.056   2.847   0.955  0.8986  1.4382  1.5938
15504TIP3   OH267926   2.748   4.562   1.127  0.4534 -0.2381  0.0924
15504TIP3    H167927   2.831   4.534   1.089  0.5189  0.5909 -0.4064
15504TIP3    H267928   2.682   4.537   1.061  0.6657  2.0933 -1.0997
15505TIP3   OH267929   5.364   3.298  16.873  0.8174  0.6659 -0.0679
15505TIP3    H167930   5.415   3.361  16.923  2.7284  0.4449 -1.6247
15505TIP3    H267931   5.280   3.342  16.857  1.8618  2.5564 -0.5596
15506TIP3   OH267932   1.635   2.158   3.469 -0.1856  0.2378 -0.1749
15506TIP3    H167933   1.570   2.198   3.412 -1.4262 -2.4237 -0.8103
15506TIP3    H267934   1.645   2.069   3.435  3.1314  0.2126  0.5009
15507TIP3   OH267935   1.092   4.786   0.341 -0.6962 -0.5874  0.1818
15507TIP3    H167936   1.101   4.780   0.246 -0.6627  1.4770  0.0002
15507TIP3    H267937   1.182   4.781   0.374 -0.5367  0.4204 -0.0601
15508TIP3   OH267938   1.653   1.694   5.987 -0.0187 -0.4846  0.5283
15508TIP3    H167939   1.607   1.656   6.062 -4.7382 -0.1244 -1.7899
15508TIP3    H267940   1.608   1.777   5.973  3.0077  1.0514 -0.7951
15509TIP3   OH267941   5.163   4.648   1.000  0.0576 -0.4480  0.2192
15509TIP3    H167942   5.088   4.681   1.050  0.0168  0.9856 -0.7282
15509TIP3    H267943   5.125   4.581   0.943  0.0278 -1.7751  1.7061
15510TIP3   OH267944   3.551   2.352   1.531  0.3387  0.1526 -0.0613
15510TIP3    H167945   3.495   2.407   1.476 -0.1828  1.8878  2.0880
15510TIP3    H267946   3.601   2.413   1.585  0.7106 -1.4407  1.5151
15511TIP3   OH267947   0.191   3.828  15.488 -0.4015  0.0111  0.2854
15511TIP3    H167948   0.242   3.763  15.535 -0.3161  1.0000  1.5870
15511TIP3    H267949   0.232   3.911  15.508 -1.6128  0.6715  0.1372
15512TIP3   OH267950   6.710   1.953  13.342 -0.2371  0.3354 -0.2573
15512TIP3    H167951   6.650   2.002  13.398  1.2597  0.8337  0.9619
15512TIP3    H267952   6.716   2.005  13.262  0.3245  1.4974  0.5186
15513TIP3   OH267953   4.938   6.632  12.860 -0.5764  0.0732 -0.5002
15513TIP3    H167954   4.861   6.683  12.888 -1.8247 -2.4033  0.9378
15513TIP3    H267955   4.996   6.632  12.936 -1.0623 -1.4053 -0.0914
15514TIP3   OH267956   4.965   4.823   6.717  0.5847  0.0420 -0.3991
15514TIP3    H167957   4.907   4.773   6.659  2.3457 -2.3433 -0.2158
15514TIP3    H267958   4.905   4.873   6.772 -1.2768 -1.4197 -0.9720
15515TIP3   OH267959   0.397   0.606   1.523 -0.1413  0.3794  0.0395
15515TIP3    H167960   0.369   0.659   1.449 -0.2662 -1.7855 -1.5594
15515TIP3    H267961   0.493   0.602   1.515  0.0009  1.4606  0.9819
15516TIP3   OH267962   1.918   6.441   4.424 -0.0522  0.0454 -0.5003
15516TIP3    H167963   1.956   6.524   4.453  1.5714 -0.4227 -1.1609
15516TIP3    H267964   1.954   6.376   4.484 -1.8858 -0.1392  0.4662
15517TIP3   OH267965   4.292   0.331   3.883 -0.3664 -0.4162  0.2077
15517TIP3    H167966   4.201   0.336   3.911 -0.1885 -2.4006  1.3236
15517TIP3    H267967   4.313   0.419   3.852 -1.9164  0.7494  2.2547
15518TIP3   OH267968   2.823   3.494   0.006 -0.1244 -0.1813  0.5279
15518TIP3    H167969   2.873   3.503  -0.075  1.0323 -1.5031  1.0341
15518TIP3    H267970   2.768   3.417  -0.008 -1.0852  0.5214  0.4352
15519TIP3   OH267971   3.740   5.230  15.689  0.2335  0.6264 -0.3912
15519TIP3    H167972   3.739   5.142  15.727  1.7082  1.4483  1.7110
15519TIP3    H267973   3.649   5.259  15.695  0.0852 -0.0223  0.7503
15520TIP3   OH267974   5.696   3.388   1.549  0.0976  0.3056 -0.0447
15520TIP3    H167975   5.619   3.363   1.498  0.0602 -2.1856  1.0831
15520TIP3    H267976   5.686   3.341   1.632  1.3751  2.2835  1.3182
15521TIP3   OH267977   3.502   4.499  16.442  0.1564  0.0808 -0.6459
15521TIP3    H167978   3.470   4.576  16.489 -1.7955 -0.2770 -1.2982
15521TIP3    H267979   3.465   4.424  16.490  1.2503 -0.4270 -0.5696
15522TIP3   OH267980   2.519   2.504  17.060  0.3077  0.1585  0.0485
15522TIP3    H167981   2.431   2.534  17.037 -0.3221 -1.8828 -0.3963
15522TIP3    H267982   2.550   2.568  17.124 -1.4850  0.9449  0.1885
15523TIP3   OH267983   2.965   2.117   2.006  0.4395 -0.0444  0.7644
15523TIP3    H167984   2.888   2.103   1.950  0.5044  0.4478  0.5416
15523TIP3    H267985   2.930   2.120   2.095  0.6786 -4.1463  1.1967
15524TIP3   OH267986   0.600   6.348   2.075 -0.0061 -0.1947  0.3204
15524TIP3    H167987   0.627   6.279   2.014  1.6552  1.1225 -0.5185
15524TIP3    H267988   0.512   6.322   2.103 -0.2242 -1.6200 -1.4830
15525TIP3   OH267989   3.108   1.678  13.665 -0.1037 -0.0233  0.0595
15525TIP3    H167990   3.202   1.689  13.651 -0.3552  0.5318 -1.4112
15525TIP3    H267991   3.098   1.673  13.760  1.4502 -0.5820  0.2207
15526TIP3   OH267992   6.465   6.614   3.473  0.3742  0.7030  0.0866
15526TIP3    H167993   6.532   6.677   3.501 -0.3726  1.3689  0.4140
15526TIP3    H267994   6.436   6.646   3.388  0.7750  0.1693 -0.2544
15527TIP3   OH267995   0.062   4.297   4.142  0.0536 -1.0008 -0.7281
15527TIP3    H167996   0.044   4.343   4.224 -0.7548  1.1231 -2.0246
15527TIP3    H267997   0.081   4.207   4.169  2.3766  0.1671  2.0096
15528TIP3   OH267998   3.947   1.955  14.225 -0.3589 -0.1331  0.2846
15528TIP3    H167999   3.930   1.921  14.313 -0.3162 -0.9197 -0.0045
15528TIP3    H268000   3.880   2.023  14.212 -0.0788  0.3102  1.0943
15529TIP3   OH268001   0.031   3.258  14.169  0.2080  0.0330  0.0516
15529TIP3    H168002  -0.002   3.240  14.081  0.9037 -1.0683 -0.0086
15529TIP3    H268003  -0.047   3.258  14.224 -0.2504  0.8571 -0.5701
15530TIP3   OH268004   4.511   3.857  13.034 -0.7363  0.4435  0.0029
15530TIP3    H168005   4.474   3.844  12.946  1.4000  1.8883 -1.2073
15530TIP3    H268006   4.485   3.779  13.082 -1.1927 -0.8805 -2.2175
15531TIP3   OH268007   2.380   6.042   4.592 -0.2741 -0.0041 -0.5820
15531TIP3    H168008   2.458   6.076   4.548  0.0104 -1.0247 -0.8870
15531TIP3    H268009   2.327   6.003   4.522  0.5806 -2.4154  0.0039
15532TIP3   OH268010   1.434   2.610  16.555  0.2275 -0.2600  0.5851
15532TIP3    H168011   1.338   2.602  16.553 -0.3317  3.9685 -1.8404
15532TIP3    H268012   1.460   2.605  16.463  1.8982  1.7455  0.8935
15533TIP3   OH268013   6.348   5.498   0.746  0.4002 -0.5164 -0.2083
15533TIP3    H168014   6.374   5.590   0.740 -0.0234 -0.4521 -1.1820
15533TIP3    H268015   6.259   5.496   0.709  0.1532 -1.2112  0.3954
15534TIP3   OH268016   4.776   2.537  14.688 -0.5840  0.2537 -0.4364
15534TIP3    H168017   4.759   2.631  14.700 -1.5847 -0.0566  0.7973
15534TIP3    H268018   4.690   2.496  14.697 -0.3017 -0.7366 -1.8371
15535TIP3   OH268019   2.083   0.587  13.189  0.0076  1.0713 -0.0481
15535TIP3    H168020   2.054   0.511  13.239 -3.0521  1.2444 -1.3276
15535TIP3    H268021   2.155   0.554  13.134 -1.3622 -1.0095 -0.7237
15536TIP3   OH268022   0.236   5.897   3.165 -0.6682  0.3531 -0.2826
15536TIP3    H168023   0.324   5.924   3.191 -0.5860  0.2251 -0.4228
15536TIP3    H268024   0.249   5.811   3.124 -0.9219  0.1206  0.1176
15537TIP3   OH268025   4.419   5.335   4.376  0.0764 -0.3331  0.0218
15537TIP3    H168026   4.472   5.317   4.454 -0.7223 -1.8493  0.2502
15537TIP3    H268027   4.482   5.340   4.305  0.8778  1.5388  0.7774
15538TIP3   OH268028   2.804   0.030  12.757  0.5861 -0.1404 -0.1450
15538TIP3    H168029   2.852  -0.048  12.731  0.6163  0.1905 -1.1476
15538TIP3    H268030   2.868   0.101  12.747  0.9725 -0.0948  2.0050
15539TIP3   OH268031   2.422   2.331  14.277 -0.2797  0.1950  0.0268
15539TIP3    H168032   2.498   2.304  14.329  0.7344  3.2540  0.3443
15539TIP3    H268033   2.408   2.259  14.216  2.9167 -0.5228 -0.0554
15540TIP3   OH268034   2.764   4.875   0.495  0.0566  0.4605  0.4791
15540TIP3    H168035   2.749   4.799   0.551  0.5557 -0.0355 -0.0498
15540TIP3    H268036   2.751   4.950   0.553 -0.5876 -0.0143  0.9738
15541TIP3   OH268037   2.404   1.737  13.798  0.2299 -0.0965 -0.3940
15541TIP3    H168038   2.371   1.818  13.837 -2.0539 -0.5912 -1.1176
15541TIP3    H268039   2.494   1.729  13.830 -1.1496 -0.0928  4.2138
15542TIP3   OH268040   1.106   2.903  11.130  0.0891 -0.5729  0.3569
15542TIP3    H168041   1.148   2.849  11.197  0.7241 -1.2063 -0.5306
15542TIP3    H268042   1.164   2.897  11.054 -0.1036  0.9255  0.0535
15543TIP3   OH268043   3.244   6.579   0.805 -0.2696 -0.4673 -0.0385
15543TIP3    H168044   3.265   6.656   0.859  0.0649 -0.2993 -0.4070
15543TIP3    H268045   3.298   6.509   0.843 -0.8239 -0.6070  0.5089
15544TIP3   OH268046   2.604   4.997  14.642  0.2114 -0.7025  0.2787
15544TIP3    H168047   2.519   4.966  14.673  0.7471 -2.2703  0.3116
15544TIP3    H268048   2.664   4.926  14.664  1.0899 -0.7578 -2.0013
15545TIP3   OH268049   0.926   3.387  13.525  0.8669  0.1649 -0.1551
15545TIP3    H168050   0.930   3.292  13.520  0.5562  0.0787  0.9142
15545TIP3    H268051   0.858   3.412  13.463 -1.7338 -0.6410  2.1879
15546TIP3   OH268052   6.074   2.462  11.930  0.3451 -0.1829  0.6530
15546TIP3    H168053   6.052   2.469  12.022 -0.3589  0.8139  0.4247
15546TIP3    H268054   6.078   2.368  11.913  0.2628 -0.3743  1.6370
15547TIP3   OH268055   1.875   4.020   5.436 -0.1530 -0.5051 -0.2397
15547TIP3    H168056   1.783   4.046   5.447 -0.3320 -0.3411 -1.8520
15547TIP3    H268057   1.872   3.952   5.368  0.8740 -0.9093  0.0966
15548TIP3   OH268058   1.504   6.545   5.238  0.1274  0.2605 -0.5394
15548TIP3    H168059   1.464   6.463   5.208 -1.1970  0.8791 -0.5623
15548TIP3    H268060   1.536   6.525   5.326 -0.2319 -0.2745 -0.5219
15549TIP3   OH268061   3.162   6.336  11.694 -0.1902  0.3928 -0.2453
15549TIP3    H168062   3.074   6.358  11.727  0.1074  1.0704  0.1203
15549TIP3    H268063   3.219   6.348  11.770  0.2110 -0.1247 -0.4631
15550TIP3   OH268064   5.606   5.697  12.862 -0.9612  0.2297  0.3143
15550TIP3    H168065   5.525   5.652  12.839 -0.6084 -0.6603  0.7554
15550TIP3    H268066   5.586   5.741  12.945 -0.4347 -1.6212  1.4657
15551TIP3   OH268067   2.939   2.534  15.219 -0.1843  0.1055  0.4099
15551TIP3    H168068   3.005   2.595  15.252  0.0622  1.2416 -2.0304
15551TIP3    H268069   2.947   2.537  15.124 -2.0874 -1.6227  0.1124
15552TIP3   OH268070   5.124   3.499   0.296  0.0266  0.0930 -0.3005
15552TIP3    H168071   5.150   3.483   0.205 -0.4707  1.3632 -0.6900
15552TIP3    H268072   5.123   3.413   0.336  3.3679 -0.2331 -0.6375
15553TIP3   OH268073   5.335   4.637   1.600  0.3025  0.3508 -0.1856
15553TIP3    H168074   5.396   4.704   1.628 -1.0687  2.2199 -1.4009
15553TIP3    H268075   5.276   4.624   1.674 -1.0881  2.5774 -0.8169
15554TIP3   OH268076   1.672   1.606   2.171 -0.1681  0.4580 -0.3693
15554TIP3    H168077   1.659   1.546   2.099  1.1185  0.5667 -0.7090
15554TIP3    H268078   1.718   1.555   2.238  0.1228  0.8138 -0.2937
15555TIP3   OH268079   6.679   2.416  11.836  0.2819  0.0319 -0.0742
15555TIP3    H168080   6.641   2.421  11.924  0.0591  0.8580 -0.2145
15555TIP3    H268081   6.688   2.507  11.808  2.0839 -0.1414 -0.1815
15556TIP3   OH268082   6.427   0.834   5.906 -0.0477 -0.1338 -0.1218
15556TIP3    H168083   6.458   0.924   5.898  1.0858 -0.2902  1.8662
15556TIP3    H268084   6.498   0.781   5.869  1.2262 -0.3713  2.4494
15557TIP3   OH268085   3.464   3.044  14.724  0.1527 -0.3024  0.1988
15557TIP3    H168086   3.521   2.975  14.758  1.5950  0.5379 -0.4512
15557TIP3    H268087   3.521   3.098  14.670 -1.2515  0.6357 -0.3955
15558TIP3   OH268088   1.360   2.871   3.446  0.1876 -0.2984 -0.3022
15558TIP3    H168089   1.428   2.930   3.413  0.3674 -0.8460 -0.9272
15558TIP3    H268090   1.351   2.804   3.378 -0.0641 -0.9539  0.3603
15559TIP3   OH268091   5.364   4.608   1.883  0.7160  0.5271 -0.8094
15559TIP3    H168092   5.377   4.703   1.879  0.8949  0.5929  0.7022
15559TIP3    H268093   5.451   4.574   1.904  0.3928  0.1334 -0.1199
15560TIP3   OH268094   0.109   2.303   3.541  0.2430 -0.2731 -0.5814
15560TIP3    H168095   0.141   2.365   3.475 -0.3063  0.3595 -0.2712
15560TIP3    H268096   0.110   2.218   3.498 -2.1857  0.4132 -2.1670
15561TIP3   OH268097   3.534   5.454   3.771  0.1021 -0.0543  0.5848
15561TIP3    H168098   3.474   5.408   3.829 -0.7623  0.9698  0.5354
15561TIP3    H268099   3.547   5.393   3.698  0.4229 -0.9458  1.3590
15562TIP3   OH268100   4.802   1.199   3.558 -0.5429 -0.4591 -0.2678
15562TIP3    H168101   4.824   1.277   3.608 -0.1086 -0.5732 -0.2720
15562TIP3    H268102   4.870   1.194   3.491  1.2724 -2.4947  1.5602
15563TIP3   OH268103   3.025   6.715  13.289  0.0702  0.1906 -0.3510
15563TIP3    H168104   2.974   6.645  13.249  1.4709 -0.1396 -1.6642
15563TIP3    H268105   3.021   6.697  13.383 -1.8625 -0.0319 -0.4354
15564TIP3   OH268106   4.856   2.113   2.132  0.3216 -0.1839 -0.5150
15564TIP3    H168107   4.944   2.128   2.168 -0.3291  0.5402  0.8626
15564TIP3    H268108   4.832   2.196   2.091 -1.0612  0.8657  2.1986
15565TIP3   OH268109   5.101   6.040  16.524  0.1127  0.4116 -0.9684
15565TIP3    H168110   5.088   5.948  16.500  0.0763  0.0019  0.5468
15565TIP3    H268111   5.088   6.088  16.442 -1.8640 -0.7556 -1.3904
15566TIP3   OH268112   5.165   0.097   5.287 -0.6772  0.1434 -0.0846
15566TIP3    H168113   5.251   0.058   5.305 -0.0510  1.8377  0.8228
15566TIP3    H268114   5.165   0.179   5.336 -1.6987  1.6208 -2.3777
15567TIP3   OH268115   4.385   0.829  17.085 -0.2615  0.4023  0.0899
15567TIP3    H168116   4.338   0.759  17.129  2.9419 -0.4254  2.5801
15567TIP3    H268117   4.414   0.790  17.002 -1.7052  0.1024 -0.2910
15568TIP3   OH268118   6.325   5.952  12.254  0.4575  0.1097  0.5445
15568TIP3    H168119   6.306   6.031  12.203  0.2497  0.6581  1.4561
15568TIP3    H268120   6.312   5.880  12.192 -2.0187  0.6060  0.3750
15569TIP3   OH268121   3.742   5.684  11.640  0.3971  0.0092 -0.4031
15569TIP3    H168122   3.800   5.618  11.679  1.4257  0.3816 -1.2512
15569TIP3    H268123   3.769   5.766  11.682  1.1746  0.3332 -1.4877
15570TIP3   OH268124   0.543   0.812   5.097 -0.8196  0.3901 -0.8698
15570TIP3    H168125   0.553   0.739   5.158  1.7499  1.2382 -0.1633
15570TIP3    H268126   0.583   0.780   5.016  1.5779  1.3650 -0.1628
15571TIP3   OH268127   4.375   1.177  11.593 -0.2372  0.4201 -0.3926
15571TIP3    H168128   4.406   1.134  11.672 -0.1031  0.4878 -0.4086
15571TIP3    H268129   4.320   1.112  11.550  0.7678 -0.0916 -0.9316
15572TIP3   OH268130   5.413   6.616  14.093  0.4573  0.2645 -0.2302
15572TIP3    H168131   5.337   6.561  14.073 -0.3231  0.9694  0.6642
15572TIP3    H268132   5.377   6.704  14.103  1.5213  0.7560 -0.5868
15573TIP3   OH268133   5.276   0.794  12.161 -0.5180 -0.1731  0.1924
15573TIP3    H168134   5.287   0.874  12.110 -0.0947 -0.2435  0.1672
15573TIP3    H268135   5.248   0.728  12.097  0.2726 -0.3283 -0.0148
15574TIP3   OH268136   2.619   4.424  12.525 -0.1270 -0.2339  0.2982
15574TIP3    H168137   2.704   4.381  12.512  0.0941  0.1060  0.6110
15574TIP3    H268138   2.619   4.449  12.617 -1.4211 -2.0419  0.8305
15575TIP3   OH268139   4.724   5.670  17.002 -0.3158  0.7148  0.5552
15575TIP3    H168140   4.813   5.641  17.021 -0.2425  0.0397 -0.7080
15575TIP3    H268141   4.729   5.705  16.913 -1.1357  1.4798  0.8001
15576TIP3   OH268142   2.285   3.877  11.317  0.1298  0.2814 -0.5236
15576TIP3    H168143   2.337   3.919  11.248 -0.8108 -2.2843 -2.9942
15576TIP3    H268144   2.197   3.911  11.305 -0.3615 -1.2532 -1.7137
15577TIP3   OH268145   4.304   3.292   4.841  0.1111  0.5901  0.2742
15577TIP3    H168146   4.311   3.344   4.761  0.6039  2.3138  1.3944
15577TIP3    H268147   4.217   3.314   4.875 -0.0176  0.0086  0.3288
15578TIP3   OH268148   5.982   6.724  11.601  0.1701 -0.0813  0.4422
15578TIP3    H168149   6.071   6.723  11.564  0.4632 -0.0393  1.1304
15578TIP3    H268150   5.925   6.738  11.526  0.6221 -1.8397 -0.2775
15579TIP3   OH268151   3.413   4.655   6.004 -0.4823  0.5060 -0.4246
15579TIP3    H168152   3.492   4.618   5.965 -0.8093  0.6871 -1.2825
15579TIP3    H268153   3.341   4.603   5.967 -0.9276  1.8294 -1.4793
15580TIP3   OH268154   5.061   1.848  10.603 -0.0787 -1.0106  0.0104
15580TIP3    H168155   5.117   1.778  10.635  0.7160 -1.0787 -1.4465
15580TIP3    H268156   4.973   1.811  10.603  0.2814 -1.8742 -0.3492
15581TIP3   OH268157   2.683   1.166   5.194  0.1079 -0.4058  0.1562
15581TIP3    H168158   2.727   1.092   5.151  0.3980  0.1572 -0.5418
15581TIP3    H268159   2.689   1.147   5.287 -1.1169 -2.0092 -0.0296
15582TIP3   OH268160   3.982   1.918   0.241 -0.5079  0.1870 -0.5868
15582TIP3    H168161   3.904   1.946   0.192 -2.1879 -0.9488  1.2760
15582TIP3    H268162   3.993   1.985   0.308  0.5620  0.6846 -1.2358
15583TIP3   OH268163   5.694   3.483  15.771  0.0436  0.0870 -0.3353
15583TIP3    H168164   5.660   3.396  15.748 -0.3891 -0.1544  1.0982
15583TIP3    H268165   5.684   3.488  15.866 -0.8138  2.0784 -0.4741
15584TIP3   OH268166   1.967   2.700   2.077  0.1152 -0.7593  0.2258
15584TIP3    H168167   1.917   2.777   2.050  1.1532 -0.1197  0.0790
15584TIP3    H268168   1.900   2.637   2.105 -0.7713  0.0401 -0.0249
15585TIP3   OH268169   6.223   4.124   5.745  0.4073  0.4009  0.0636
15585TIP3    H168170   6.203   4.075   5.826 -0.6819  0.4234 -0.1782
15585TIP3    H268171   6.243   4.212   5.776 -0.5018  0.5405  0.2827
15586TIP3   OH268172   6.247   2.001  16.647  0.8001  0.0903  0.4039
15586TIP3    H168173   6.205   2.059  16.583  1.6731  1.2221  0.8145
15586TIP3    H268174   6.261   1.919  16.600 -0.5742  0.1487 -0.1572
15587TIP3   OH268175   3.032   0.173   1.281  0.1175 -0.4552 -0.5587
15587TIP3    H168176   3.039   0.118   1.203  0.4653  0.9578 -1.5672
15587TIP3    H268177   3.123   0.190   1.306  0.0095 -0.6784  0.0049
15588TIP3   OH268178   3.560   6.679  11.462 -0.0690  0.4210  0.0008
15588TIP3    H168179   3.640   6.709  11.505  0.6372 -0.3754 -0.7142
15588TIP3    H268180   3.534   6.601  11.511  0.8758 -0.6317 -1.1239
15589TIP3   OH268181   4.779   6.009   1.837  0.5083  0.1215 -0.2943
15589TIP3    H168182   4.693   6.028   1.800  0.5670 -0.5316 -0.7855
15589TIP3    H268183   4.829   5.972   1.764  1.1794  0.4086  0.0062
15590TIP3   OH268184   2.300   0.020   1.047 -0.0691 -0.1712 -0.0491
15590TIP3    H168185   2.227   0.040   1.106  1.1216  1.1170  1.0319
15590TIP3    H268186   2.294   0.085   0.978 -1.3532 -1.5681 -1.3344
15591TIP3   OH268187   1.176   1.482  11.908 -0.3444  0.6901 -0.0589
15591TIP3    H168188   1.124   1.404  11.891  0.2187  0.1707  0.5285
15591TIP3    H268189   1.239   1.455  11.975  0.3490  1.4406 -0.3832
15592TIP3   OH268190   3.145   2.336   1.958  0.0079 -0.3332 -0.6447
15592TIP3    H168191   3.197   2.290   2.024 -0.9110 -0.6204 -0.1005
15592TIP3    H268192   3.054   2.316   1.981 -0.6090  3.5325  1.0176
15593TIP3   OH268193   1.578   3.076   2.855 -0.3140 -0.3095 -0.3045
15593TIP3    H168194   1.615   3.049   2.939 -0.6027  0.5868  0.1124
15593TIP3    H268195   1.508   3.137   2.877 -0.1631  0.2076 -1.2033
15594TIP3   OH268196   6.618   1.059  16.607  0.0617 -0.0570 -0.0536
15594TIP3    H168197   6.627   1.141  16.558 -0.4668 -1.0206 -1.8679
15594TIP3    H268198   6.630   0.991  16.541 -1.2934 -1.4379  1.0661
15595TIP3   OH268199   2.617   1.298   4.924 -0.0494 -0.0106  0.0917
15595TIP3    H168200   2.522   1.291   4.935  0.0390 -1.9382  0.0246
15595TIP3    H268201   2.653   1.268   5.007  0.5369  1.6600  0.4788
15596TIP3   OH268202   6.200   3.879  13.437  0.8548 -0.0193 -0.4003
15596TIP3    H168203   6.280   3.882  13.491  1.3511 -2.3514 -0.9308
15596TIP3    H268204   6.201   3.793  13.397 -2.2317 -0.3415 -0.0179
15597TIP3   OH268205   3.665   1.564   1.741 -0.9183  0.2857  0.7653
15597TIP3    H168206   3.684   1.510   1.817  1.3496  0.5713  0.4643
15597TIP3    H268207   3.722   1.640   1.750 -0.9555  0.5651 -0.9458
15598TIP3   OH268208   5.072   4.144  11.253  0.4370 -0.1227  0.0883
15598TIP3    H168209   5.115   4.179  11.175  0.2751 -1.5391 -0.6811
15598TIP3    H268210   5.043   4.221  11.301  2.5046  0.8468 -0.1030
15599TIP3   OH268211   3.037   0.637  12.263 -0.4069  0.0233  0.7575
15599TIP3    H168212   3.098   0.698  12.222  0.2099 -0.3056  1.1786
15599TIP3    H268213   2.965   0.630  12.200 -2.7816  4.5920  2.4957
15600TIP3   OH268214   1.717   3.525  10.854  0.1484  0.0266 -0.4627
15600TIP3    H168215   1.766   3.444  10.860 -0.9335 -0.5959  0.4139
15600TIP3    H268216   1.777   3.592  10.888  0.6964 -0.5752 -0.2309
15601TIP3   OH268217   3.698   0.402   3.646 -0.9084 -0.5093  0.5110
15601TIP3    H168218   3.703   0.389   3.741  0.4148  0.4233  0.6110
15601TIP3    H268219   3.790   0.399   3.617 -1.2097  0.2167 -0.5831
15602TIP3   OH268220   6.038   6.459  12.891 -0.0928  0.7866  0.3125
15602TIP3    H168221   6.066   6.491  12.977  0.2954 -0.3481  0.6273
15602TIP3    H268222   6.119   6.450  12.841 -0.2489  0.8190  0.0517
15603TIP3   OH268223   1.571   3.505  14.616 -0.1096 -0.2348  0.5304
15603TIP3    H168224   1.546   3.439  14.552 -0.2732 -0.2108  0.5680
15603TIP3    H268225   1.546   3.469  14.700  0.9826 -0.6806  0.6802
15604TIP3   OH268226   4.737   2.335  16.976  0.2975 -0.3877 -0.0488
15604TIP3    H168227   4.833   2.344  16.976  0.2497  0.2318 -0.6865
15604TIP3    H268228   4.705   2.421  16.948 -0.3917 -0.9574 -1.0816
15605TIP3   OH268229   1.999   2.414  16.144 -0.1604  0.2386  0.2442
15605TIP3    H168230   1.967   2.496  16.107 -0.5589 -0.0759 -0.1212
15605TIP3    H268231   2.028   2.437  16.233 -2.0312  0.4139  0.8427
15606TIP3   OH268232   0.429   0.149  14.616 -0.4399 -0.3868  0.2965
15606TIP3    H168233   0.512   0.145  14.569  0.1394  0.4116  1.1919
15606TIP3    H268234   0.370   0.194  14.557  0.1295  0.1449  0.1143
15607TIP3   OH268235   1.034   0.701   3.813  0.3822 -0.6660  0.3942
15607TIP3    H168236   0.969   0.743   3.757  0.3463 -0.9812  0.1952
15607TIP3    H268237   1.001   0.612   3.825  2.3360 -1.9241 -2.3730
15608TIP3   OH268238   5.596   0.157  13.041 -0.2038 -0.2488 -0.1189
15608TIP3    H168239   5.623   0.066  13.026  0.1012 -0.0824 -0.5937
15608TIP3    H268240   5.500   0.152  13.048 -0.1194 -0.7354  0.8198
15609TIP3   OH268241   1.100   4.800  11.300 -0.0976  0.2799  0.1504
15609TIP3    H168242   1.051   4.751  11.366  0.5062  0.3968  0.7114
15609TIP3    H268243   1.102   4.744  11.223 -0.5891  0.0223  0.3252
15610TIP3   OH268244   3.009   1.430  14.271 -0.0893  0.6291  0.1977
15610TIP3    H168245   2.994   1.520  14.243 -0.2886  0.3781 -0.5226
15610TIP3    H268246   3.080   1.436  14.335  2.3376  0.9485 -2.3515
15611TIP3   OH268247   0.717   4.854   2.035 -0.3070  0.0369  0.0434
15611TIP3    H168248   0.686   4.766   2.055  0.7727 -0.0391  1.5759
15611TIP3    H268249   0.661   4.884   1.964 -0.8629 -1.7818 -0.3303
15612TIP3   OH268250   0.646   6.267   2.511 -0.7044 -0.1009 -0.2012
15612TIP3    H168251   0.690   6.182   2.507 -0.1458  0.2187 -1.2702
15612TIP3    H268252   0.619   6.276   2.602  2.2013  0.0754  0.7192
15613TIP3   OH268253   6.072   3.627  16.969  0.0690 -0.0935 -0.4684
15613TIP3    H168254   5.986   3.621  17.010  0.0537 -1.8507 -0.6907
15613TIP3    H268255   6.092   3.721  16.969 -1.9831  0.3835 -0.7357
15614TIP3   OH268256   0.518   1.779   4.626  0.4385 -0.1810 -0.1559
15614TIP3    H168257   0.467   1.859   4.635  0.2613  0.0724 -2.7379
15614TIP3    H268258   0.609   1.808   4.636  0.2625 -0.2023  1.8584
15615TIP3   OH268259   4.583   5.556   2.775  0.3973  0.0172 -0.3312
15615TIP3    H168260   4.538   5.480   2.736  0.5945  0.3150 -1.1573
15615TIP3    H268261   4.644   5.517   2.838 -0.8777 -0.4051  0.6868
15616TIP3   OH268262   2.034   2.703   0.861 -0.1521  0.9445  0.0467
15616TIP3    H168263   1.951   2.703   0.908 -0.7367  0.3423 -0.9610
15616TIP3    H268264   2.059   2.795   0.857 -0.0074  1.0049  1.6456
15617TIP3   OH268265   1.076   4.737   3.688  0.0550  0.4374 -0.4670
15617TIP3    H168266   1.139   4.804   3.715 -1.3190  2.1610 -1.3474
15617TIP3    H268267   1.081   4.736   3.592  0.6346 -1.3634 -0.4671
15618TIP3   OH268268   1.260   2.742   5.971 -0.6683 -0.1869  0.3323
15618TIP3    H168269   1.333   2.804   5.962 -1.2243  0.6071  1.0896
15618TIP3    H268270   1.273   2.701   6.056 -0.9594 -0.2360  0.3554
15619TIP3   OH268271   6.044   5.780  15.714  0.1696 -0.0527  0.7257
15619TIP3    H168272   5.954   5.761  15.687 -0.0177  0.1192  1.2141
15619TIP3    H268273   6.096   5.766  15.635 -0.1065 -1.4296  0.7499
15620TIP3   OH268274   4.508   2.731  11.550  0.5166 -0.4334  0.0272
15620TIP3    H168275   4.456   2.812  11.553  0.0231 -0.5846 -2.4444
15620TIP3    H268276   4.594   2.758  11.581  0.5251  1.2197 -1.2805
15621TIP3   OH268277   2.740   4.762  14.693 -0.3258 -0.2181  0.1594
15621TIP3    H168278   2.797   4.729  14.762  0.0992 -1.5649 -0.8200
15621TIP3    H268279   2.664   4.703  14.694 -0.1866 -0.4276 -0.6985
15622TIP3   OH268280   2.174   0.361   4.703 -0.0216 -0.5169  0.0145
15622TIP3    H168281   2.251   0.415   4.686 -0.8470  0.1848 -1.7021
15622TIP3    H268282   2.151   0.324   4.618 -1.7312 -0.5014  0.4287
15623TIP3   OH268283   0.614   5.393  17.118 -0.2960 -0.0161  1.0124
15623TIP3    H168284   0.532   5.441  17.119  0.3004  1.0414  1.1064
15623TIP3    H268285   0.672   5.445  17.174  0.7476 -0.1709  0.1069
15624TIP3   OH268286   4.115   3.389  17.356 -0.7129 -0.3341  0.6943
15624TIP3    H168287   4.050   3.436  17.304  0.4394  2.9423  1.9850
15624TIP3    H268288   4.181   3.361  17.292 -2.3158 -1.9757 -0.3482
15625TIP3   OH268289   0.619   2.433  16.507  0.1153  0.0419 -0.0935
15625TIP3    H168290   0.542   2.482  16.478  0.2391 -0.4376 -1.2926
15625TIP3    H268291   0.584   2.359  16.557 -0.1765  0.0142 -0.3436
15626TIP3   OH268292   4.263   4.347   3.479  0.8629  1.0010  1.1659
15626TIP3    H168293   4.323   4.360   3.406  0.4172 -0.6808  0.4571
15626TIP3    H268294   4.311   4.292   3.540  0.4501  0.5746  1.1110
15627TIP3   OH268295   4.316   6.151  12.758  0.2804 -0.3387  0.5825
15627TIP3    H168296   4.321   6.222  12.694 -1.5041 -0.8008 -0.1481
15627TIP3    H268297   4.407   6.123  12.771  0.7136 -0.3962 -1.9803
15628TIP3   OH268298   5.525   5.256  14.424  0.3592  0.1357  0.0633
15628TIP3    H168299   5.493   5.346  14.430  2.2379  0.7915  0.8482
15628TIP3    H268300   5.491   5.224  14.340 -2.3837  0.6947  0.8705
15629TIP3   OH268301   5.079   1.273  13.947  0.3535  0.5669 -0.6183
15629TIP3    H168302   4.985   1.257  13.946  0.5430 -0.7949 -0.0669
15629TIP3    H268303   5.105   1.256  14.038  0.6583  4.2765  0.1538
15630TIP3   OH268304   1.074   5.554   4.731  0.4658 -0.2973  0.2840
15630TIP3    H168305   1.050   5.461   4.729  1.4943 -0.5900  1.0960
15630TIP3    H268306   1.101   5.570   4.821  0.4795  0.7579  0.1047
15631TIP3   OH268307   2.148   4.357  13.728 -0.0946 -0.4330 -0.1637
15631TIP3    H168308   2.114   4.270  13.748  1.4854 -1.3366 -1.1663
15631TIP3    H268309   2.091   4.390  13.659 -1.6599  0.0283  1.2820
15632TIP3   OH268310   0.859   5.188   2.274 -0.5870  0.0103  0.0882
15632TIP3    H168311   0.862   5.093   2.278  1.1603  0.0713  0.8527
15632TIP3    H268312   0.920   5.212   2.205 -0.1388  0.6053  0.6731
15633TIP3   OH268313   2.247   3.264   6.329 -0.1279  0.4381 -0.5404
15633TIP3    H168314   2.301   3.342   6.335  0.2738  0.2528 -1.5359
15633TIP3    H268315   2.299   3.195   6.370  0.0335  0.4496 -0.7195
15634TIP3   OH268316   2.170   4.148  15.151  0.2717 -0.8409  0.1744
15634TIP3    H168317   2.159   4.243  15.158  1.5727 -0.6293 -0.3382
15634TIP3    H268318   2.216   4.123  15.231  0.6198 -0.9159 -0.0461
15635TIP3   OH268319   1.913   5.292  13.761 -0.1887  0.4172  0.7488
15635TIP3    H168320   2.002   5.256  13.766  0.0060  0.5748 -1.0070
15635TIP3    H268321   1.909   5.356  13.833  1.4345  1.0400  0.3348
15636TIP3   OH268322   3.454   6.141   5.038 -0.3923 -0.5166  0.0550
15636TIP3    H168323   3.423   6.232   5.043  0.6434 -0.2183  1.6474
15636TIP3    H268324   3.375   6.088   5.049 -0.9850  0.1692 -0.7331
15637TIP3   OH268325   4.326   1.364  14.914  0.2254 -0.0527  0.0442
15637TIP3    H168326   4.282   1.448  14.908  2.3884  1.0504 -2.1692
15637TIP3    H268327   4.335   1.334  14.823  2.4717 -0.9692  0.4827
15638TIP3   OH268328   5.202   3.683   4.965  0.2060  0.8232  0.8147
15638TIP3    H168329   5.181   3.736   4.889  0.8436 -1.0879 -0.7751
15638TIP3    H268330   5.284   3.721   4.999  0.4204  1.1170 -0.0193
15639TIP3   OH268331   4.110   3.924  12.202  0.3727 -0.1231  0.3070
15639TIP3    H168332   4.072   4.011  12.209  0.0973 -0.0737 -1.4021
15639TIP3    H268333   4.171   3.930  12.128  1.0178 -1.1563  0.7285
15640TIP3   OH268334   6.268   1.802   0.197  0.5791 -0.7418 -0.1745
15640TIP3    H168335   6.341   1.859   0.173  0.8451 -1.2990 -0.7149
15640TIP3    H268336   6.238   1.837   0.281  2.0666 -1.0564  0.5296
15641TIP3   OH268337   3.555   6.527   4.365 -0.0348 -0.2189  0.7133
15641TIP3    H168338   3.558   6.446   4.417 -0.6595 -0.5454  0.2422
15641TIP3    H268339   3.580   6.596   4.427  0.1368 -0.7215  1.2110
15642TIP3   OH268340   4.443   2.667   2.268  0.3835  0.8496  0.8049
15642TIP3    H168341   4.411   2.707   2.187  0.7655 -0.4039  0.0017
15642TIP3    H268342   4.463   2.577   2.244  0.8723  0.5501  2.2162
15643TIP3   OH268343   3.754   1.182  12.013 -0.2361 -0.5992 -0.0487
15643TIP3    H168344   3.701   1.170  12.092  1.2392  0.6804  1.1930
15643TIP3    H268345   3.830   1.232  12.042  0.7068 -0.6975 -2.1608
15644TIP3   OH268346   3.864   0.472  12.085 -0.3968 -0.1418  0.4070
15644TIP3    H168347   3.832   0.399  12.032  0.8292 -0.0997 -0.4297
15644TIP3    H268348   3.857   0.548  12.029  2.0058 -0.2823 -0.1917
15645TIP3   OH268349   4.665   3.865   4.006 -0.0012  0.3250 -0.2060
15645TIP3    H168350   4.653   3.943   3.951 -1.1782  0.5510  0.3485
15645TIP3    H268351   4.641   3.792   3.949  1.3678  0.3141 -0.8166
15646TIP3   OH268352   3.747   5.858   6.480  0.1593  0.5333  0.3383
15646TIP3    H168353   3.790   5.834   6.397  0.2393  1.8459 -0.0200
15646TIP3    H268354   3.772   5.949   6.494  1.3381 -0.0644  2.5620
15647TIP3   OH268355   0.774   4.486   3.672 -0.7591  0.5559  0.6388
15647TIP3    H168356   0.712   4.505   3.742  1.1938  2.2165  2.0787
15647TIP3    H268357   0.765   4.392   3.655 -2.9551  0.5837  1.4085
15648TIP3   OH268358   2.580   2.043  16.897 -0.1918 -0.2731 -0.2848
15648TIP3    H168359   2.663   2.011  16.864 -0.1428 -2.0342  1.3422
15648TIP3    H268360   2.534   2.075  16.819  2.3123  1.6728 -1.1031
15649TIP3   OH268361   5.992   2.695  14.105  0.4825  0.3449 -0.1867
15649TIP3    H168362   5.972   2.788  14.103 -0.5473  0.1772  0.8456
15649TIP3    H268363   6.073   2.688  14.154  1.5787  0.8173 -1.8549
15650TIP3   OH268364   0.801   0.274  12.515 -0.3141 -0.2142 -0.0744
15650TIP3    H168365   0.733   0.216  12.480  0.6258 -0.8763 -0.8840
15650TIP3    H268366   0.873   0.267  12.451  1.5001 -1.4804  1.9617
15651TIP3   OH268367   6.119   5.937   1.371  0.1138 -0.6734  0.5007
15651TIP3    H168368   6.119   6.032   1.374  0.2706 -0.5131 -2.0153
15651TIP3    H268369   6.036   5.911   1.411 -1.3474  0.7279 -1.4509
15652TIP3   OH268370   5.087   4.174  12.046 -0.0875  0.8315  0.2796
15652TIP3    H168371   5.106   4.250  12.102  0.7209  0.7327  0.1520
15652TIP3    H268372   5.125   4.100  12.093 -0.3798  0.5900  0.1320
15653TIP3   OH268373   0.008   4.256   5.818 -0.1803 -0.1596  0.3350
15653TIP3    H168374   0.001   4.344   5.856 -1.8253 -0.5738  1.0484
15653TIP3    H268375  -0.006   4.270   5.724  1.6744  0.5708  0.1080
15654TIP3   OH268376   1.636   6.180   2.766  0.1734 -0.0417  0.2825
15654TIP3    H168377   1.685   6.101   2.789  2.0333  0.5812 -1.1966
15654TIP3    H268378   1.687   6.251   2.805 -0.0916  0.5638 -0.4485
15655TIP3   OH268379   4.971   0.328   4.194 -0.5682 -0.3044 -0.2411
15655TIP3    H168380   5.008   0.400   4.244 -1.9615  0.1688  0.1351
15655TIP3    H268381   4.934   0.269   4.260  1.5737 -2.0300 -0.4409
15656TIP3   OH268382   0.200   0.408  13.226  0.0838  0.1571  0.3902
15656TIP3    H168383   0.213   0.494  13.267  0.9930  0.3439 -0.2755
15656TIP3    H268384   0.208   0.346  13.299  2.8369  0.3969  0.3968
15657TIP3   OH268385   1.922   0.524   5.705  0.6385  0.4474 -0.2387
15657TIP3    H168386   1.995   0.529   5.767 -2.0984  0.3697  3.3415
15657TIP3    H268387   1.905   0.615   5.682  0.8656  0.6050  0.1955
15658TIP3   OH268388   0.549   0.003   3.033  0.0858 -0.6318 -0.1796
15658TIP3    H168389   0.589   0.089   3.047  0.2120 -0.6017 -0.7081
15658TIP3    H268390   0.590  -0.054   3.098 -0.7671 -0.0564  0.9017
15659TIP3   OH268391   2.168   1.871  15.895  0.4218  0.6762  0.0451
15659TIP3    H168392   2.101   1.894  15.831  0.2770  2.5921  0.8172
15659TIP3    H268393   2.248   1.862  15.843  0.1543  1.4313 -0.5156
15660TIP3   OH268394   6.598   0.771  10.944  0.2954  0.2848 -0.2870
15660TIP3    H168395   6.694   0.770  10.948  0.3190  1.6332 -0.0967
15660TIP3    H268396   6.574   0.680  10.929  1.6379  0.0117 -0.9584
15661TIP3   OH268397   2.749   4.354   0.530 -0.5835  0.5407  0.3880
15661TIP3    H168398   2.692   4.376   0.455 -2.1799 -0.3825  1.2682
15661TIP3    H268399   2.758   4.259   0.526  0.5420  0.6289  0.5510
15662TIP3   OH268400   4.017   3.950   4.086 -0.0769 -0.4223  0.3429
15662TIP3    H168401   4.098   3.985   4.123 -0.5600  0.6467  0.4452
15662TIP3    H268402   4.046   3.885   4.022  0.8547 -0.1817  0.5046
15663TIP3   OH268403   6.268   6.203  16.604 -0.5278  0.4826 -0.2214
15663TIP3    H168404   6.309   6.274  16.554  1.6755 -1.2826 -1.1092
15663TIP3    H268405   6.254   6.134  16.539 -0.3318 -0.7930  1.0452
15664TIP3   OH268406   2.197   6.459   0.736 -0.7367 -0.0360 -0.0739
15664TIP3    H168407   2.184   6.364   0.726 -1.3936  0.2407 -3.0166
15664TIP3    H268408   2.110   6.492   0.759 -0.7725 -0.0394 -0.2036
15665TIP3   OH268409   5.767   5.211  15.202 -0.2009 -0.2953  0.2509
15665TIP3    H168410   5.806   5.125  15.186  1.2573  0.4708 -0.4609
15665TIP3    H268411   5.815   5.270  15.144 -2.9456  0.5913 -1.3176
15666TIP3   OH268412   5.569   1.951   3.630  0.9062 -0.0199  0.1089
15666TIP3    H168413   5.543   2.024   3.574  1.1940  0.0211  0.0289
15666TIP3    H268414   5.618   1.892   3.572 -1.3833 -1.4901 -0.4595
15667TIP3   OH268415   3.507   5.399  14.862 -0.5194 -0.0371  0.1297
15667TIP3    H168416   3.523   5.339  14.789  1.3240  0.1513  0.3567
15667TIP3    H268417   3.530   5.485  14.829 -2.4518  0.5155  0.0512
15668TIP3   OH268418   0.717   4.318   3.062  0.6272  0.9639  0.3954
15668TIP3    H168419   0.796   4.333   3.114 -0.5305  2.3621  1.8678
15668TIP3    H268420   0.648   4.365   3.110 -0.8467  0.8517 -1.5104
15669TIP3   OH268421   6.240   6.148   4.795 -0.0276 -0.1830  0.2047
15669TIP3    H168422   6.307   6.087   4.824  1.2805  0.6564 -0.9240
15669TIP3    H268423   6.192   6.100   4.727 -0.3773 -0.6664  0.7811
15670TIP3   OH268424   1.645   3.690   3.664 -0.6133  0.4973 -0.3084
15670TIP3    H168425   1.740   3.677   3.656 -0.4561  1.2431  0.3330
15670TIP3    H268426   1.611   3.602   3.678  0.2420  0.4478  1.8942
15671TIP3   OH268427   2.792   2.912  15.474 -0.0971  0.1106 -0.0421
15671TIP3    H168428   2.880   2.940  15.450 -0.4622 -0.5758 -2.4768
15671TIP3    H268429   2.760   2.864  15.397 -1.9553 -1.1613  1.4183
15672TIP3   OH268430   2.139   3.590  17.369 -0.0088 -0.2133 -0.5370
15672TIP3    H168431   2.102   3.611  17.455  0.8273 -2.4077  0.4379
15672TIP3    H268432   2.068   3.547  17.322 -0.1644  0.0883 -0.5837
15673TIP3   OH268433   1.631   0.667   0.413 -0.4412 -0.0042  0.0179
15673TIP3    H168434   1.656   0.757   0.433  1.3677 -0.6552  0.9575
15673TIP3    H268435   1.545   0.656   0.452 -0.9377  1.4580 -0.5902
15674TIP3   OH268436   4.992   5.921  15.665 -0.2066  0.7077  0.7405
15674TIP3    H168437   5.047   5.873  15.602  0.4191  1.4440  0.7107
15674TIP3    H268438   4.968   5.856  15.730  0.1963  0.2242  0.4147
15675TIP3   OH268439   5.662   3.605   1.337 -0.1940 -0.1063  0.4226
15675TIP3    H168440   5.707   3.646   1.411  0.2563 -1.4360  0.9179
15675TIP3    H268441   5.658   3.512   1.360  0.7880 -0.7197 -1.6345
15676TIP3   OH268442   5.125   6.553  17.304  0.3889  0.2747  0.2736
15676TIP3    H168443   5.033   6.558  17.277  0.4779 -1.4488 -0.4378
15676TIP3    H268444   5.133   6.468  17.347  2.1470 -0.6491 -1.7012
15677TIP3   OH268445   4.535   2.916   4.453  0.0564 -0.4468 -0.4164
15677TIP3    H168446   4.503   2.989   4.506  0.1224 -0.4665 -0.3497
15677TIP3    H268447   4.623   2.898   4.486  0.2551 -0.1962 -0.8095
15678TIP3   OH268448   5.129   2.373   3.777 -0.2198 -0.1146  0.3595
15678TIP3    H168449   5.188   2.327   3.717  0.4644  1.2114 -0.0247
15678TIP3    H268450   5.143   2.466   3.758 -0.8543  0.2952  1.7726
15679TIP3   OH268451   0.434   2.314   1.612 -0.1678  0.5677 -0.0342
15679TIP3    H168452   0.374   2.264   1.557  0.9473 -3.1977  1.8485
15679TIP3    H268453   0.379   2.354   1.679 -0.8161 -1.7624  0.9155
15680TIP3   OH268454   4.075   0.445   4.656  0.4309 -0.4673  0.1156
15680TIP3    H168455   4.153   0.496   4.633  1.6676 -1.9190  0.9267
15680TIP3    H268456   4.068   0.454   4.751  0.7764 -1.9037  0.2994
15681TIP3   OH268457   2.443   6.080   2.204  0.0451  0.4725  0.1635
15681TIP3    H168458   2.505   6.147   2.177 -1.5334  1.1065 -2.1649
15681TIP3    H268459   2.476   5.999   2.165  0.0302  0.5791 -0.0687
15682TIP3   OH268460   3.849   4.520  12.885 -0.2869 -0.5783 -0.3468
15682TIP3    H168461   3.905   4.592  12.912 -0.5906  0.1833 -1.6759
15682TIP3    H268462   3.791   4.505  12.960  0.1901  0.1441  0.1743
15683TIP3   OH268463   5.433   0.333  13.645  0.3576 -0.4050 -0.4572
15683TIP3    H168464   5.376   0.408  13.661 -0.5399 -0.8979 -1.2366
15683TIP3    H268465   5.469   0.311  13.731 -2.8647 -1.8438  0.6973
15684TIP3   OH268466   5.343   1.916  15.319  0.1542 -0.0893  0.0420
15684TIP3    H168467   5.385   1.830  15.325 -0.4320 -0.3554  0.5227
15684TIP3    H268468   5.268   1.901  15.261  1.3420  0.6441 -1.7416
15685TIP3   OH268469   0.849   2.119  15.861 -0.0503 -0.5770  0.2241
15685TIP3    H168470   0.920   2.181  15.847  0.1052 -0.7169  0.3976
15685TIP3    H268471   0.771   2.174  15.871 -0.3535 -0.4732 -2.1196
15686TIP3   OH268472   4.132   5.285   3.446  0.1923 -0.4728  0.0442
15686TIP3    H168473   4.076   5.271   3.523 -0.7708 -0.9973 -0.7367
15686TIP3    H268474   4.193   5.353   3.474 -1.4835  0.8809  0.5955
15687TIP3   OH268475   2.660   2.368  16.873  0.4753  0.4365  0.0900
15687TIP3    H168476   2.595   2.299  16.861 -0.1249  1.1906 -1.3337
15687TIP3    H268477   2.628   2.420  16.947  0.9107 -0.7564  1.1416
15688TIP3   OH268478   2.457   2.056   5.495 -1.0887 -0.3600  0.7496
15688TIP3    H168479   2.469   2.140   5.539 -0.9884 -0.7800  1.5489
15688TIP3    H268480   2.451   1.992   5.567  2.4141 -1.5287  0.1691
15689TIP3   OH268481   4.425   3.042  14.996 -0.0388 -0.0889  0.2294
15689TIP3    H168482   4.503   3.071  15.042 -0.3874  1.1162  0.0838
15689TIP3    H268483   4.435   3.075  14.907 -1.2216  1.0795  0.4999
15690TIP3   OH268484   4.062   3.352  12.829 -0.5144  0.5960  0.8919
15690TIP3    H168485   3.988   3.348  12.768  0.3354 -0.3366 -0.1399
15690TIP3    H268486   4.028   3.396  12.906 -1.9407  0.8360  0.1591
15691TIP3   OH268487   3.528   3.663  17.346  0.1276 -0.1681  0.0520
15691TIP3    H168488   3.587   3.614  17.290 -0.9001 -0.9956 -0.3358
15691TIP3    H268489   3.507   3.602  17.417  0.0397  0.2559  0.3907
15692TIP3   OH268490   0.248   4.104  16.685  1.0902 -0.2439  0.1627
15692TIP3    H168491   0.266   4.174  16.748  1.5288 -0.9534  0.8526
15692TIP3    H268492   0.209   4.148  16.610 -0.1714  0.5531  1.2277
15693TIP3   OH268493   6.673   0.729  14.513 -0.2261 -0.2721 -0.3426
15693TIP3    H168494   6.660   0.767  14.600 -2.2074 -0.5301 -0.4755
15693TIP3    H268495   6.752   0.771  14.480  0.6408 -0.2421  1.6043
15694TIP3   OH268496   6.768   2.076  13.119 -0.4422 -0.1952 -0.2773
15694TIP3    H168497   6.854   2.058  13.081  0.2726  3.9649 -1.1004
15694TIP3    H268498   6.705   2.046  13.054  0.5286 -0.3475 -1.1545
15695TIP3   OH268499   1.750   1.583  16.273  0.0859  0.0934 -0.3590
15695TIP3    H168500   1.677   1.522  16.261  0.1343 -0.4905  1.8437
15695TIP3    H268501   1.791   1.554  16.355  1.0616  2.1367 -0.0845
15696TIP3   OH268502   6.497   6.322  15.985 -0.1785 -0.9382  0.3818
15696TIP3    H168503   6.529   6.389  16.045  0.8040 -2.4977  1.7050
15696TIP3    H268504   6.473   6.369  15.906 -0.3502  1.0541  1.5609
15697TIP3   OH268505   2.455   6.637  17.042  0.8962 -0.0402 -0.2068
15697TIP3    H168506   2.466   6.660  16.950 -0.7152 -0.1451 -0.4532
15697TIP3    H268507   2.391   6.700  17.075  0.9997 -0.3879  0.6755
15698TIP3   OH268508   0.152   2.424   4.698  0.5856  0.4443 -0.3007
15698TIP3    H168509   0.132   2.482   4.625  1.7309  1.1922 -0.0292
15698TIP3    H268510   0.210   2.357   4.660  0.7574  0.5323 -0.1916
15699TIP3   OH268511   0.782   0.610  13.828  0.2283  0.3515 -0.9179
15699TIP3    H168512   0.766   0.701  13.805 -0.7998  0.2257 -0.7880
15699TIP3    H268513   0.708   0.562  13.789 -0.9874 -0.0002  1.6222
15700TIP3   OH268514   3.977   1.675   2.370 -0.1542  0.2437  0.1644
15700TIP3    H168515   3.985   1.605   2.306  1.1032 -0.4540  1.0416
15700TIP3    H268516   3.918   1.739   2.329 -2.6798 -2.0351  0.0172
15701TIP3   OH268517   4.331   2.222   0.838 -0.5805  0.2399 -0.8374
15701TIP3    H168518   4.397   2.238   0.905  1.3025  1.5949 -2.8871
15701TIP3    H268519   4.265   2.168   0.882 -0.4676  2.6214  2.6569
15702TIP3   OH268520   0.267   3.730   0.245  0.0107 -0.2079 -0.2890
15702TIP3    H168521   0.262   3.647   0.294 -1.1223 -0.8232 -1.3819
15702TIP3    H268522   0.177   3.761   0.242  0.1152  0.0218 -1.6113
15703TIP3   OH268523   0.785   2.601   2.932  0.3630  0.6777  0.0833
15703TIP3    H168524   0.722   2.650   2.985  0.3525  2.1907 -1.2725
15703TIP3    H268525   0.871   2.629   2.964  0.3602  0.4217  0.3210
15704TIP3   OH268526   4.390   4.476  11.082  0.0832  0.2071 -0.1294
15704TIP3    H168527   4.442   4.493  11.004  0.0804 -1.1168 -0.4416
15704TIP3    H268528   4.373   4.381  11.080 -2.8129  0.6197 -0.3523
15705TIP3   OH268529   5.762   3.364  16.661 -0.3143  0.0741  0.0381
15705TIP3    H168530   5.818   3.305  16.610  1.2143  0.2577  1.4028
15705TIP3    H268531   5.694   3.307  16.697  1.3624 -1.0114  1.6668
15706TIP3   OH268532   3.440   0.662  14.190 -0.3398 -0.1698 -0.2812
15706TIP3    H168533   3.455   0.714  14.268  0.8119  0.7220 -1.0529
15706TIP3    H268534   3.376   0.596  14.216  0.5061 -0.3020  1.5756
15707TIP3   OH268535   5.227   5.032   0.906  0.0272  0.0870 -0.3006
15707TIP3    H168536   5.322   5.035   0.913 -0.0026  0.9391 -0.1125
15707TIP3    H268537   5.202   4.949   0.946  0.6804 -0.0960 -0.2646
15708TIP3   OH268538   6.166   3.621  13.928 -0.3733  0.1284  0.2819
15708TIP3    H168539   6.238   3.626  13.865 -1.6421 -0.5250 -1.2961
15708TIP3    H268540   6.177   3.536  13.970  0.4767  0.5641  0.9713
15709TIP3   OH268541   4.743   2.459  14.274  0.2624 -0.4814  0.5389
15709TIP3    H168542   4.741   2.527  14.206 -0.2810  0.0178  1.0417
15709TIP3    H268543   4.834   2.430  14.275  0.4926  0.1910  0.2609
15710TIP3   OH268544   5.211   3.220   3.496 -0.8709  0.1345 -0.0596
15710TIP3    H168545   5.193   3.126   3.501 -1.2799  0.2678  1.4601
15710TIP3    H268546   5.249   3.241   3.581 -0.3401  1.2602 -0.5650
15711TIP3   OH268547   2.766   1.850  16.838  0.2794  0.1081 -0.2522
15711TIP3    H168548   2.762   1.775  16.779  1.3507  0.3486 -0.6580
15711TIP3    H268549   2.727   1.819  16.919 -1.0572 -0.2842 -1.0237
15712TIP3   OH268550   5.065   2.782   5.523 -0.4740 -0.3187  0.1998
15712TIP3    H168551   5.048   2.780   5.617 -2.0173  0.2775 -0.0378
15712TIP3    H268552   4.980   2.801   5.483  0.4426  1.0993 -1.2231
15713TIP3   OH268553   0.496   6.298   3.795  0.5549  0.1707  0.2142
15713TIP3    H168554   0.413   6.275   3.837  1.0151 -0.3295  0.8826
15713TIP3    H268555   0.551   6.221   3.807  1.2965  0.6927  0.2731
15714TIP3   OH268556   5.152   3.950  15.835 -0.1863  0.1498  0.1288
15714TIP3    H168557   5.246   3.957  15.853  0.0593 -0.6651 -0.7829
15714TIP3    H268558   5.118   3.894  15.905  0.1205 -0.1111  0.0690
15715TIP3   OH268559   3.253   5.098   3.088  0.1381 -0.3737  0.0213
15715TIP3    H168560   3.341   5.120   3.120  1.0638 -0.8579 -1.9774
15715TIP3    H268561   3.236   5.162   3.019 -1.1467 -0.2179  0.4701
15716TIP3   OH268562   5.645   5.669  17.086  0.2271 -0.3227  0.1627
15716TIP3    H168563   5.696   5.602  17.041  0.8406  0.1555  0.1291
15716TIP3    H268564   5.639   5.637  17.177 -0.6193 -1.0595 -0.1377
15717TIP3   OH268565   3.343   3.739  16.931  0.3563  0.0444 -0.5773
15717TIP3    H168566   3.390   3.808  16.885 -0.1567  0.7492 -0.0637
15717TIP3    H268567   3.402   3.664  16.929  1.4466  0.8714 -0.0531
15718TIP3   OH268568   5.654   1.556  15.088  0.1721  0.1384 -0.0357
15718TIP3    H168569   5.624   1.635  15.134  0.6905  2.1690 -2.8710
15718TIP3    H268570   5.575   1.517  15.052  0.1443  1.0578 -1.0192
15719TIP3   OH268571   1.126   5.759   0.438 -0.3648 -0.3879  0.1765
15719TIP3    H168572   1.107   5.803   0.355 -0.9114 -0.5492  0.2115
15719TIP3    H268573   1.198   5.699   0.418 -0.3956 -0.3192 -0.1470
15720TIP3   OH268574   3.195   0.441   0.396 -0.7701  0.1469 -0.3629
15720TIP3    H168575   3.149   0.472   0.474  0.4382  1.1692 -0.0279
15720TIP3    H268576   3.133   0.454   0.325 -1.6677 -0.2284  0.3342
15721TIP3   OH268577   1.866   5.005   4.261  0.7547 -0.5992  0.0662
15721TIP3    H168578   1.826   4.964   4.337  0.5818 -1.4596 -0.4832
15721TIP3    H268579   1.795   5.014   4.197  1.1102 -0.7818 -0.3606
15722TIP3   OH268580   5.134   5.595  12.296 -0.0052 -0.3918  1.0701
15722TIP3    H168581   5.059   5.634  12.252  1.0559  2.5463  1.6446
15722TIP3    H268582   5.193   5.571  12.224 -0.4028 -0.3698  0.7276
15723TIP3   OH268583   1.291   2.042   1.837  0.0563 -0.3158 -0.2143
15723TIP3    H168584   1.323   1.956   1.867  1.1510  0.4657  0.9960
15723TIP3    H268585   1.360   2.073   1.778  0.4929  0.4340  0.6694
15724TIP3   OH268586   3.527   4.230  13.637  0.1490 -0.0952  0.0865
15724TIP3    H168587   3.433   4.212  13.645 -0.4321  3.1627  2.9752
15724TIP3    H268588   3.568   4.143  13.638 -2.6823 -1.5765  1.6621
15725TIP3   OH268589   4.216   2.546   5.087 -0.4537  0.0997  0.1113
15725TIP3    H168590   4.291   2.496   5.053 -1.4357 -0.8069 -0.8201
15725TIP3    H268591   4.142   2.516   5.034 -1.7516 -0.0703  1.9378
15726TIP3   OH268592   3.390   3.447  11.305 -0.1673 -0.2104 -0.0351
15726TIP3    H168593   3.346   3.398  11.236 -0.7689  0.2453  0.0171
15726TIP3    H268594   3.351   3.535  11.301 -1.6031 -0.6803  2.1177
15727TIP3   OH268595   1.422   0.910   1.468  0.8569  0.5633  0.1330
15727TIP3    H168596   1.433   0.830   1.518  1.4362 -0.2166 -1.1914
15727TIP3    H268597   1.490   0.969   1.500  1.0386  0.1856  0.4424
15728TIP3   OH268598   3.990   4.737  14.003 -0.0894  0.0153 -0.7015
15728TIP3    H168599   3.905   4.749  13.960  0.0770  0.8570 -0.8001
15728TIP3    H268600   4.054   4.745  13.932  0.0835 -0.6990 -0.6407
15729TIP3   OH268601   4.868   1.447  13.280  0.0362 -0.0940 -0.2502
15729TIP3    H168602   4.829   1.363  13.259 -2.1118  0.6290  0.5960
15729TIP3    H268603   4.897   1.482  13.195 -0.6994 -0.9023 -0.8483
15730TIP3   OH268604   3.327   3.883   0.641 -0.5997  0.1564 -0.7408
15730TIP3    H168605   3.341   3.947   0.570 -0.6573 -1.0761 -1.8934
15730TIP3    H268606   3.406   3.889   0.694 -1.1990  2.2031  0.0300
15731TIP3   OH268607   2.532   6.686  14.003 -0.0184 -0.4849  0.0678
15731TIP3    H168608   2.499   6.767  14.043  0.0995  0.6380 -1.9612
15731TIP3    H268609   2.461   6.623  14.015 -0.3740  0.0897  1.1364
15732TIP3   OH268610   4.084   0.589  11.526  0.5137 -0.4178 -0.3408
15732TIP3    H168611   4.026   0.643  11.472 -1.0196 -1.8261 -0.1883
15732TIP3    H268612   4.148   0.553  11.464  0.8956  0.6924 -0.6119
15733TIP3   OH268613   3.380   6.119   2.912  0.2468 -0.7613  0.1460
15733TIP3    H168614   3.310   6.081   2.965 -0.6354  1.1709  0.4586
15733TIP3    H268615   3.336   6.155   2.835  0.8820  0.3587  0.2806
15734TIP3   OH268616   2.421   5.650  17.233  0.2320  0.3442 -0.4529
15734TIP3    H168617   2.395   5.674  17.144 -0.2815 -1.9976 -0.9900
15734TIP3    H268618   2.396   5.726  17.286 -0.1283  1.4894 -2.1807
15735TIP3   OH268619   2.535   1.667  16.457  0.1037 -0.6632 -0.6994
15735TIP3    H168620   2.462   1.625  16.411  0.7162 -2.3028 -0.2608
15735TIP3    H268621   2.521   1.644  16.549  1.3163 -1.2411 -0.6441
15736TIP3   OH268622   1.765   2.085   1.497 -0.0041 -0.1510 -0.6231
15736TIP3    H168623   1.807   2.114   1.578 -2.5509 -0.5772  0.9674
15736TIP3    H268624   1.733   1.997   1.516 -1.4939  0.1020 -1.7575
15737TIP3   OH268625   4.903   1.771  12.308 -0.2210 -0.0222 -0.2176
15737TIP3    H168626   4.978   1.713  12.322 -0.3144 -0.2404 -0.5844
15737TIP3    H268627   4.870   1.745  12.222 -0.3476  0.4871 -0.3235
15738TIP3   OH268628   3.460   2.882  17.025  0.0291 -0.5412  0.5595
15738TIP3    H168629   3.529   2.946  17.043 -1.0295  0.3221  1.7909
15738TIP3    H268630   3.397   2.895  17.096 -2.4099  0.1656 -1.5582
15739TIP3   OH268631   2.085   2.254  17.233  0.1854  0.0262  0.5027
15739TIP3    H168632   1.993   2.270  17.249  0.1406 -0.7783  1.1104
15739TIP3    H268633   2.098   2.277  17.141 -0.9618 -1.2430 -0.0084
15740TIP3   OH268634   4.531   2.601  12.623  0.6168  0.0722  0.2465
15740TIP3    H168635   4.502   2.562  12.706 -0.0425 -1.0158 -0.4788
15740TIP3    H268636   4.605   2.657  12.648  1.2940 -1.2690  1.3891
15741TIP3   OH268637   2.356   1.327  12.020 -0.5627  0.0252 -0.3131
15741TIP3    H168638   2.449   1.309  12.008 -0.1190 -0.7606  3.3071
15741TIP3    H268639   2.314   1.241  12.015 -0.6165 -0.0597  1.2739
15742TIP3   OH268640   4.064   2.739  12.083  0.2958 -0.2111 -0.1239
15742TIP3    H168641   4.018   2.722  12.165 -0.2646  1.5184 -0.0491
15742TIP3    H268642   4.095   2.829  12.090  0.9354 -0.2874 -1.4929
15743TIP3   OH268643   5.029   4.679   2.607 -0.7789 -0.3567  0.3586
15743TIP3    H168644   5.044   4.759   2.657 -2.2982  0.5403 -0.5533
15743TIP3    H268645   4.942   4.691   2.568 -0.2866 -1.6787 -1.2468
15744TIP3   OH268646   2.191   1.208   1.057  0.2884  0.0872  0.2387
15744TIP3    H168647   2.204   1.267   1.131 -1.2585 -0.6786  1.1849
15744TIP3    H268648   2.100   1.224   1.029 -0.4352 -2.2529  0.9778
15745TIP3   OH268649   0.415   5.865  11.870  0.6405 -0.4384 -0.4675
15745TIP3    H168650   0.457   5.946  11.898  0.8279 -1.0338  1.0746
15745TIP3    H268651   0.439   5.856  11.778 -0.9134  2.1728 -1.2247
15746TIP3   OH268652   5.932   1.610  14.529 -0.6192 -0.1883  0.0433
15746TIP3    H168653   5.989   1.603  14.453 -0.4784 -1.0048  0.2157
15746TIP3    H268654   5.882   1.690  14.515 -1.8909 -1.2448 -1.7839
15747TIP3   OH268655   6.533   6.635  12.930 -0.0600 -0.1849 -0.1345
15747TIP3    H168656   6.616   6.672  12.961  0.0934 -0.6573  0.0232
15747TIP3    H268657   6.555   6.586  12.851 -0.3677  0.5709 -0.7056
15748TIP3   OH268658   6.369   6.120   2.363  0.4253  0.2611 -0.2951
15748TIP3    H168659   6.386   6.197   2.418 -1.1822  0.4420  0.0072
15748TIP3    H268660   6.376   6.046   2.423  0.9797  0.2546 -0.3654
15749TIP3   OH268661   4.906   5.798   1.330 -0.2926  0.5353  0.0512
15749TIP3    H168662   4.993   5.825   1.301 -1.4840  1.3830 -3.1450
15749TIP3    H268663   4.914   5.704   1.345  1.0495  0.4988 -0.7171
15750TIP3   OH268664   4.309   4.067   5.528  0.4589 -0.4486  0.1947
15750TIP3    H168665   4.265   4.059   5.612 -1.4979 -0.4505 -0.7820
15750TIP3    H268666   4.292   3.984   5.483  1.1065 -0.2845 -0.3749
15751TIP3   OH268667   3.687   3.900  17.144  0.0137  0.6715 -0.0603
15751TIP3    H168668   3.655   3.949  17.219  0.8005  0.2768  0.5547
15751TIP3    H268669   3.726   3.821  17.182 -0.6545 -0.1221 -0.9749
15752TIP3   OH268670   1.955   3.448   2.475 -0.0631  0.2956  0.2421
15752TIP3    H168671   1.982   3.357   2.487 -0.8949 -0.0517 -0.4150
15752TIP3    H268672   1.860   3.444   2.465  0.0877  0.9618 -2.1532
15753TIP3   OH268673   4.559   0.889  12.541  0.0295 -0.0964  0.4713
15753TIP3    H168674   4.550   0.934  12.457 -0.8548  1.2235  1.2416
15753TIP3    H268675   4.581   0.958  12.604 -0.7306 -0.8243  1.5721
15754TIP3   OH268676   3.915   3.568   5.329 -0.2650 -0.2967  0.4363
15754TIP3    H168677   3.951   3.548   5.416 -0.2415 -0.1348  0.4643
15754TIP3    H268678   3.857   3.642   5.344 -1.1160 -0.9549  0.5043
15755TIP3   OH268679   5.734   4.377  12.538  0.5707 -0.3496  0.4144
15755TIP3    H168680   5.640   4.380  12.523  0.0652  0.3629  3.2561
15755TIP3    H268681   5.761   4.292  12.503 -1.2397 -0.8335  0.1071
15756TIP3   OH268682   1.176   0.855  12.411 -0.3401  0.0997  0.4777
15756TIP3    H168683   1.145   0.825  12.497 -0.3863  0.3343  0.5445
15756TIP3    H268684   1.096   0.871  12.361 -0.3101 -0.7923  0.1187
15757TIP3   OH268685   1.217   6.599   1.037 -0.1891 -0.1305 -0.3844
15757TIP3    H168686   1.197   6.669   1.099  1.1420  0.7056 -0.8484
15757TIP3    H268687   1.195   6.519   1.083  0.8344  0.4621  1.2186
15758TIP3   OH268688   2.951   5.749  14.696  0.2414 -0.7644  0.3205
15758TIP3    H168689   2.869   5.735  14.744  0.8018 -0.0147  1.5624
15758TIP3    H268690   2.968   5.843  14.707  1.5738 -1.0283  0.6157
15759TIP3   OH268691   0.746   6.722   5.762  0.1737  0.2994 -0.6312
15759TIP3    H168692   0.776   6.643   5.807 -0.6128  0.6127  0.4868
15759TIP3    H268693   0.659   6.699   5.730 -0.2126  0.8143  0.0226
15760TIP3   OH268694   2.885   2.979  17.225  0.2946  0.0516 -0.0067
15760TIP3    H168695   2.792   3.000  17.230  0.5958  2.2431 -1.6843
15760TIP3    H268696   2.888   2.899  17.172 -0.6326  0.7939 -1.2707
15761TIP3   OH268697   5.175   5.832   3.209 -0.5205 -0.4433  0.0481
15761TIP3    H168698   5.260   5.810   3.248 -0.8137 -4.0989 -1.0039
15761TIP3    H268699   5.113   5.827   3.283 -0.0686  0.8369  0.5466
15762TIP3   OH268700   2.339   4.114   1.502  0.0499  0.3556 -0.0221
15762TIP3    H168701   2.348   4.145   1.412 -2.2652 -1.0510 -0.8304
15762TIP3    H268702   2.387   4.031   1.503  1.7865  1.3202  0.6653
15763TIP3   OH268703   6.010   0.911   0.130 -0.0950  0.3144 -0.4534
15763TIP3    H168704   6.063   0.937   0.055 -0.4467  0.7505 -0.5520
15763TIP3    H268705   5.988   0.819   0.112  0.0137  0.3470 -0.7696
15764TIP3   OH268706   5.250   4.653   4.558 -0.0367  0.7404  0.3359
15764TIP3    H168707   5.344   4.635   4.568 -0.4240 -1.8179  0.0984
15764TIP3    H268708   5.216   4.654   4.647 -0.0100  0.0437  0.3628
15765TIP3   OH268709   0.124   4.351   4.764  0.1539  0.4748 -0.0949
15765TIP3    H168710   0.092   4.269   4.802  0.8272 -0.1679 -0.8848
15765TIP3    H268711   0.050   4.386   4.715 -0.1240  0.3363  0.2223
15766TIP3   OH268712   5.499   5.074   4.479 -0.4680  0.4187 -0.0250
15766TIP3    H168713   5.550   4.995   4.460  1.1836  1.7057 -1.3003
15766TIP3    H268714   5.408   5.045   4.475  0.0734 -1.3193 -0.9965
15767TIP3   OH268715   5.473   2.876   5.434  0.1549 -0.4864 -0.2540
15767TIP3    H168716   5.422   2.803   5.399  1.4083 -1.5714  0.1073
15767TIP3    H268717   5.411   2.923   5.490 -1.1986 -0.1484 -1.9371
15768TIP3   OH268718   6.032   0.046   1.961  0.0571  0.2076  0.1724
15768TIP3    H168719   6.010   0.130   1.921  0.8196  0.6831  0.7233
15768TIP3    H268720   5.970   0.037   2.034  0.4339  0.6324  0.5478
15769TIP3   OH268721   0.210   1.027   5.202 -0.0827 -0.4219 -0.2604
15769TIP3    H168722   0.160   1.016   5.282  0.6285 -0.7860  0.1406
15769TIP3    H268723   0.283   0.966   5.210  0.1157 -0.3102 -1.0884
15770TIP3   OH268724   3.581   6.399   4.018  0.4032  0.4183 -0.3171
15770TIP3    H168725   3.624   6.476   3.979 -1.9623  1.4777 -0.9881
15770TIP3    H268726   3.497   6.393   3.973  0.4466 -2.5367 -0.1797
15771TIP3   OH268727   1.319   0.554   5.490 -0.1176 -0.1156 -0.3784
15771TIP3    H168728   1.332   0.644   5.520  0.4049 -1.0617  2.5513
15771TIP3    H268729   1.262   0.562   5.414 -0.9412  2.6288  0.4250
15772TIP3   OH268730   0.558   1.980   1.686 -0.2606 -0.1586 -0.3168
15772TIP3    H168731   0.534   1.904   1.633 -0.1723 -0.8411  0.5902
15772TIP3    H268732   0.652   1.970   1.701 -0.1701  0.3479 -0.5076
15773TIP3   OH268733   0.431   3.929  14.970 -0.2637 -0.3984 -0.3533
15773TIP3    H168734   0.472   3.885  14.896 -0.8360  0.4693 -1.2040
15773TIP3    H268735   0.357   3.977  14.932 -2.8511 -2.7835  1.2024
15774TIP3   OH268736   3.011   2.192   1.726 -0.3442 -0.0544  0.0802
15774TIP3    H168737   3.056   2.159   1.804  0.9272  1.1603 -0.0855
15774TIP3    H268738   3.059   2.272   1.703  0.5112 -1.2702 -2.9911
15775TIP3   OH268739   4.801   2.670  15.732 -0.1457 -0.4683 -0.5977
15775TIP3    H168740   4.806   2.706  15.643  1.1934  0.8441 -0.0299
15775TIP3    H268741   4.785   2.577  15.719  1.0791 -0.4936 -2.2474
15776TIP3   OH268742   6.540   3.089   5.332 -0.1410  0.0014 -0.0528
15776TIP3    H168743   6.448   3.071   5.350 -0.0354 -1.0934 -0.5443
15776TIP3    H268744   6.541   3.118   5.241 -0.2336  2.1248  0.5474
15777TIP3   OH268745   4.728   3.962  13.752  0.3195  0.2898  0.1581
15777TIP3    H168746   4.788   3.903  13.797 -0.1885 -0.7108 -0.4312
15777TIP3    H268747   4.681   4.008  13.822 -0.6878 -1.4688  0.6841
15778TIP3   OH268748   5.698   1.477   2.932 -0.0117 -0.2888 -0.5003
15778TIP3    H168749   5.663   1.494   2.845  1.6727  1.7005 -0.8527
15778TIP3    H268750   5.631   1.513   2.991 -0.8461 -1.0388 -0.9609
15779TIP3   OH268751   2.349   5.186   3.856  0.0115  0.1850  0.0223
15779TIP3    H168752   2.307   5.119   3.909 -1.0704 -0.1856 -1.2311
15779TIP3    H268753   2.392   5.244   3.919  0.7619 -1.5088  1.1583
15780TIP3   OH268754   1.637   5.895   0.554  0.0929 -0.0771  0.0938
15780TIP3    H168755   1.601   5.855   0.475 -0.6202  1.8542 -0.6094
15780TIP3    H268756   1.606   5.985   0.551  1.3485  0.4459  1.7960
15781TIP3   OH268757   5.845   0.138  12.825 -0.2301  0.2809  0.1333
15781TIP3    H168758   5.870   0.230  12.830 -0.5154  0.3989 -0.4940
15781TIP3    H268759   5.889   0.097  12.899  1.4083  0.5806 -0.6328
15782TIP3   OH268760   4.311   1.182  12.788 -0.0126  0.5566 -0.3171
15782TIP3    H168761   4.231   1.140  12.820 -0.7209  0.6463 -1.8434
15782TIP3    H268762   4.347   1.227  12.864  0.2293 -1.9340  1.1370
15783TIP3   OH268763   4.753   2.955   2.009  0.0565  0.5395 -0.6860
15783TIP3    H168764   4.767   2.885   2.073 -1.8945  1.7160  1.1710
15783TIP3    H268765   4.831   3.010   2.015  0.9210 -0.6100 -1.0568
15784TIP3   OH268766   6.598   3.996  13.599  0.0009 -0.6256  0.0068
15784TIP3    H168767   6.569   4.068  13.656  0.5550 -1.2419  1.0977
15784TIP3    H268768   6.658   3.945  13.653  1.3392 -0.6875 -1.4662
15785TIP3   OH268769   1.284   6.653  14.806  0.3393 -0.1729  0.0124
15785TIP3    H168770   1.217   6.676  14.871  0.7276  1.1077 -0.0120
15785TIP3    H268771   1.275   6.559  14.795  0.3864 -0.4596  2.0799
15786TIP3   OH268772   4.732   3.106   2.563  0.4618 -0.1540  0.2664
15786TIP3    H168773   4.694   3.049   2.496 -0.0417 -1.3745  1.5549
15786TIP3    H268774   4.815   3.064   2.587  0.3542 -0.0594  0.8282
15787TIP3   OH268775   5.202   5.699   3.484  0.1523  0.2648 -0.3528
15787TIP3    H168776   5.120   5.656   3.462 -0.5930  1.6794 -0.4359
15787TIP3    H268777   5.256   5.691   3.406 -1.4289  2.8199 -1.8173
15788TIP3   OH268778   5.524   1.570  12.098 -0.0475  0.2510  0.4768
15788TIP3    H168779   5.595   1.532  12.046  0.5170  1.5625  0.2476
15788TIP3    H268780   5.456   1.503  12.098  1.3129 -1.2210  1.0150
15789TIP3   OH268781   1.463   0.563   4.503  0.3655  0.0902 -0.0054
15789TIP3    H168782   1.433   0.542   4.592  0.0766  0.6965  0.0420
15789TIP3    H268783   1.469   0.477   4.460 -2.1827 -0.0406 -0.2394
15790TIP3   OH268784   1.751   0.710  13.393 -0.4874  0.0335  0.5772
15790TIP3    H168785   1.680   0.765  13.426  0.7247  0.7364  2.1461
15790TIP3    H268786   1.794   0.765  13.326 -1.5834 -0.5313 -0.6395
15791TIP3   OH268787   5.889   6.019  12.808  0.3628 -0.3844 -0.1772
15791TIP3    H168788   5.970   6.040  12.761 -0.1366  1.4504 -0.2966
15791TIP3    H268789   5.841   5.960  12.748  1.1983 -0.7651 -0.4858
15792TIP3   OH268790   5.602   4.150  11.498  0.1668  0.8703 -0.3026
15792TIP3    H168791   5.655   4.095  11.556  0.2940  1.1080 -0.1909
15792TIP3    H268792   5.555   4.209  11.558 -0.6865  0.2625 -0.3576
15793TIP3   OH268793   4.284   5.507  11.790  0.4597 -0.2051 -0.6187
15793TIP3    H168794   4.298   5.446  11.863 -0.6711 -0.6377 -0.7413
15793TIP3    H268795   4.263   5.451  11.715 -0.1347  0.3025 -0.8451
15794TIP3   OH268796   4.350   0.895   1.187  0.2166  0.2719  0.2087
15794TIP3    H168797   4.390   0.817   1.149  1.7141  1.5980 -1.0988
15794TIP3    H268798   4.281   0.918   1.125 -1.2846 -0.8089  1.3815
15795TIP3   OH268799   6.488   3.177   4.841 -0.4084  0.2254  0.1006
15795TIP3    H168800   6.430   3.106   4.811 -0.6479  0.9380 -1.1527
15795TIP3    H268801   6.435   3.256   4.832  0.7274  0.8824 -0.9941
15796TIP3   OH268802   0.458   4.956  13.411 -0.2917  0.4537 -0.6416
15796TIP3    H168803   0.405   4.892  13.459 -1.1478  0.7217 -1.1918
15796TIP3    H268804   0.462   5.032  13.469 -1.3929  0.8087 -0.9999
15797TIP3   OH268805   1.997   6.409  12.588 -0.1530  0.3508 -0.1415
15797TIP3    H168806   1.961   6.408  12.676  1.1225 -0.4661  0.4121
15797TIP3    H268807   1.959   6.332  12.545 -0.6477  0.6569 -0.2578
15798TIP3   OH268808   4.577   1.513  14.715 -0.8556  0.5690  0.3017
15798TIP3    H168809   4.638   1.440  14.699 -0.7349  0.8612 -0.6247
15798TIP3    H268810   4.560   1.549  14.628 -3.0498 -0.0512  0.4249
15799TIP3   OH268811   5.011   4.221  13.065 -0.0008  0.2304  0.1660
15799TIP3    H168812   4.956   4.299  13.077 -1.0773 -0.3325 -0.8622
15799TIP3    H268813   4.982   4.184  12.981  2.3491  0.1946 -0.6945
15800TIP3   OH268814   2.586   1.737   1.988  0.5272 -0.3574 -0.0916
15800TIP3    H168815   2.548   1.664   2.038 -0.1786 -0.0434 -0.1663
15800TIP3    H268816   2.513   1.773   1.939  1.1077 -0.3111 -0.9388
15801TIP3   OH268817   1.809   0.589   4.030  0.1078  0.3702 -0.3057
15801TIP3    H168818   1.868   0.620   4.099  0.3078  0.2672 -0.4300
15801TIP3    H268819   1.744   0.536   4.076  0.0401  0.5850 -0.1536
15802TIP3   OH268820   4.608   4.898  12.140 -0.4045 -0.1739 -0.0464
15802TIP3    H168821   4.700   4.878  12.158 -0.6714 -0.1386  1.5851
15802TIP3    H268822   4.610   4.967  12.074  0.8027  0.8308  0.9766
15803TIP3   OH268823   5.466   2.928  11.072 -0.6546 -0.2499  0.3244
15803TIP3    H168824   5.541   2.976  11.038 -2.0573  1.7680 -0.0842
15803TIP3    H268825   5.501   2.878  11.146  1.0952  0.5325  0.0639
15804TIP3   OH268826   6.469   3.230   5.113  0.2355 -0.0100 -0.2051
15804TIP3    H168827   6.375   3.214   5.113  0.2047  0.1056 -1.3868
15804TIP3    H268828   6.495   3.225   5.021  0.8926  2.6565 -0.2503
15805TIP3   OH268829   3.617   1.857   0.864 -0.0994 -0.1202  0.4377
15805TIP3    H168830   3.584   1.888   0.780 -0.6593  0.7403  0.9558
15805TIP3    H268831   3.556   1.892   0.929 -1.7875 -3.6814  1.0265
15806TIP3   OH268832   0.348   1.184   0.592 -0.8803  0.1772  0.2996
15806TIP3    H168833   0.396   1.101   0.591 -0.3231  0.4868 -0.8806
15806TIP3    H268834   0.284   1.174   0.661 -1.5213 -1.6385 -0.4959
15807TIP3   OH268835   1.498   5.681   2.333 -0.1280  0.7965 -0.4245
15807TIP3    H168836   1.424   5.710   2.280 -1.8597  0.3150  1.5803
15807TIP3    H268837   1.510   5.750   2.398 -0.4479 -0.2469  0.7789
15808TIP3   OH268838   4.522   1.360  14.236  0.2279 -0.2034 -0.0477
15808TIP3    H168839   4.486   1.300  14.172 -0.2201 -0.1265  0.1308
15808TIP3    H268840   4.470   1.440  14.227 -1.1230 -0.8174  1.7027
15809TIP3   OH268841   4.347   2.612  12.414  0.1713 -0.5577  0.1832
15809TIP3    H168842   4.331   2.520  12.437  1.4046 -0.6276  0.8179
15809TIP3    H268843   4.418   2.639  12.473  1.4644  0.0984 -1.6135
15810TIP3   OH268844   0.716   1.042   5.119 -0.0282 -0.2053  0.1765
15810TIP3    H168845   0.653   0.971   5.110 -0.7731  0.5725 -1.2277
15810TIP3    H268846   0.778   1.028   5.047 -0.4968  0.8305 -0.4541
15811TIP3   OH268847   3.228   4.140  14.327  0.5036 -0.3594  0.9200
15811TIP3    H168848   3.276   4.058  14.323  2.3418  0.6812  0.6732
15811TIP3    H268849   3.241   4.172  14.416  0.8187  0.2467  0.6616
15812TIP3   OH268850   3.514   1.417   3.095  0.4576  0.1735  0.4638
15812TIP3    H168851   3.537   1.329   3.068 -1.2849  0.4175 -2.1783
15812TIP3    H268852   3.598   1.462   3.104  1.2884 -0.9450 -1.2133
15813TIP3   OH268853   0.655   5.812  15.131 -0.2608  0.3538 -0.3421
15813TIP3    H168854   0.740   5.842  15.163  0.4949 -0.6220 -1.3754
15813TIP3    H268855   0.634   5.737  15.186  1.0670 -1.3613 -2.0051
15814TIP3   OH268856   0.427   1.047   4.947  0.2849  0.5032 -0.2332
15814TIP3    H168857   0.439   0.961   4.987 -2.6430  0.5788  1.0461
15814TIP3    H268858   0.442   1.109   5.019 -2.2190  0.7627  0.1589
15815TIP3   OH268859   5.535   0.874  16.109  0.1801  0.3532 -0.0250
15815TIP3    H168860   5.612   0.901  16.059 -0.7074  1.4137 -0.9045
15815TIP3    H268861   5.463   0.922  16.068 -1.1377 -1.5107  0.0003
15816TIP3   OH268862   3.718   3.292   0.508 -0.0035  0.3452  0.3331
15816TIP3    H168863   3.680   3.358   0.449  2.1806  1.4172  0.0218
15816TIP3    H268864   3.671   3.211   0.486  0.0303  0.9141 -2.2005
15817TIP3   OH268865   4.434   5.458   2.103 -0.6539 -0.0854  0.0454
15817TIP3    H168866   4.504   5.519   2.079 -1.0009 -0.0761 -0.9979
15817TIP3    H268867   4.412   5.481   2.193  0.9737 -0.3789  0.5496
15818TIP3   OH268868   2.954   1.027   2.898  0.0494 -0.2164 -0.2114
15818TIP3    H168869   2.910   1.025   2.813  0.2347 -0.7062 -0.3018
15818TIP3    H268870   2.885   1.047   2.961 -0.1243 -0.0465 -0.4522
15819TIP3   OH268871   0.502   4.575   5.614 -0.1491 -0.4884  0.2415
15819TIP3    H168872   0.551   4.530   5.545  0.1401 -1.0809  0.8137
15819TIP3    H268873   0.566   4.635   5.653  0.0681 -1.0838  0.8266
15820TIP3   OH268874   4.361   0.512  12.757  0.5110 -0.1955 -0.3702
15820TIP3    H168875   4.370   0.419  12.778  2.6397  0.1175  0.3802
15820TIP3    H268876   4.406   0.521  12.673  1.3161  0.3327  0.1125
15821TIP3   OH268877   3.186   1.102   5.113  0.1087  0.1050  0.0003
15821TIP3    H168878   3.180   1.134   5.203  0.2596 -0.4174  0.1998
15821TIP3    H268879   3.279   1.109   5.092  0.1942 -0.5003  0.1604
15822TIP3   OH268880   1.520   6.436  16.291  0.0757  0.0691  0.0284
15822TIP3    H168881   1.490   6.378  16.362  0.2847  1.2575  1.1275
15822TIP3    H268882   1.500   6.388  16.211  0.0122 -1.4123  0.8918
15823TIP3   OH268883   5.527   3.011   5.202  0.2273 -0.2482  0.1702
15823TIP3    H168884   5.481   2.964   5.132  2.0760 -0.7704 -0.7601
15823TIP3    H268885   5.499   2.968   5.282  2.8797 -4.1269 -0.6948
15824TIP3   OH268886   4.401   3.072   5.431 -0.5377  0.2228 -0.2428
15824TIP3    H168887   4.362   3.160   5.427 -1.1401 -0.0627 -2.6007
15824TIP3    H268888   4.327   3.014   5.446 -0.7365 -0.1094 -2.1842
15825TIP3   OH268889   4.609   5.963   4.575  0.0464 -0.2649  0.2396
15825TIP3    H168890   4.700   5.965   4.547 -0.3110 -3.5095 -1.6275
15825TIP3    H268891   4.596   5.874   4.609 -2.3157  0.2470  0.8944
15826TIP3   OH268892   3.850   3.161  12.677 -0.0321  0.0745  0.4579
15826TIP3    H168893   3.762   3.196  12.660 -1.0708 -2.3734  0.4900
15826TIP3    H268894   3.879   3.127  12.593 -0.3166 -1.6164  1.0084
15827TIP3   OH268895   0.417   2.200   0.585 -0.5045  0.0007  0.1380
15827TIP3    H168896   0.508   2.229   0.572 -1.0446  1.2866 -1.0510
15827TIP3    H268897   0.404   2.132   0.519 -0.1494 -0.8279  0.9084
15828TIP3   OH268898   3.808   2.039   3.710 -0.3677  0.0737 -0.3193
15828TIP3    H168899   3.875   2.072   3.771  0.3295 -1.3386 -0.2799
15828TIP3    H268900   3.836   1.950   3.690 -2.3395 -0.6260 -0.1736
15829TIP3   OH268901   2.583   2.812  14.234  0.2945  0.3602  0.2818
15829TIP3    H168902   2.566   2.725  14.197 -1.9942  1.2266 -0.9619
15829TIP3    H268903   2.637   2.856  14.168 -0.0949  0.4518  0.0156
15830TIP3   OH268904   6.425   2.607   5.599  0.6266 -0.3401 -0.1581
15830TIP3    H168905   6.465   2.586   5.514 -0.1260 -0.4880 -0.4874
15830TIP3    H268906   6.360   2.538   5.612 -0.5551  0.6821 -0.3471
15831TIP3   OH268907   4.215   2.540  12.734 -0.4159 -0.0091 -0.0962
15831TIP3    H168908   4.198   2.480  12.806 -0.1230  0.6581  0.5423
15831TIP3    H268909   4.197   2.627  12.770 -0.4267  0.3238 -0.8767
15832TIP3   OH268910   6.293   4.645  15.742 -0.3121 -0.1557  0.9319
15832TIP3    H168911   6.350   4.680  15.811 -0.0533  0.9554  0.1887
15832TIP3    H268912   6.351   4.633  15.667 -0.4822 -1.8787  1.0405
15833TIP3   OH268913   5.213   6.354   2.349 -0.6294  0.2597 -0.4362
15833TIP3    H168914   5.302   6.368   2.318 -0.6106  1.8954  0.2250
15833TIP3    H268915   5.163   6.335   2.270  0.0928  0.5841 -0.9815
15834TIP3   OH268916   6.612   5.007  13.795 -0.1264  0.3056  0.0702
15834TIP3    H168917   6.540   4.971  13.847 -0.8264  0.4366 -0.7922
15834TIP3    H268918   6.687   4.953  13.819 -0.9814 -1.2970 -0.6414
15835TIP3   OH268919   6.098   2.645  13.807 -0.0630  0.4538 -0.5604
15835TIP3    H168920   6.111   2.648  13.902 -0.2668  1.8600 -0.5485
15835TIP3    H268921   6.015   2.599  13.796  0.3581 -0.4355 -0.1094
15836TIP3   OH268922   0.218   6.618   0.983  0.1939 -0.1776 -0.1321
15836TIP3    H168923   0.137   6.606   0.935 -0.3133  0.9045  0.4298
15836TIP3    H268924   0.257   6.530   0.986 -0.8827 -0.6858 -0.5130
15837TIP3   OH268925   0.732   2.578   3.934  0.0930  0.1009 -0.5768
15837TIP3    H168926   0.637   2.576   3.949 -0.0487 -0.6037 -1.4827
15837TIP3    H268927   0.767   2.509   3.990  0.3581  1.7545  1.4131
15838TIP3   OH268928   1.921   0.705  14.190  0.3800  0.1583  0.8342
15838TIP3    H168929   1.828   0.708  14.167  0.5064 -0.5910  0.1486
15838TIP3    H268930   1.922   0.705  14.285 -0.2741  1.1412  0.8637
15839TIP3   OH268931   6.505   2.187  16.421  0.0198 -0.2188 -0.0697
15839TIP3    H168932   6.532   2.102  16.386 -0.1534  0.4091 -1.8561
15839TIP3    H268933   6.557   2.199  16.500  1.5857 -1.0452 -0.9417
15840TIP3   OH268934   0.865   1.386   3.881  0.0358 -0.5925  0.3683
15840TIP3    H168935   0.778   1.355   3.908 -0.2506 -0.6733 -0.6109
15840TIP3    H268936   0.925   1.322   3.920 -0.4127 -1.1303  0.2058
15841TIP3   OH268937   5.188   0.625   1.517  0.4863  0.0303 -0.2949
15841TIP3    H168938   5.166   0.622   1.423  0.6846 -0.5494 -0.3273
15841TIP3    H268939   5.190   0.533   1.543 -0.6961  0.2165  0.5494
15842TIP3   OH268940   2.285   3.115  14.591 -0.0568  0.2421 -0.1954
15842TIP3    H168941   2.313   3.121  14.682 -2.8076 -0.1679  0.7853
15842TIP3    H268942   2.313   3.028  14.563 -0.2362 -0.1220  0.6954
15843TIP3   OH268943   5.298   1.069  16.166  0.2257  0.3496  0.0287
15843TIP3    H168944   5.296   1.110  16.252  0.6566  1.3151 -0.4012
15843TIP3    H268945   5.206   1.061  16.141  0.0876 -0.1855  0.6812
15844TIP3   OH268946   4.762   1.953  11.221 -0.1328  0.5955 -0.4890
15844TIP3    H168947   4.692   2.007  11.258 -1.2506 -1.1342  0.0297
15844TIP3    H268948   4.718   1.899  11.155  0.8474 -0.0092 -0.6692
15845TIP3   OH268949   1.642   5.926   5.586 -0.3307  0.0742 -0.2074
15845TIP3    H168950   1.626   5.832   5.598 -1.3871  0.5003  2.4384
15845TIP3    H268951   1.714   5.930   5.524 -0.0371 -2.5018 -0.1616
15846TIP3   OH268952   3.608   0.047   3.353  0.4636 -0.1857  0.2146
15846TIP3    H168953   3.624   0.089   3.268  0.6278  1.1938  0.8979
15846TIP3    H268954   3.539   0.099   3.393  0.6845 -0.5639  1.1081
15847TIP3   OH268955   0.737   4.070   0.616 -0.4523 -0.1014 -0.4912
15847TIP3    H168956   0.649   4.084   0.580 -0.0994  1.8274 -0.7012
15847TIP3    H268957   0.742   3.976   0.631 -1.0962 -0.9104 -4.3206
15848TIP3   OH268958   0.116   1.661   6.382 -0.2939  0.2227 -0.0654
15848TIP3    H168959   0.210   1.641   6.390 -0.7466 -1.3751  2.3491
15848TIP3    H268960   0.112   1.757   6.381  1.4051  0.3510 -1.8903
15849TIP3   OH268961   5.797   3.255  11.526  0.3862 -0.3220 -0.0774
15849TIP3    H168962   5.893   3.253  11.534  0.2606  0.3226  2.2492
15849TIP3    H268963   5.780   3.325  11.463  1.4126  2.5366  2.5833
15850TIP3   OH268964   4.018   2.440  12.356 -0.0237  0.2911 -0.1441
15850TIP3    H168965   3.938   2.389  12.369 -0.2797  0.8111  0.3481
15850TIP3    H268966   4.000   2.492  12.278 -0.5154  1.0551  0.4617
15851TIP3   OH268967   3.659   5.896  12.292 -0.5261 -0.2308 -0.3040
15851TIP3    H168968   3.610   5.887  12.210 -0.3410  1.0639 -0.5695
15851TIP3    H268969   3.750   5.907  12.265 -0.2635 -1.1937  0.1388
15852TIP3   OH268970   5.751   1.704  13.273  0.2203 -0.1418  0.1922
15852TIP3    H168971   5.729   1.642  13.343 -0.5200  0.7036  0.7233
15852TIP3    H268972   5.697   1.677  13.199 -2.5139  1.6862  1.3590
15853TIP3   OH268973   0.303   3.200  12.507 -0.2072  0.3291 -0.4078
15853TIP3    H168974   0.391   3.178  12.476  0.0573  0.9481 -0.1052
15853TIP3    H268975   0.303   3.295  12.515  0.0319  0.1796  2.2795
15854TIP3   OH268976   4.192   2.676   5.886 -0.2300 -0.0974  0.3773
15854TIP3    H168977   4.218   2.639   5.970  1.1978  0.3674  0.1659
15854TIP3    H268978   4.101   2.703   5.899 -0.4366 -1.1818  1.3679
15855TIP3   OH268979   2.448   1.842   3.593  0.2427  0.1187 -0.1823
15855TIP3    H168980   2.538   1.832   3.563  0.5595  0.4276  0.6472
15855TIP3    H268981   2.453   1.905   3.665 -0.9046  1.6571 -1.3769
15856TIP3   OH268982   3.403   5.599  16.723  0.0036  0.0548 -0.2862
15856TIP3    H168983   3.471   5.533  16.704 -0.1444 -1.2292  3.0625
15856TIP3    H268984   3.345   5.595  16.647  1.4554 -1.7805 -1.3964
15857TIP3   OH268985   1.090   1.571   5.137  0.3560 -0.1200  0.2203
15857TIP3    H168986   1.004   1.539   5.110 -0.2088  2.1092 -0.8047
15857TIP3    H268987   1.108   1.524   5.218 -1.9783 -0.4127  0.6514
15858TIP3   OH268988   4.809   0.171   5.893  0.2824  0.2534  0.5543
15858TIP3    H168989   4.769   0.230   5.957  0.1711  0.9907 -0.1798
15858TIP3    H268990   4.898   0.158   5.925 -0.1142 -0.2831  1.4553
15859TIP3   OH268991   6.229   1.635   4.265  0.4127 -0.1683  0.0528
15859TIP3    H168992   6.171   1.605   4.195  0.7434 -1.4034  0.2832
15859TIP3    H268993   6.292   1.564   4.275  1.9803  1.1397 -0.1906
15860TIP3   OH268994   5.454   1.501   0.144 -0.2016  0.4504  0.4437
15860TIP3    H168995   5.382   1.565   0.139  0.8861  1.7092  0.0973
15860TIP3    H268996   5.420   1.424   0.099 -0.4374  1.9512 -2.2138
15861TIP3   OH268997   0.762   5.537   2.695  0.2791  0.3688 -0.4982
15861TIP3    H168998   0.784   5.493   2.613 -0.3599 -0.0435 -0.4608
15861TIP3    H268999   0.791   5.475   2.763  0.2859  0.4522 -0.4253
15862TIP3   OH269000   2.970   1.350   1.816 -0.1923 -0.1695 -0.0461
15862TIP3    H169001   2.944   1.437   1.847 -1.8542 -1.1193  1.4218
15862TIP3    H269002   2.909   1.331   1.745 -1.7549 -1.2177  1.4897
15863TIP3   OH269003   1.655   0.667  10.538 -0.7596 -0.2977 -0.0751
15863TIP3    H169004   1.658   0.662  10.634 -1.2476 -2.3536 -0.1045
15863TIP3    H269005   1.609   0.587  10.512  1.7929 -1.2200 -2.1450
15864TIP3   OH269006   6.485   2.954   5.945  0.0985  0.2957 -0.0950
15864TIP3    H169007   6.432   2.972   6.023  1.7042  0.0502  1.1027
15864TIP3    H269008   6.443   2.878   5.905  0.2704 -0.7037  1.5448
15865TIP3   OH269009   4.471   4.831  15.794 -0.4891 -0.3913  0.1852
15865TIP3    H169010   4.532   4.898  15.825  0.7499 -1.4967  0.2152
15865TIP3    H269011   4.467   4.844  15.700 -1.9216  1.0559  0.4050
15866TIP3   OH269012   1.553   6.254  14.064 -0.2413 -0.0837  0.1275
15866TIP3    H169013   1.550   6.341  14.104 -1.3167 -0.0719  0.0291
15866TIP3    H269014   1.553   6.271  13.970 -1.1814 -0.1942  0.0971
15867TIP3   OH269015   0.039   0.052   4.836  0.7301 -0.3173  0.3619
15867TIP3    H169016   0.121   0.093   4.808  0.7907 -1.2732 -0.9313
15867TIP3    H269017   0.064  -0.036   4.863  0.2996 -0.1998  1.1787
15868TIP3   OH269018   6.678   4.170   5.162 -0.2098  0.3597 -0.0422
15868TIP3    H169019   6.646   4.245   5.112  0.5866  0.4856 -0.3801
15868TIP3    H269020   6.611   4.155   5.229 -0.4657  1.2538 -0.0886
15869TIP3   OH269021   3.551   5.469   1.401 -0.2883  0.3562 -0.3651
15869TIP3    H169022   3.486   5.523   1.357 -0.9870  1.8200  2.2449
15869TIP3    H269023   3.503   5.424   1.471  0.8328 -1.5063 -0.7064
15870TIP3   OH269024   4.699   2.638   1.416  1.0992  0.0608 -0.5540
15870TIP3    H169025   4.685   2.669   1.327  0.9945 -0.5294 -0.7408
15870TIP3    H269026   4.633   2.570   1.429  0.1315  1.1346  0.4733
15871TIP3   OH269027   4.996   0.758   0.049  0.4113 -0.4091  0.0092
15871TIP3    H169028   4.959   0.774   0.136  2.7641 -0.9484  1.1821
15871TIP3    H269029   5.031   0.669   0.053 -0.7113 -0.9968 -2.0020
15872TIP3   OH269030   1.386   5.296  13.737  0.0293  0.0958 -0.5514
15872TIP3    H169031   1.333   5.327  13.810  1.2783  1.4196 -0.1715
15872TIP3    H269032   1.334   5.316  13.659 -0.6805 -0.0195 -0.1214
15873TIP3   OH269033   1.390   3.329  13.280  0.2722 -0.2016  0.1151
15873TIP3    H169034   1.385   3.408  13.226  2.3123  0.5412  0.9370
15873TIP3    H269035   1.316   3.275  13.250 -0.5653  1.5575 -1.1572
15874TIP3   OH269036   6.316   3.487  15.672 -0.1324  0.4407  0.0005
15874TIP3    H169037   6.323   3.436  15.753  0.8889 -0.9568 -0.9205
15874TIP3    H269038   6.222   3.491  15.655 -0.2553 -1.1427  0.1241
15875TIP3   OH269039   5.154   4.173   3.839 -0.7158  0.0542  0.7563
15875TIP3    H169040   5.066   4.136   3.848 -0.1698 -1.4814  0.0854
15875TIP3    H269041   5.152   4.252   3.893 -1.7876 -1.2452  2.7793
15876TIP3   OH269042   6.315   1.332  14.984  0.2301  0.7131 -0.4458
15876TIP3    H169043   6.316   1.423  14.956  1.0127  0.9869  0.4057
15876TIP3    H269044   6.369   1.286  14.919  1.5712  1.2410  0.2458
15877TIP3   OH269045   2.563   2.539  14.161 -0.3634 -0.0873 -0.2836
15877TIP3    H169046   2.638   2.533  14.220 -1.0727  0.9073  0.7342
15877TIP3    H269047   2.490   2.502  14.210 -1.5028  2.9156  0.4696
15878TIP3   OH269048   2.819   0.643  13.348  0.3465 -0.1654  0.1445
15878TIP3    H169049   2.853   0.644  13.258  0.2186  1.3730  0.0813
15878TIP3    H269050   2.893   0.666  13.403  0.2055 -0.1860  0.3480
15879TIP3   OH269051   3.589   5.823  11.359  0.0202 -0.2607 -0.0696
15879TIP3    H169052   3.596   5.914  11.389  1.8000 -1.5736  4.1906
15879TIP3    H269053   3.609   5.827  11.266 -1.0499  3.7921 -0.3021
15880TIP3   OH269054   1.298   6.313   1.481  0.5941  0.2250 -0.3364
15880TIP3    H169055   1.326   6.316   1.390  0.8454  1.1949 -0.2394
15880TIP3    H269056   1.363   6.258   1.525  1.8276  1.6095 -0.3162
15881TIP3   OH269057   1.683   2.282   4.610  0.0217  0.1672 -0.0315
15881TIP3    H169058   1.592   2.259   4.625  0.2347 -1.0755 -0.5642
15881TIP3    H269059   1.693   2.286   4.515  0.4095  0.8082  0.0243
15882TIP3   OH269060   2.622   4.977   4.932 -0.3181 -0.1623 -0.0868
15882TIP3    H169061   2.687   4.959   4.864  0.6946  2.7772 -0.0533
15882TIP3    H269062   2.546   5.011   4.884 -0.8539 -1.1093  0.0677
15883TIP3   OH269063   5.746   0.840  15.162 -0.4738  0.4192  0.1678
15883TIP3    H169064   5.699   0.757  15.167 -0.6947  0.5608  0.5022
15883TIP3    H269065   5.787   0.848  15.248 -0.0982  0.4495 -0.0138
15884TIP3   OH269066   6.403   3.579  13.075 -0.1130  0.0723 -0.3203
15884TIP3    H169067   6.439   3.652  13.024  0.5349  0.0597  0.0989
15884TIP3    H269068   6.369   3.518  13.010 -0.3006  0.5628 -0.6903
15885TIP3   OH269069   2.646   0.606   0.857  0.2143  0.0863 -0.1949
15885TIP3    H169070   2.640   0.581   0.765  1.4821 -1.0876  0.0052
15885TIP3    H269071   2.721   0.665   0.861  0.0980  0.2169  0.0709
15886TIP3   OH269072   3.823   0.285   4.468  0.6163  0.4046 -0.3279
15886TIP3    H169073   3.783   0.314   4.550 -2.6721  2.7993 -2.5095
15886TIP3    H269074   3.913   0.264   4.491 -0.3096  0.3227  3.9623
15887TIP3   OH269075   3.422   0.227   2.113 -0.0551  0.2158 -0.1253
15887TIP3    H169076   3.510   0.243   2.079  0.0510 -2.7165 -1.5583
15887TIP3    H269077   3.366   0.288   2.065  0.9903  1.1838 -0.1733
15888TIP3   OH269078   3.021   2.279   1.339 -0.3938  0.3559 -0.4116
15888TIP3    H169079   3.021   2.211   1.407  1.7255  0.7322  0.0258
15888TIP3    H269080   2.948   2.337   1.363  0.3188  0.5055  1.6075
15889TIP3   OH269081   2.456   0.026  15.731  0.3805  0.1535  0.2456
15889TIP3    H169082   2.384   0.084  15.706  1.5903  1.0583 -1.2998
15889TIP3    H269083   2.417  -0.061  15.733 -1.0577  0.7768  0.8201
15890TIP3   OH269084   4.198   4.261   1.936 -0.8746 -0.2597  0.2276
15890TIP3    H169085   4.281   4.301   1.912 -1.1367  0.3363  0.2719
15890TIP3    H269086   4.194   4.180   1.885  0.9826 -1.7540  2.2893
15891TIP3   OH269087   4.812   2.165   4.086  0.0144  0.1361 -0.6919
15891TIP3    H169088   4.827   2.155   4.180  1.1313 -0.6128 -0.9255
15891TIP3    H269089   4.889   2.214   4.056  0.5668 -1.1766 -1.4810
15892TIP3   OH269090   3.278   1.223  14.053  0.2677  0.0117  0.0031
15892TIP3    H169091   3.261   1.132  14.028 -0.7090  0.2746 -0.3618
15892TIP3    H269092   3.227   1.274  13.991 -1.7947  0.7103  2.0965
15893TIP3   OH269093   4.004   2.320  16.828 -0.0460 -0.2130 -0.2649
15893TIP3    H169094   3.960   2.284  16.905  1.7761 -0.4367  0.7217
15893TIP3    H269095   3.981   2.260  16.757 -2.2040  0.3015 -0.0754
15894TIP3   OH269096   1.919   3.740   4.530 -0.2729 -0.0841  0.2507
15894TIP3    H169097   1.907   3.648   4.508  1.2118  0.3503 -2.9275
15894TIP3    H269098   1.841   3.783   4.495  0.8523  0.2610 -2.0588
15895TIP3   OH269099   1.182   2.946  13.614 -0.3313  0.2701 -0.2420
15895TIP3    H169100   1.268   2.968  13.579 -0.0771 -0.2546  0.0386
15895TIP3    H269101   1.186   2.973  13.706  0.3231 -1.7571  0.3704
15896TIP3   OH269102   1.337   2.946  16.494  0.1715  0.3031  0.5530
15896TIP3    H169103   1.343   2.890  16.571 -0.3268 -0.9978 -0.3222
15896TIP3    H269104   1.255   2.994  16.505 -0.3201 -0.4935  0.4531
15897TIP3   OH269105   1.013   0.789  17.103 -0.1440  0.4716  0.2038
15897TIP3    H169106   1.015   0.868  17.049 -0.0989  1.1452  1.1707
15897TIP3    H269107   0.991   0.718  17.042 -1.4024  1.4009 -0.4631
15898TIP3   OH269108   4.412   2.043  14.215 -0.2284 -0.3076 -0.5682
15898TIP3    H169109   4.475   2.110  14.187 -1.3673  0.8453 -0.4533
15898TIP3    H269110   4.326   2.082  14.198 -0.9265 -1.4327  0.2438
15899TIP3   OH269111   1.961   3.839  12.628  0.1805  0.1439  0.3800
15899TIP3    H169112   2.056   3.854  12.628  0.4508 -1.4011 -0.2903
15899TIP3    H269113   1.945   3.792  12.710  0.2062 -0.6734 -0.0692
15900TIP3   OH269114   2.809   3.676  15.846  0.1699  0.4477  0.0579
15900TIP3    H169115   2.772   3.587  15.843 -1.7083  1.1676  0.0829
15900TIP3    H269116   2.830   3.696  15.755 -1.2205  0.6373 -0.2578
15901TIP3   OH269117   5.899   4.658   5.646 -0.0480  0.4523  0.0216
15901TIP3    H169118   5.920   4.565   5.635 -1.6664  0.2001 -1.5231
15901TIP3    H269119   5.810   4.659   5.681  0.3591  1.4346  1.0763
15902TIP3   OH269120   2.101   3.030   4.257 -0.5973  0.2736  0.0735
15902TIP3    H169121   2.043   2.967   4.213 -1.9061  1.3863  0.1611
15902TIP3    H269122   2.092   3.110   4.206  1.2018  0.3696 -0.1395
15903TIP3   OH269123   3.456   3.167   2.315 -0.1598  0.0650 -0.0966
15903TIP3    H169124   3.422   3.185   2.403 -0.9672 -0.1592 -0.3480
15903TIP3    H269125   3.475   3.253   2.278  1.0495  0.1251  0.6120
15904TIP3   OH269126   1.795   4.175  14.895  0.1084 -0.0651 -0.0206
15904TIP3    H169127   1.797   4.263  14.858 -0.9070 -0.4330 -1.0216
15904TIP3    H269128   1.744   4.184  14.975 -1.6546 -0.0350 -1.0815
15905TIP3   OH269129   2.792   4.886   6.185  0.6248  0.2489  0.6220
15905TIP3    H169130   2.841   4.968   6.179 -0.4676  1.0096  1.6200
15905TIP3    H269131   2.700   4.913   6.185  0.2205 -1.0544  0.0316
15906TIP3   OH269132   0.614   6.521   0.980 -0.3760  0.2605 -0.0450
15906TIP3    H169133   0.709   6.521   0.996 -0.1961 -0.2810 -1.0028
15906TIP3    H269134   0.592   6.613   0.966 -0.5182  0.7550  2.8926
15907TIP3   OH269135   1.984   6.117  13.433 -0.2047 -0.4808  0.2016
15907TIP3    H169136   1.922   6.182  13.399 -0.2553 -0.8814 -0.5100
15907TIP3    H269137   2.037   6.094  13.357  0.2956 -0.7269  0.6237
15908TIP3   OH269138   1.750   6.571   1.348  0.0547 -0.4981  0.1850
15908TIP3    H169139   1.785   6.482   1.348  1.2716 -0.0769  1.6992
15908TIP3    H269140   1.666   6.565   1.303  0.1017 -2.4118  0.3022
15909TIP3   OH269141   2.143   0.587   5.872  0.0405 -0.1077  0.6465
15909TIP3    H169142   2.075   0.611   5.935 -1.5717  0.1045 -1.0692
15909TIP3    H269143   2.180   0.670   5.843  0.6051 -0.1934  1.0948
15910TIP3   OH269144   1.916   4.393  13.575  0.3575  0.1389  0.1792
15910TIP3    H169145   1.868   4.380  13.493  0.8403  1.2871 -0.3153
15910TIP3    H269146   1.897   4.315  13.627 -0.5931 -0.2488 -0.7102
15911TIP3   OH269147   5.288   6.171   4.004 -0.0411 -0.2747  1.0666
15911TIP3    H169148   5.267   6.243   4.064  2.8015  0.7442  0.9758
15911TIP3    H269149   5.301   6.214   3.920  0.3563 -1.0992  0.7024
15912TIP3   OH269150   6.626   2.049   4.729  0.1312 -0.9992  0.0081
15912TIP3    H169151   6.697   2.053   4.793  1.9189 -0.3922 -1.8937
15912TIP3    H269152   6.556   2.101   4.768  0.8946 -1.2080  1.7530
15913TIP3   OH269153   2.894   0.984   0.061 -0.3938  0.1537 -0.7396
15913TIP3    H169154   2.892   1.065   0.009 -4.0206 -1.2055 -3.1343
15913TIP3    H269155   2.831   1.000   0.131  1.9650  0.7262  1.4068
15914TIP3   OH269156   4.016   3.244   1.279  0.3895 -0.4824  0.1604
15914TIP3    H169157   3.998   3.191   1.201 -0.5532  0.8818 -0.5821
15914TIP3    H269158   4.094   3.294   1.256  1.3657 -1.6173  0.9167
15915TIP3   OH269159   1.848   1.883  16.671  0.2855  0.1471  0.0904
15915TIP3    H169160   1.816   1.810  16.723  1.5377  0.8687  1.9999
15915TIP3    H269161   1.824   1.861  16.581 -3.8021 -0.2551  1.0412
15916TIP3   OH269162   0.555   4.002  16.597  0.0571 -0.3827 -0.9499
15916TIP3    H169163   0.507   4.020  16.678 -0.7097 -0.4987 -1.3750
15916TIP3    H269164   0.490   4.010  16.528  0.8556  0.4389 -1.6351
15917TIP3   OH269165   1.935   2.658  13.190  0.2039 -0.4381 -0.4966
15917TIP3    H169166   1.937   2.743  13.147 -0.2842  0.0637  0.4314
15917TIP3    H269167   1.997   2.604  13.141  0.0276  0.2496 -1.5033
15918TIP3   OH269168   6.573   4.942  16.051 -0.1741  0.2317  0.2111
15918TIP3    H169169   6.636   4.911  16.116 -0.4068  0.6697  0.6463
15918TIP3    H269170   6.515   5.001  16.099 -1.9854 -1.4691  0.2291
15919TIP3   OH269171   0.011   0.660   4.068  0.1108  0.5752  0.0941
15919TIP3    H169172   0.060   0.742   4.076 -0.3875  1.0300 -1.1975
15919TIP3    H269173  -0.058   0.667   4.134  1.2782  0.2728  1.3855
15920TIP3   OH269174   6.222   6.567   4.337 -0.2596  0.5437  0.3372
15920TIP3    H169175   6.297   6.591   4.392 -0.9060 -0.0549  1.5264
15920TIP3    H269176   6.184   6.651   4.310  1.3927  0.8642 -1.1034
15921TIP3   OH269177   5.472   4.295  11.690  0.2021 -0.0817  0.4360
15921TIP3    H169178   5.388   4.291  11.735  0.4352 -2.2041  0.7628
15921TIP3    H269179   5.533   4.327  11.756 -0.2423  1.1603  0.2854
15922TIP3   OH269180   2.673   5.341   1.750  0.2301  0.2113  0.1675
15922TIP3    H169181   2.738   5.332   1.680  1.0898  2.5061  0.5779
15922TIP3    H269182   2.608   5.402   1.715  0.1503  0.6087  0.9877
15923TIP3   OH269183   0.613   3.068   1.838  1.0628  0.4200  0.3366
15923TIP3    H169184   0.563   3.121   1.775 -0.2016  0.8120  1.5951
15923TIP3    H269185   0.577   3.094   1.923  2.3288 -0.5027  1.1789
15924TIP3   OH269186   4.033   2.907   2.169  0.0658 -0.4279  0.2442
15924TIP3    H169187   4.126   2.915   2.150  0.1146 -1.3071  0.0735
15924TIP3    H269188   4.024   2.941   2.258  0.3579  0.7047 -0.1476
15925TIP3   OH269189   0.125   5.440   5.434  0.2863  0.1993 -0.0028
15925TIP3    H169190   0.032   5.452   5.455  0.3588 -1.6924  1.7216
15925TIP3    H269191   0.146   5.512   5.375 -2.4289  0.3354 -0.9438
15926TIP3   OH269192   3.728   0.353  16.778 -0.2575  0.0660  0.2592
15926TIP3    H169193   3.680   0.271  16.795  1.4979 -1.0607  0.0296
15926TIP3    H269194   3.808   0.345  16.831 -0.4303  2.0436  0.9020
15927TIP3   OH269195   0.031   3.765  11.147 -0.2911 -0.2770  0.1218
15927TIP3    H169196   0.064   3.684  11.185  0.2580  0.0053  0.2596
15927TIP3    H269197   0.004   3.741  11.058 -2.0546 -1.0545  0.8213
15928TIP3   OH269198   2.031   6.569   5.608  0.1810  0.3007 -0.2509
15928TIP3    H169199   2.078   6.504   5.556  0.5549  1.0768 -0.9070
15928TIP3    H269200   1.938   6.550   5.593  0.2639 -0.8425  0.5467
15929TIP3   OH269201   1.016   1.074   2.907  0.1575  0.1374  0.0518
15929TIP3    H169202   0.974   0.996   2.942 -0.3560  0.1179 -0.5848
15929TIP3    H269203   1.084   1.096   2.971  0.5282 -1.0223  0.0758
15930TIP3   OH269204   4.548   0.556  13.308 -0.3439 -0.6446  0.1982
15930TIP3    H169205   4.487   0.578  13.379  2.0059 -1.3278  2.5731
15930TIP3    H269206   4.604   0.633  13.300 -1.7890  0.2798 -2.4772
15931TIP3   OH269207   4.249   2.573  11.576  0.1259  0.6113 -0.2746
15931TIP3    H169208   4.195   2.651  11.565  0.2192  1.4810  3.9490
15931TIP3    H269209   4.336   2.607  11.597  1.3678 -0.7796 -2.6565
15932TIP3   OH269210   0.103   5.432   4.040 -0.4195 -0.4585  0.0165
15932TIP3    H169211   0.085   5.370   4.111  3.2942 -0.9031  0.7866
15932TIP3    H269212   0.100   5.518   4.081  0.6601 -0.6453  0.5318
15933TIP3   OH269213   2.329   3.425   1.293  0.2717  0.3166  0.6154
15933TIP3    H169214   2.310   3.343   1.338  0.2107  0.3004  0.5604
15933TIP3    H269215   2.283   3.418   1.209  0.3012  0.3887  0.5928
15934TIP3   OH269216   1.710   5.326  12.511 -0.1189 -0.2650  0.4266
15934TIP3    H169217   1.691   5.254  12.571  0.1387 -0.0726  0.7402
15934TIP3    H269218   1.687   5.292  12.425 -0.9850 -0.3687  0.6916
15935TIP3   OH269219   3.222   5.217   2.850 -0.3156  0.1494 -0.7225
15935TIP3    H169220   3.171   5.148   2.807 -0.4185 -0.7203  0.7445
15935TIP3    H269221   3.157   5.283   2.873 -0.5674 -0.2967 -0.1385
15936TIP3   OH269222   5.786   1.051  12.775  0.1955 -0.0616  0.2401
15936TIP3    H169223   5.802   1.130  12.722 -0.2453 -0.7097 -0.8941
15936TIP3    H269224   5.862   1.046  12.833  0.9841  0.3779 -0.7139
15937TIP3   OH269225   5.899   2.106   2.395  0.1012 -0.3710  0.1715
15937TIP3    H169226   5.863   2.053   2.466  0.2871 -1.8112 -0.7517
15937TIP3    H269227   5.991   2.119   2.419 -0.1414  0.2101  0.7877
15938TIP3   OH269228   5.583   0.618   2.461  0.1989 -0.4599 -0.1746
15938TIP3    H169229   5.615   0.707   2.476  0.0564 -0.2165 -1.2488
15938TIP3    H269230   5.644   0.581   2.398  1.6208 -1.9578  1.9358
15939TIP3   OH269231   6.142   3.051  16.897 -0.3653  0.2515  0.1429
15939TIP3    H169232   6.089   3.033  16.975  0.2894  2.0662  1.0531
15939TIP3    H269233   6.131   3.145  16.882  2.4576  0.6913  0.3104
15940TIP3   OH269234   2.056   3.622   4.020 -0.6208 -0.1235  0.4816
15940TIP3    H169235   1.985   3.657   4.074 -1.5261 -0.2292 -0.6154
15940TIP3    H269236   2.135   3.633   4.074 -1.2867  1.0906  1.2426
15941TIP3   OH269237   2.834   3.414   0.456 -0.4719 -0.0582 -0.3095
15941TIP3    H169238   2.814   3.439   0.546 -2.0712  0.6754 -0.8454
15941TIP3    H269239   2.758   3.364   0.427  1.3677 -3.1444 -0.2530
15942TIP3   OH269240   3.602   6.404   0.310 -0.5803 -0.6616  0.5765
15942TIP3    H169241   3.556   6.386   0.391 -0.8689  2.0664  1.1046
15942TIP3    H269242   3.554   6.477   0.270  0.2650 -1.1321 -1.4474
15943TIP3   OH269243   5.236   3.794  12.694  0.5971 -0.2599 -0.1752
15943TIP3    H169244   5.150   3.803  12.653 -0.0201 -3.2742  0.2036
15943TIP3    H269245   5.298   3.822  12.627 -0.6087  1.7531 -0.5306
15944TIP3   OH269246   2.583   1.951   0.895 -0.3567  0.0746 -0.3368
15944TIP3    H169247   2.498   1.926   0.931 -0.6380 -0.6904 -1.4876
15944TIP3    H269248   2.579   1.924   0.803  1.1548 -0.0478 -0.3870
15945TIP3   OH269249   2.531   6.052   4.319  0.0174  0.1529 -0.8724
15945TIP3    H169250   2.561   5.963   4.331  0.3218  0.2312 -1.0418
15945TIP3    H269251   2.547   6.071   4.226  2.1569  1.1778 -0.3438
15946TIP3   OH269252   4.096   5.520   1.480  0.7248  0.1602 -0.0467
15946TIP3    H169253   4.059   5.497   1.394 -0.8398 -1.1590  0.9130
15946TIP3    H269254   4.107   5.436   1.524  0.4786  0.8752  1.4344
15947TIP3   OH269255   1.038   4.688   4.971 -0.4619  0.3070  1.0050
15947TIP3    H169256   0.945   4.704   4.953 -0.5134 -0.2708  0.7479
15947TIP3    H269257   1.074   4.662   4.887 -0.0484  0.5936  1.0927
15948TIP3   OH269258   2.271   0.162  13.463  0.3463 -1.0053  0.3031
15948TIP3    H169259   2.273   0.098  13.535  1.3174  0.7118  1.9036
15948TIP3    H269260   2.232   0.240  13.502  1.0573  0.0401 -1.0037
15949TIP3   OH269261   4.251   0.896  12.230 -0.1517  0.2921  0.6680
15949TIP3    H169262   4.265   0.855  12.145 -0.3021  2.3755 -0.4273
15949TIP3    H269263   4.167   0.941  12.222  0.1524  1.0850  1.6534
15950TIP3   OH269264   0.878   3.382   3.341 -0.4929 -0.2255  0.0381
15950TIP3    H169265   0.793   3.377   3.297 -0.2130  0.1515 -0.5745
15950TIP3    H269266   0.941   3.385   3.269  0.1977 -2.5187  0.4767
15951TIP3   OH269267   5.570   0.112  15.164 -0.7829 -0.2499 -0.2166
15951TIP3    H169268   5.602   0.196  15.129 -0.1296 -0.9185 -1.2721
15951TIP3    H269269   5.575   0.052  15.090 -1.6022 -1.1420  0.4315
15952TIP3   OH269270   0.375   6.358  12.959  0.0213  0.7460  0.0835
15952TIP3    H169271   0.284   6.338  12.936  0.6790 -2.0389 -0.4982
15952TIP3    H269272   0.426   6.298  12.905  2.1542  1.4619  1.2163
15953TIP3   OH269273   5.770   1.789   0.403 -0.6357  0.1141  0.0100
15953TIP3    H169274   5.684   1.750   0.416 -1.6372  1.5523 -1.8662
15953TIP3    H269275   5.819   1.721   0.355 -0.1072 -1.3338  2.4270
15954TIP3   OH269276   2.715   5.972   3.103 -0.0934  0.0763  0.0458
15954TIP3    H169277   2.797   5.928   3.124  0.0696  0.2963 -0.1319
15954TIP3    H269278   2.647   5.907   3.122  0.1045 -0.0074  0.4564
15955TIP3   OH269279   3.348   0.129  13.854  0.5227  0.3653 -0.0287
15955TIP3    H169280   3.352   0.132  13.759  0.6762  0.3367 -0.0238
15955TIP3    H269281   3.256   0.113  13.874  0.7814 -1.6598 -0.2284
15956TIP3   OH269282   5.499   2.769   0.446 -0.0348 -0.6436  0.3480
15956TIP3    H169283   5.561   2.699   0.466 -0.4842 -1.0766  0.2364
15956TIP3    H269284   5.496   2.771   0.350  0.1283 -0.3332  0.3473
15957TIP3   OH269285   2.679   0.229  11.160 -0.2760  0.3254  0.0245
15957TIP3    H169286   2.750   0.183  11.205  1.5572  2.3944 -0.6028
15957TIP3    H269287   2.696   0.216  11.067 -1.1189  0.2886 -0.1312
15958TIP3   OH269288   2.292   6.229   3.548  0.7721 -0.3509  0.1343
15958TIP3    H169289   2.357   6.213   3.617 -0.1366  0.5341  1.2333
15958TIP3    H269290   2.330   6.188   3.470  0.7509 -3.5869  1.6504
15959TIP3   OH269291   2.534   2.285   2.320  0.0978  0.1577 -0.1457
15959TIP3    H169292   2.493   2.304   2.405  2.3071 -0.1733  1.0621
15959TIP3    H269293   2.512   2.193   2.303 -0.6731  0.3310 -0.1516
15960TIP3   OH269294   1.004   5.640   5.257  0.7773 -0.0894 -0.3091
15960TIP3    H169295   0.913   5.631   5.285  0.2314  2.1403 -1.1901
15960TIP3    H269296   1.054   5.597   5.327 -0.8352  0.3587  1.2051
15961TIP3   OH269297   4.646   3.312  12.297  0.4442  0.0101 -0.5462
15961TIP3    H169298   4.623   3.243  12.359  0.0944 -0.0889 -0.7825
15961TIP3    H269299   4.685   3.381  12.351 -0.8587  0.3990 -0.0610
15962TIP3   OH269300   0.145   2.414   1.206  0.4550 -0.5396 -0.1557
15962TIP3    H169301   0.083   2.360   1.256 -0.5968  0.0331 -0.7963
15962TIP3    H269302   0.102   2.500   1.199  2.1955  0.4895  1.0594
15963TIP3   OH269303   5.474   5.978  13.751 -0.0306 -0.1319 -0.7174
15963TIP3    H169304   5.525   6.033  13.810  0.0848  1.7046 -2.4272
15963TIP3    H269305   5.396   5.953  13.801 -0.1311  1.6794  0.0747
15964TIP3   OH269306   2.029   5.894  14.274 -0.5459  0.1118  0.3265
15964TIP3    H169307   1.955   5.947  14.246  0.3752  1.8165  0.9629
15964TIP3    H269308   2.101   5.957  14.285  0.5481 -1.2464  1.3125
15965TIP3   OH269309   5.088   1.747  13.272 -0.2548  0.0483 -0.0680
15965TIP3    H169310   5.144   1.817  13.307 -0.2717  0.1863 -0.3203
15965TIP3    H269311   5.056   1.701  13.350 -0.2538  0.3286  0.0987
15966TIP3   OH269312   4.179   6.284   1.650  0.7169 -0.0421  0.2651
15966TIP3    H169313   4.093   6.300   1.611  0.6442 -1.2030 -0.0954
15966TIP3    H269314   4.199   6.193   1.627  1.7072 -0.0225  0.9850
15967TIP3   OH269315   4.806   5.070  16.509 -0.2009 -0.0004 -0.2911
15967TIP3    H169316   4.712   5.062  16.491  0.1329  0.2562 -2.3745
15967TIP3    H269317   4.824   5.003  16.575 -2.0034  0.5932  0.8752
15968TIP3   OH269318   5.791   4.641   2.881  0.4267 -0.1748 -0.5661
15968TIP3    H169319   5.839   4.581   2.939 -0.2563 -0.2370 -0.0622
15968TIP3    H269320   5.844   4.721   2.880  0.1879  0.0046  0.5409
15969TIP3   OH269321   4.906   0.205  12.773 -0.5659 -0.3483 -0.4937
15969TIP3    H169322   4.892   0.222  12.866  0.1498  2.2755 -0.8027
15969TIP3    H269323   4.860   0.276  12.728 -0.8105 -1.5067 -2.1669
15970TIP3   OH269324   4.145   1.538   1.549 -0.2238 -0.0639  0.0312
15970TIP3    H169325   4.223   1.546   1.493 -0.0902  0.0959  0.2371
15970TIP3    H269326   4.167   1.469   1.611 -0.7274 -0.8753 -0.6837
15971TIP3   OH269327   0.802   4.816  15.684  0.7630 -0.3731 -0.0615
15971TIP3    H169328   0.740   4.745  15.694  1.1318 -0.9444 -1.4904
15971TIP3    H269329   0.749   4.896  15.687  0.0180 -0.8315 -0.7870
15972TIP3   OH269330   0.652   6.025  16.663  0.1159 -0.2164  0.0217
15972TIP3    H169331   0.675   6.112  16.631  0.1575 -0.1274  0.2889
15972TIP3    H269332   0.585   6.041  16.729 -0.8078 -0.4886 -0.8394
15973TIP3   OH269333   5.133   4.594   4.843 -0.0067  0.3580 -0.5383
15973TIP3    H169334   5.091   4.679   4.832 -1.0080 -0.0093  0.2716
15973TIP3    H269335   5.091   4.556   4.920  1.2983 -0.3540 -0.1403
15974TIP3   OH269336   5.239   6.333  13.687 -0.7246 -0.6053 -0.2042
15974TIP3    H169337   5.209   6.283  13.612  1.5333 -2.2488 -0.1234
15974TIP3    H269338   5.277   6.413  13.650 -0.4780 -0.9618 -0.7177
15975TIP3   OH269339   2.091   4.864  15.268  0.1067 -0.0248 -0.1473
15975TIP3    H169340   2.034   4.847  15.193 -2.6678  1.9346  1.3280
15975TIP3    H269341   2.166   4.911  15.231 -0.2215 -0.8145 -1.9000
15976TIP3   OH269342   4.649   6.603   6.168  1.1810  0.5132  0.1161
15976TIP3    H169343   4.596   6.529   6.141 -2.4417  2.4230  1.3914
15976TIP3    H269344   4.657   6.593   6.263  0.2872  1.9193  0.3610
15977TIP3   OH269345   5.105   3.886   4.337 -0.1433 -0.0682 -0.6707
15977TIP3    H169346   5.018   3.922   4.322 -0.2526  0.2936  0.6783
15977TIP3    H269347   5.165   3.955   4.309 -0.2761 -0.2717 -1.4877
15978TIP3   OH269348   2.510   4.223  12.836  0.0624  0.0521  0.2094
15978TIP3    H169349   2.595   4.208  12.876 -0.9186  0.4337  2.5878
15978TIP3    H269350   2.502   4.318  12.831  0.4604  0.0266 -1.6803
15979TIP3   OH269351   6.633   0.494  15.608  0.0127 -0.4349  0.3538
15979TIP3    H169352   6.570   0.443  15.659  0.5075 -1.4175 -0.0028
15979TIP3    H269353   6.685   0.429  15.562  0.2486  0.4112 -0.6090
15980TIP3   OH269354   2.608   0.337   5.871 -0.0293  0.4545 -0.3679
15980TIP3    H169355   2.538   0.377   5.922  0.0817 -0.3401  0.4250
15980TIP3    H269356   2.573   0.332   5.782 -0.9873  0.0290  0.0250
15981TIP3   OH269357   3.691   6.619   2.000  0.1609 -0.1436 -0.0470
15981TIP3    H169358   3.630   6.565   2.051  0.4913  0.8572  1.4689
15981TIP3    H269359   3.656   6.616   1.910 -0.5213 -1.8380  0.2410
15982TIP3   OH269360   5.873   3.688  13.747 -0.1679  0.1589  0.0970
15982TIP3    H169361   5.940   3.755  13.757 -1.0212  1.1947 -0.8614
15982TIP3    H269362   5.843   3.669  13.836  1.7373 -0.7188  0.5883
15983TIP3   OH269363   6.264   1.083   3.541 -0.2888 -0.1477 -0.7058
15983TIP3    H169364   6.264   1.165   3.591  1.4011 -0.9787  0.7635
15983TIP3    H269365   6.284   1.016   3.605 -0.0078 -1.5269 -2.1761
15984TIP3   OH269366   4.515   5.137  16.122  0.0635  0.4257  0.3308
15984TIP3    H169367   4.455   5.065  16.143  0.6911 -0.1737  0.1416
15984TIP3    H269368   4.460   5.204  16.082 -0.2719 -0.7074 -1.1989
15985TIP3   OH269369   4.409   2.924  12.207 -0.0289  0.0091 -0.2402
15985TIP3    H169370   4.382   3.016  12.215 -0.2151  0.0526 -1.2666
15985TIP3    H269371   4.414   2.908  12.113  0.9514 -0.7659 -0.0750
15986TIP3   OH269372   2.118   0.457  14.881  0.0760  0.3849  0.1094
15986TIP3    H169373   2.151   0.450  14.971 -0.3817  0.0362  0.2536
15986TIP3    H269374   2.085   0.369  14.861 -1.8475  1.0062  0.3895
15987TIP3   OH269375   6.121   4.777  13.817 -0.3090 -1.0881  0.3831
15987TIP3    H169376   6.160   4.816  13.895  0.3993  1.3270 -1.0635
15987TIP3    H269377   6.033   4.751  13.845 -0.0549 -0.3314  2.0010
15988TIP3   OH269378   3.530   0.699  14.662 -0.0401 -0.0990 -0.4517
15988TIP3    H169379   3.504   0.783  14.625 -3.0288 -0.0783  1.4093
15988TIP3    H269380   3.485   0.634  14.608 -0.5454 -0.3081  0.2133
15989TIP3   OH269381   4.372   3.999   3.035 -0.2737  0.1608 -0.1388
15989TIP3    H169382   4.286   3.985   3.075  0.7566 -0.1120  2.1948
15989TIP3    H269383   4.375   4.093   3.017 -0.0422  0.8036  2.6464
15990TIP3   OH269384   2.243   2.765   0.642  0.0770  0.4156  0.7162
15990TIP3    H169385   2.311   2.743   0.705  1.6944  2.8838 -0.0179
15990TIP3    H269386   2.188   2.829   0.687  0.0339  0.6666  0.3166
15991TIP3   OH269387   4.695   5.379  11.830 -0.2771  0.0121 -0.4845
15991TIP3    H169388   4.728   5.333  11.753  0.1079  1.6037 -1.3237
15991TIP3    H269389   4.721   5.324  11.904  0.9450 -0.6650 -1.3780
15992TIP3   OH269390   3.170   6.545  11.337  0.1783 -0.3500 -0.2652
15992TIP3    H169391   3.219   6.613  11.383 -0.1193  0.1636 -0.6999
15992TIP3    H269392   3.199   6.551  11.246 -0.7290  0.0117 -0.5468
15993TIP3   OH269393   2.751   3.180  16.385 -0.2062 -0.3920 -0.8813
15993TIP3    H169394   2.750   3.227  16.301 -1.2279 -0.6131 -1.0088
15993TIP3    H269395   2.807   3.104  16.369 -0.1700 -0.2840 -1.2800
15994TIP3   OH269396   0.269   3.469   4.765 -0.2817 -0.6062 -0.1910
15994TIP3    H169397   0.246   3.558   4.791 -0.8463 -0.3886 -1.3733
15994TIP3    H269398   0.356   3.476   4.726 -1.1623 -0.1716 -2.1934
15995TIP3   OH269399   4.555   3.334   5.294  0.6177 -0.5113  0.8809
15995TIP3    H169400   4.475   3.289   5.267 -1.1146  2.7258  0.0448
15995TIP3    H269401   4.606   3.343   5.214 -0.1224  0.9139  0.5410
15996TIP3   OH269402   0.333   4.390   1.671 -0.1153 -0.0191  0.3820
15996TIP3    H169403   0.419   4.428   1.690 -0.7029  1.3118  0.5527
15996TIP3    H269404   0.290   4.383   1.756 -1.1228  1.8189  0.0814
15997TIP3   OH269405   3.654   2.739  12.041  0.0691  0.1664 -0.4337
15997TIP3    H169406   3.697   2.655  12.056  0.7336  0.8513  2.0055
15997TIP3    H269407   3.599   2.752  12.118 -2.6359  0.5089 -2.2777
15998TIP3   OH269408   4.282   3.169   3.441  0.9570  0.2952  0.2114
15998TIP3    H169409   4.308   3.214   3.521 -0.6332  0.3346  0.7249
15998TIP3    H269410   4.271   3.239   3.376  1.1190  0.3721  0.2669
15999TIP3   OH269411   2.636   3.363  12.614  0.3218 -0.1126  0.0693
15999TIP3    H169412   2.625   3.379  12.521 -0.2926  0.1133  0.1764
15999TIP3    H269413   2.724   3.326  12.622 -0.3260 -2.0068 -0.8429
16000TIP3   OH269414   6.273   2.246  15.499  0.2929 -0.1570 -0.8227
16000TIP3    H169415   6.211   2.310  15.463 -0.1618  0.4386  0.9386
16000TIP3    H269416   6.235   2.161  15.477 -1.3817  0.1969  0.5225
16001TIP3   OH269417   5.915   0.722  17.012 -0.7411 -0.3991 -0.1425
16001TIP3    H169418   5.841   0.720  16.951 -0.1737 -0.4643 -0.8430
16001TIP3    H269419   5.991   0.732  16.956 -0.1662 -0.9415  0.5264
16002TIP3   OH269420   1.846   1.131   3.160 -0.2235  0.1342 -0.1903
16002TIP3    H169421   1.764   1.098   3.122 -0.0245  2.8281 -3.3990
16002TIP3    H269422   1.818   1.204   3.216 -0.1488  0.0335 -0.0248
16003TIP3   OH269423   0.276   4.843  15.174 -0.3555 -0.1104  0.0611
16003TIP3    H169424   0.213   4.799  15.231 -0.1641 -1.5139 -0.7448
16003TIP3    H269425   0.359   4.799  15.193 -0.4936 -1.4735 -2.0805
16004TIP3   OH269426   5.894   4.661  13.918  0.5455 -0.0322 -0.1926
16004TIP3    H169427   5.808   4.698  13.898 -1.0198 -2.4580  1.5645
16004TIP3    H269428   5.901   4.585  13.860  1.5261  0.1066 -0.2755
16005TIP3   OH269429   5.810   0.711   3.487 -0.1892 -0.0241  0.0192
16005TIP3    H169430   5.793   0.760   3.568  3.8878  0.1082  1.0202
16005TIP3    H269431   5.763   0.761   3.419 -1.4877  1.4606  1.8794
16006TIP3   OH269432   6.160   6.374  14.038 -0.1249 -0.0065 -0.1302
16006TIP3    H169433   6.153   6.432  14.114  1.6578 -0.0606  0.0978
16006TIP3    H269434   6.152   6.286  14.075  0.1449 -0.0120 -0.0850
16007TIP3   OH269435   4.736   3.725   5.980  0.3632  0.7488 -0.0609
16007TIP3    H169436   4.709   3.685   6.062  2.4782 -2.5458 -0.7586
16007TIP3    H269437   4.674   3.796   5.966 -1.7018 -0.2396  3.0163
16008TIP3   OH269438   3.927   2.602  16.932  0.5262  0.2005  0.0004
16008TIP3    H169439   3.894   2.685  16.964 -1.4839 -0.3971 -0.3420
16008TIP3    H269440   3.888   2.536  16.990  1.5146 -0.5519 -0.1548
16009TIP3   OH269441   3.267   5.380   1.226 -0.4290  0.2327 -0.2801
16009TIP3    H169442   3.321   5.454   1.253 -1.8240  1.3552 -0.4647
16009TIP3    H269443   3.330   5.314   1.196  0.9085  0.7958  1.1577
16010TIP3   OH269444   4.189   2.955  15.697 -0.4561  0.4260  0.7729
16010TIP3    H169445   4.275   2.984  15.727 -0.1395 -2.2170  2.8225
16010TIP3    H269446   4.160   3.024  15.638  2.6928  1.8131  0.6264
16011TIP3   OH269447   3.294   1.349   2.229  0.1282  0.0168  0.4649
16011TIP3    H169448   3.264   1.332   2.140  1.5562  0.4346 -0.1317
16011TIP3    H269449   3.280   1.443   2.242 -0.0930 -0.0460  0.6962
16012TIP3   OH269450   6.237   5.647  14.408  0.2290  0.1045  0.8474
16012TIP3    H169451   6.288   5.592  14.468 -0.2864 -1.8823 -0.4401
16012TIP3    H269452   6.270   5.625  14.321 -1.8861 -0.2975  0.0695
16013TIP3   OH269453   6.249   3.331   2.907 -0.2051 -0.3297 -0.2266
16013TIP3    H169454   6.206   3.288   2.981 -1.3487  0.9951 -0.0745
16013TIP3    H269455   6.181   3.334   2.839 -0.3722  1.7420 -0.0132
16014TIP3   OH269456   1.417   4.827   1.607  0.0404 -0.3948 -0.2092
16014TIP3    H169457   1.470   4.751   1.583 -0.6400 -1.4409  1.4212
16014TIP3    H269458   1.333   4.789   1.636 -0.4645  1.0093  0.2280
16015TIP3   OH269459   2.445   5.390  11.501 -0.1726  0.2114 -0.4269
16015TIP3    H169460   2.510   5.340  11.451 -0.8329 -1.9451  0.7238
16015TIP3    H269461   2.361   5.363  11.466 -0.6501 -1.3144  1.6533
16016TIP3   OH269462   0.715   4.633  14.840  0.7950  0.3291 -0.0046
16016TIP3    H169463   0.740   4.725  14.844  0.9336  0.5412 -3.0020
16016TIP3    H269464   0.754   4.594  14.918  0.2710  2.8618  1.6352
16017TIP3   OH269465   2.684   5.731  13.794  0.3779 -0.4696  0.0917
16017TIP3    H169466   2.655   5.727  13.703 -0.6206  1.6908  0.2737
16017TIP3    H269467   2.625   5.672  13.840 -1.0666  0.7070 -0.2100
16018TIP3   OH269468   3.858   1.694   0.285 -0.3813  0.7706 -0.1035
16018TIP3    H169469   3.876   1.783   0.315 -0.0354  0.2965  1.1325
16018TIP3    H269470   3.933   1.672   0.230  0.5477  0.5212  1.2241
16019TIP3   OH269471   1.208   2.873   2.798  0.3925  0.4306 -0.1464
16019TIP3    H169472   1.137   2.847   2.856 -0.6002  1.7145 -0.7359
16019TIP3    H269473   1.286   2.831   2.834 -0.7427 -1.5045  0.1825
16020TIP3   OH269474   6.252   4.163   3.949  0.0172  0.1145  0.1953
16020TIP3    H169475   6.275   4.216   4.025  0.2669 -2.1325  1.7876
16020TIP3    H269476   6.157   4.170   3.943 -0.3253 -1.5643  2.3105
16021TIP3   OH269477   1.815   5.211  16.840  0.8571 -0.6604 -0.0117
16021TIP3    H169478   1.724   5.234  16.822  0.4342 -2.0054  0.2278
16021TIP3    H269479   1.825   5.123  16.804  1.7379 -0.9682  0.9208
16022TIP3   OH269480   4.435   3.463  12.871 -0.2947  0.6141 -0.5220
16022TIP3    H169481   4.456   3.374  12.898  1.5271  1.1430 -0.0036
16022TIP3    H269482   4.450   3.464  12.776  1.0486  0.6665 -0.3379
16023TIP3   OH269483   5.454   5.442   5.965  0.4051 -0.1708 -0.2680
16023TIP3    H169484   5.427   5.531   5.943 -1.5574 -0.8019 -0.6747
16023TIP3    H269485   5.493   5.449   6.052 -0.9107  0.9362  0.2810
16024TIP3   OH269486   0.756   0.076   2.526  0.3244 -0.1264 -0.3073
16024TIP3    H169487   0.787   0.136   2.593 -0.0845 -0.9649  0.6636
16024TIP3    H269488   0.768   0.123   2.444 -2.2434  2.2976  0.5510
16025TIP3   OH269489   4.619   5.742   3.481 -0.0810 -0.0996 -0.5096
16025TIP3    H169490   4.657   5.816   3.529  2.7576  0.0581 -2.7244
16025TIP3    H269491   4.604   5.675   3.548  1.5827  0.8692  0.9213
16026TIP3   OH269492   6.496   5.435   4.795  0.0577 -0.1911  0.0526
16026TIP3    H169493   6.403   5.456   4.801  0.2465  0.6090  0.2463
16026TIP3    H269494   6.499   5.357   4.739 -0.6276  0.6743 -1.2654
16027TIP3   OH269495   5.708   0.468   3.587 -0.1212 -0.2914  0.3707
16027TIP3    H169496   5.775   0.411   3.548  1.5152  0.5165  1.8190
16027TIP3    H269497   5.729   0.555   3.554  0.9769  0.3267  2.4463
16028TIP3   OH269498   4.585   2.956   1.785 -0.8236 -0.4037 -0.1037
16028TIP3    H169499   4.565   3.046   1.759 -0.8496 -0.3218  0.1877
16028TIP3    H269500   4.661   2.964   1.842 -0.9342 -0.5438  0.0683
16029TIP3   OH269501   5.558   4.047   5.836  0.1522 -0.1385 -0.2512
16029TIP3    H169502   5.532   4.112   5.771  0.3863 -1.8438 -2.1318
16029TIP3    H269503   5.475   4.013   5.870 -0.2244 -2.4866 -3.1064
16030TIP3   OH269504   2.380   0.307  13.269  0.2982  0.0611  0.2445
16030TIP3    H169505   2.454   0.248  13.255 -0.9224 -1.7025  0.9202
16030TIP3    H269506   2.331   0.267  13.341 -2.1098  0.3734 -1.1553
16031TIP3   OH269507   5.535   6.749  14.513  0.2696 -0.0407  0.6759
16031TIP3    H169508   5.545   6.801  14.593  0.2706  2.4391 -0.8298
16031TIP3    H269509   5.578   6.802  14.446  1.9375 -2.9127 -0.6880
16032TIP3   OH269510   3.090   3.967   5.307  0.7129  0.0053 -0.4858
16032TIP3    H169511   3.135   4.049   5.289 -0.1686  1.2101  2.2732
16032TIP3    H269512   3.141   3.901   5.260  3.2138  1.7417 -0.3994
16033TIP3   OH269513   2.258   3.316  11.242  0.1428 -0.3688  1.0409
16033TIP3    H169514   2.327   3.264  11.281 -0.9639 -1.0846  2.1115
16033TIP3    H269515   2.203   3.253  11.195  0.1938  0.1855  0.2020
16034TIP3   OH269516   1.166   0.101   5.312 -0.4937  0.6136 -0.1143
16034TIP3    H169517   1.119   0.120   5.231 -0.3916 -1.4095 -0.7112
16034TIP3    H269518   1.250   0.066   5.284 -0.2225  0.4317  0.8754
16035TIP3   OH269519   1.293   1.195   2.460  0.4738 -0.0182  0.1671
16035TIP3    H169520   1.358   1.125   2.446  1.0468  0.7056 -0.9639
16035TIP3    H269521   1.323   1.267   2.404  0.0866  1.2791  1.5683
16036TIP3   OH269522   0.275   5.075   4.724 -0.3173 -0.3648  0.2261
16036TIP3    H169523   0.200   5.015   4.721 -0.7421  0.1628  0.2467
16036TIP3    H269524   0.293   5.085   4.818 -0.5505 -0.0934  0.2457
16037TIP3   OH269525   1.583   5.869   4.131 -0.1391 -0.4900  0.2066
16037TIP3    H169526   1.519   5.874   4.061  0.7764  2.4643 -0.5743
16037TIP3    H269527   1.662   5.835   4.089  0.3910  1.2208 -0.2525
16038TIP3   OH269528   4.588   1.232  12.570 -0.2169  0.2003  0.2613
16038TIP3    H169529   4.569   1.270  12.656  0.4727  1.1936 -0.0095
16038TIP3    H269530   4.675   1.266  12.547  1.0468 -2.5363  0.5562
16039TIP3   OH269531   6.476   3.238   5.743  0.2031 -0.0139 -0.2266
16039TIP3    H169532   6.550   3.177   5.739  0.7682  0.6356  0.2347
16039TIP3    H269533   6.431   3.215   5.825  0.9395  0.7720  0.4134
16040TIP3   OH269534   6.669   1.284  16.461 -0.2952 -0.1713  0.3311
16040TIP3    H169535   6.696   1.259  16.373  1.0316  2.2873 -0.0414
16040TIP3    H269536   6.611   1.359  16.449 -1.3498 -0.7643  1.5070
16041TIP3   OH269537   2.461   6.112  10.921  0.1575  0.0152 -0.7420
16041TIP3    H169538   2.474   6.041  10.859 -0.0690  0.6673 -1.5520
16041TIP3    H269539   2.368   6.108  10.944  0.3354 -0.5066 -0.0845
16042TIP3   OH269540   0.134   1.834   5.056  0.0882  0.0315  0.3501
16042TIP3    H169541   0.134   1.769   5.126  0.0502 -0.9680 -0.5399
16042TIP3    H269542   0.220   1.876   5.063 -0.7911  1.6826  2.4783
16043TIP3   OH269543   3.073   5.610   1.954  0.0331 -0.7134  0.0736
16043TIP3    H169544   3.157   5.656   1.945 -0.8442  0.5907 -2.5366
16043TIP3    H269545   3.013   5.676   1.988 -0.5475 -0.7981 -0.7649
16044TIP3   OH269546   2.909   2.095   3.940 -0.1037 -0.3057 -0.5921
16044TIP3    H169547   3.005   2.098   3.941 -0.1054 -0.1007  0.4822
16044TIP3    H269548   2.883   2.178   3.901  0.1607  1.1071  1.9973
16045TIP3   OH269549   5.819   1.475   3.745  0.2435  0.4202  0.4349
16045TIP3    H169550   5.871   1.420   3.685 -1.5499  0.2702 -1.0731
16045TIP3    H269551   5.769   1.412   3.796 -0.1869  0.6024  0.2376
16046TIP3   OH269552   0.753   2.144  15.303 -0.5543  0.0080 -0.1820
16046TIP3    H169553   0.678   2.184  15.259  1.0013  1.8534 -1.3248
16046TIP3    H269554   0.807   2.111  15.231 -0.4490 -1.6969  0.6349
16047TIP3   OH269555   2.228   5.394  12.657  0.0002 -0.1674 -0.3252
16047TIP3    H169556   2.237   5.423  12.566 -1.5693  0.4785 -0.3071
16047TIP3    H269557   2.147   5.435  12.687  1.6096  1.5637  2.1046
16048TIP3   OH269558   2.495   0.570  13.150  0.2934  0.3304  0.5702
16048TIP3    H169559   2.482   0.503  13.217  1.4219  1.4243  1.9480
16048TIP3    H269560   2.561   0.534  13.091 -0.1373 -0.3278  0.4808
16049TIP3   OH269561   2.733   6.624   3.431 -0.1740 -0.2642 -0.4546
16049TIP3    H169562   2.795   6.576   3.486  0.1396  1.0546  0.4117
16049TIP3    H269563   2.657   6.567   3.424  0.5656 -1.2924 -0.2972
16050TIP3   OH269564   1.699   3.853  15.385 -0.2653 -0.4014 -0.1183
16050TIP3    H169565   1.773   3.792  15.379 -0.8078 -1.5743  3.1035
16050TIP3    H269566   1.684   3.864  15.479 -2.7000  1.6796 -0.6287
16051TIP3   OH269567   5.218   1.840   2.632  0.1964  0.1811 -0.4090
16051TIP3    H169568   5.184   1.920   2.672 -1.2489 -0.8912  0.6148
16051TIP3    H269569   5.280   1.804   2.696  0.3967  0.1759 -0.6037
16052TIP3   OH269570   3.463   6.414  12.385 -0.0266 -0.5800 -0.0800
16052TIP3    H169571   3.395   6.473  12.418  0.6416  0.8337 -1.1501
16052TIP3    H269572   3.434   6.391  12.297 -0.0720 -1.5577  0.1757
16053TIP3   OH269573   3.414   4.220   5.351 -0.8066 -0.8021 -0.3724
16053TIP3    H169574   3.401   4.221   5.445  2.1191  3.5454  0.3031
16053TIP3    H269575   3.337   4.265   5.315 -0.6463  0.0566  0.3247
16054TIP3   OH269576   4.832   3.165   3.074  0.9382 -1.2566  0.4253
16054TIP3    H169577   4.886   3.223   3.020 -0.3198 -1.2110 -0.8362
16054TIP3    H269578   4.869   3.078   3.058  0.7419 -1.2104 -0.3071
16055TIP3   OH269579   5.884   0.532  14.949 -0.1603  0.0111  0.5226
16055TIP3    H169580   5.859   0.615  14.908 -0.4884  0.3631  1.4021
16055TIP3    H269581   5.957   0.556  15.007  0.1282 -0.4242  0.3393
16056TIP3   OH269582   0.660   3.381   1.937  0.3013 -0.4845  0.1117
16056TIP3    H169583   0.680   3.343   2.023 -1.6379 -3.0454 -0.4583
16056TIP3    H269584   0.582   3.435   1.952 -1.0663 -2.2458 -0.2098
16057TIP3   OH269585   6.404   1.065   3.913 -0.0284 -0.3765 -0.3800
16057TIP3    H169586   6.363   1.080   3.828 -0.0403  0.8588 -0.1851
16057TIP3    H269587   6.331   1.064   3.975  0.1161  0.8015 -0.1563
16058TIP3   OH269588   4.275   2.531  13.557 -0.1056 -0.2428  0.4246
16058TIP3    H169589   4.318   2.457  13.598  0.1059 -0.8075 -0.7702
16058TIP3    H269590   4.253   2.501  13.469 -2.0239  0.3671  0.6380
16059TIP3   OH269591   1.593   5.090   3.519 -0.6577 -0.5814  0.7086
16059TIP3    H169592   1.619   5.011   3.472  0.2963  0.8000 -1.2334
16059TIP3    H269593   1.512   5.117   3.476  0.0273  0.4972  0.0530
16060TIP3   OH269594   5.214   1.234   6.196 -0.0861  0.1694  0.3272
16060TIP3    H169595   5.147   1.178   6.156 -0.4323  0.4182  0.5576
16060TIP3    H269596   5.235   1.191   6.279 -0.4637  0.4671  0.5749
16061TIP3   OH269597   2.890   2.019  12.972 -0.1976  0.5327 -1.0301
16061TIP3    H169598   2.881   2.100  12.921 -1.7689  1.5991  0.8229
16061TIP3    H269599   2.978   2.025  13.010  0.2777  0.6134 -2.0947
16062TIP3   OH269600   4.850   4.075  16.622  0.0246  0.4626  0.8148
16062TIP3    H169601   4.914   4.009  16.594 -2.5301 -1.3039 -1.3947
16062TIP3    H269602   4.891   4.159  16.598  0.6084 -0.6936 -2.9799
16063TIP3   OH269603   2.307   0.603  16.252 -0.0535  0.5566 -0.3412
16063TIP3    H169604   2.264   0.604  16.338 -0.0691  0.5837 -0.3488
16063TIP3    H269605   2.241   0.570  16.192  0.7905 -2.1185  0.0799
16064TIP3   OH269606   2.130   6.204  15.849  0.2832  0.2897 -0.0768
16064TIP3    H169607   2.201   6.147  15.879  1.4290  1.6766 -0.0254
16064TIP3    H269608   2.165   6.245  15.770 -1.0355 -0.0730 -0.8811
16065TIP3   OH269609   0.852   5.720   4.338  0.1152 -0.5101 -0.0557
16065TIP3    H169610   0.817   5.710   4.427 -0.2052  1.0748  0.0384
16065TIP3    H269611   0.804   5.795   4.302 -0.4750 -1.7501 -1.9545
16066TIP3   OH269612   1.652   0.713  14.144  0.0626  0.0521  0.0742
16066TIP3    H169613   1.637   0.721  14.050  0.1065 -0.1723  0.0455
16066TIP3    H269614   1.573   0.748  14.184  0.5313  1.2495 -0.0184
16067TIP3   OH269615   4.520   6.357   0.983  0.2590  0.6757  0.7552
16067TIP3    H169616   4.585   6.374   1.050  2.3595 -0.0402 -0.9813
16067TIP3    H269617   4.509   6.262   0.983  0.8894  0.5816 -0.3875
16068TIP3   OH269618   6.670   4.193  10.817 -0.1939  0.5141  0.2954
16068TIP3    H169619   6.578   4.218  10.806 -0.6378  0.3136  2.9195
16068TIP3    H269620   6.666   4.106  10.855  1.1147  0.3943  0.1883
16069TIP3   OH269621   0.927   5.052  10.856  0.1254 -0.7769 -0.3334
16069TIP3    H169622   0.848   5.068  10.804  1.1412  0.5957 -1.5365
16069TIP3    H269623   0.916   5.107  10.934 -0.0140 -0.3904 -0.6196
16070TIP3   OH269624   2.780   0.293   0.344 -0.4361 -0.6402 -0.5842
16070TIP3    H169625   2.790   0.381   0.307 -1.1052 -1.0489 -1.7842
16070TIP3    H269626   2.857   0.282   0.400  0.7754 -0.0666 -2.0576
16071TIP3   OH269627   1.593   0.164   5.861  1.0686  0.5497  0.4817
16071TIP3    H169628   1.628   0.211   5.785  0.1405 -0.0601 -0.3404
16071TIP3    H269629   1.576   0.232   5.926  0.1029  1.3256 -0.5560
16072TIP3   OH269630   0.339   2.443   2.126  0.4637 -0.1594  0.5248
16072TIP3    H169631   0.311   2.453   2.217 -0.3546  0.8975  0.1810
16072TIP3    H269632   0.260   2.461   2.075  0.5737 -1.9821 -0.3853
16073TIP3   OH269633   6.256   5.298   4.561  0.2096  0.4028  0.0922
16073TIP3    H169634   6.274   5.230   4.625 -0.8552  1.4943  1.6149
16073TIP3    H269635   6.235   5.376   4.613 -1.3989  1.1566 -1.5610
16074TIP3   OH269636   0.939   5.869  11.614  0.0991  0.5491 -0.4408
16074TIP3    H169637   0.977   5.955  11.633  1.7764 -0.1866 -0.2666
16074TIP3    H269638   0.883   5.884  11.538  0.6539  1.7275 -0.6480
16075TIP3   OH269639   4.658   5.193   1.227  0.2774  0.1124 -0.0641
16075TIP3    H169640   4.578   5.142   1.218 -0.3650  0.8452  1.2637
16075TIP3    H269641   4.645   5.268   1.169  0.2051  0.0095 -0.1828
16076TIP3   OH269642   5.267   3.257   6.109  0.4553  0.2521 -0.6242
16076TIP3    H169643   5.307   3.344   6.116  1.6277 -0.1932 -1.4087
16076TIP3    H269644   5.276   3.220   6.197 -0.6888  1.1760 -0.1056
16077TIP3   OH269645   0.179   5.012  14.995  0.3118 -0.3639  0.2633
16077TIP3    H169646   0.224   4.941  15.040  0.3255  0.4337  1.5382
16077TIP3    H269647   0.165   4.978  14.906  2.4790 -1.0232  0.1218
16078TIP3   OH269648   1.935   3.673   4.899 -0.6445  0.3240  0.1746
16078TIP3    H169649   1.983   3.628   4.968  0.0792  0.8680  0.0253
16078TIP3    H269650   1.943   3.615   4.822 -2.3129 -0.7980  0.7730
16079TIP3   OH269651   5.446   2.144   0.474  0.2506 -0.7322  0.3447
16079TIP3    H169652   5.386   2.154   0.399 -2.1518 -0.9646  2.1087
16079TIP3    H269653   5.521   2.198   0.452 -0.7789 -0.0580 -1.8278
16080TIP3   OH269654   4.442   3.608   5.989 -0.0104 -0.6277  0.1160
16080TIP3    H169655   4.461   3.553   6.065  1.0233 -1.1698 -0.5084
16080TIP3    H269656   4.489   3.566   5.917  0.9331  1.1634 -0.3540
16081TIP3   OH269657   0.400   0.410  11.023 -0.0191  0.1695  0.3604
16081TIP3    H169658   0.421   0.415  10.930  2.0563 -0.3750  0.7613
16081TIP3    H269659   0.400   0.501  11.053 -0.6398  0.3403 -0.1338
16082TIP3   OH269660   1.637   1.992   0.260  0.1192  0.6700 -0.6477
16082TIP3    H169661   1.697   1.925   0.227  0.0987  0.7597 -0.8695
16082TIP3    H269662   1.679   2.075   0.238  0.3308  0.7288 -0.0240
16083TIP3   OH269663   5.109   6.305  12.748 -0.0757 -0.3189  0.1802
16083TIP3    H169664   5.138   6.349  12.828 -1.4582  0.2769  0.3742
16083TIP3    H269665   5.188   6.300  12.694  0.6279  0.2872  1.1073
16084TIP3   OH269666   2.692   0.990  13.478 -0.2966 -0.0639 -0.2809
16084TIP3    H169667   2.720   1.066  13.529 -1.2863  0.0750  0.0753
16084TIP3    H269668   2.610   1.018  13.437  0.1276 -0.4124 -1.3998
16085TIP3   OH269669   4.415   0.962  14.014 -0.2736  0.5027  0.0485
16085TIP3    H169670   4.470   0.895  13.972  0.8997  0.5875  1.3712
16085TIP3    H269671   4.361   0.997  13.943 -0.8213 -1.7181 -0.7283
16086TIP3   OH269672   4.749   5.290   0.539 -0.3407 -0.4002  0.1782
16086TIP3    H169673   4.750   5.195   0.534  2.1321 -0.4860  1.0683
16086TIP3    H269674   4.778   5.320   0.452  0.1928 -0.5052  0.3195
16087TIP3   OH269675   6.596   5.575  14.234  0.2580 -0.3200  0.2169
16087TIP3    H169676   6.645   5.595  14.154  1.3785  1.6363  1.3123
16087TIP3    H269677   6.549   5.656  14.255 -0.8377 -1.1210  0.9969
16088TIP3   OH269678   5.686   3.789  15.685 -0.4098  0.3570 -0.4134
16088TIP3    H169679   5.692   3.841  15.765 -0.8035  1.6652 -1.2090
16088TIP3    H269680   5.660   3.702  15.715 -1.4319  1.0499  0.8149
16089TIP3   OH269681   3.568   1.566  15.059  0.2012  0.6479 -0.1814
16089TIP3    H169682   3.644   1.623  15.058 -0.0284  0.9401 -1.0750
16089TIP3    H269683   3.594   1.489  15.008  0.2208  0.3145  0.3164
16090TIP3   OH269684   5.627   0.600  17.211 -0.5708 -0.4449 -0.0695
16090TIP3    H169685   5.615   0.635  17.123  0.1420 -0.5382 -0.2099
16090TIP3    H269686   5.559   0.533  17.220 -0.3156 -0.7982 -0.7408
16091TIP3   OH269687   2.317   4.015   0.554  0.1346  0.0773  0.5761
16091TIP3    H169688   2.405   4.003   0.518 -0.0856  1.2100 -0.4360
16091TIP3    H269689   2.309   4.110   0.564 -0.8085 -0.0523  1.0947
16092TIP3   OH269690   4.784   2.278  11.142  0.1196 -0.3502  0.0606
16092TIP3    H169691   4.814   2.231  11.219 -2.0623  0.2991  1.4024
16092TIP3    H269692   4.793   2.371  11.164 -2.3980 -0.1267  0.4319
16093TIP3   OH269693   2.431   3.498   5.380  0.3193 -0.3266 -0.1255
16093TIP3    H169694   2.404   3.580   5.339 -1.0347 -1.3171 -1.3199
16093TIP3    H269695   2.381   3.494   5.462  1.1791  0.4962  0.4676
16094TIP3   OH269696   3.116   4.671   2.864 -0.4413 -0.6011  0.5458
16094TIP3    H169697   3.026   4.684   2.834 -0.7112  1.0805  1.9124
16094TIP3    H269698   3.122   4.725   2.943  2.5772  1.7225 -1.0633
16095TIP3   OH269699   1.207   0.287   2.840  0.5066 -0.4912  0.0865
16095TIP3    H169700   1.161   0.320   2.763 -0.3382 -2.1240 -0.1359
16095TIP3    H269701   1.266   0.359   2.865  1.3337 -0.1644 -2.4916
16096TIP3   OH269702   1.796   4.234   2.882 -0.7150  1.0713  0.0336
16096TIP3    H169703   1.756   4.165   2.935  2.0525  0.4326  1.4614
16096TIP3    H269704   1.787   4.203   2.792 -0.5149 -0.6090  0.5678
16097TIP3   OH269705   0.325   1.293   3.632 -0.1510 -0.2299  0.0006
16097TIP3    H169706   0.322   1.253   3.545  0.9364  0.2593 -0.2799
16097TIP3    H269707   0.235   1.289   3.664 -1.0200  1.4837 -2.0170
16098TIP3   OH269708   2.070   0.381   1.373  0.1491 -0.0630  0.5958
16098TIP3    H169709   2.153   0.361   1.416  0.8436 -0.7250 -0.9903
16098TIP3    H269710   2.090   0.455   1.315 -0.6234  0.4180  0.9135
16099TIP3   OH269711   1.944   3.554  16.695 -0.1999 -0.0464  0.3357
16099TIP3    H169712   1.995   3.635  16.698 -1.2447  0.7781 -1.8286
16099TIP3    H269713   1.959   3.512  16.780  1.7260  1.5631  0.8511
16100TIP3   OH269714   1.810   3.336   3.009 -0.1524  0.3524  0.3971
16100TIP3    H169715   1.808   3.378   2.923  0.4318  1.4330  0.8819
16100TIP3    H269716   1.740   3.379   3.058  0.5226  0.8735  0.9345
16101TIP3   OH269717   4.654   2.451   2.544 -0.6306 -0.1322 -0.7644
16101TIP3    H169718   4.582   2.513   2.548  0.7328  1.4911  0.0153
16101TIP3    H269719   4.678   2.436   2.635  1.2441  0.9516 -1.0059
16102TIP3   OH269720   3.964   0.015  16.139 -0.2705  0.2686  0.1248
16102TIP3    H169721   3.896   0.037  16.202  0.4923  1.1511  0.6720
16102TIP3    H269722   3.992   0.099  16.102 -0.2484 -0.1731 -0.9168
16103TIP3   OH269723   1.937   4.353   6.022  0.2191  0.3437  0.4532
16103TIP3    H169724   1.989   4.322   5.948 -1.4270 -0.6782 -0.3194
16103TIP3    H269725   1.989   4.424   6.060  2.8983 -1.5773  0.6558
16104TIP3   OH269726   6.223   1.059   1.155 -0.0017 -0.2055  0.1438
16104TIP3    H169727   6.288   1.064   1.085  0.0870  1.9043  0.3150
16104TIP3    H269728   6.149   1.111   1.123  0.5779  1.9646  2.1071
16105TIP3   OH269729   5.067   2.742  15.799 -0.2584 -0.2854  0.0870
16105TIP3    H169730   4.974   2.726  15.785 -0.2093  0.7066 -1.5765
16105TIP3    H269731   5.087   2.697  15.881 -2.5840  0.9325  1.4263
16106TIP3   OH269732   2.832   6.268  14.652  0.1125  0.4875  0.0805
16106TIP3    H169733   2.841   6.176  14.629 -0.2220  0.3925  0.3284
16106TIP3    H269734   2.818   6.269  14.747 -0.7734  0.7292 -0.0407
16107TIP3   OH269735   2.643   6.638   4.518 -0.0036 -0.6741 -0.4498
16107TIP3    H169736   2.620   6.639   4.610  3.3672 -0.8923  0.5243
16107TIP3    H269737   2.648   6.546   4.495  0.1725 -0.6382 -0.5567
16108TIP3   OH269738   6.658   0.735   0.742 -0.6216  0.4289 -0.3350
16108TIP3    H169739   6.648   0.663   0.679 -0.4179  1.5457 -1.6794
16108TIP3    H269740   6.603   0.805   0.708 -0.5008  1.0543  0.7351
16109TIP3   OH269741   0.307   5.735   2.641  0.2448 -0.0775  0.4372
16109TIP3    H169742   0.381   5.789   2.612  0.9434 -0.7229  0.9828
16109TIP3    H269743   0.337   5.645   2.630  0.0582 -0.3471  1.9332
16110TIP3   OH269744   1.641   5.146  13.960 -0.2617 -0.4466 -0.2499
16110TIP3    H169745   1.581   5.219  13.971  0.3898  0.0163  0.3797
16110TIP3    H269746   1.619   5.108  13.875 -0.4803  0.5973 -0.6667
16111TIP3   OH269747   6.415   2.394   4.504  0.3357 -0.9566 -0.3589
16111TIP3    H169748   6.431   2.300   4.492 -0.4864 -1.1621  0.1010
16111TIP3    H269749   6.358   2.418   4.431  1.0482 -0.6725 -0.8307
16112TIP3   OH269750   4.549   1.677   2.733 -0.4574  0.5798  0.7228
16112TIP3    H169751   4.624   1.704   2.681 -1.5039  1.1371 -0.5798
16112TIP3    H269752   4.582   1.608   2.791  0.6941 -0.3515 -0.9613
16113TIP3   OH269753   2.561   1.071  15.588  0.9151 -0.1171  0.7397
16113TIP3    H169754   2.646   1.089  15.630  1.1690  0.6585 -0.0617
16113TIP3    H269755   2.501   1.054  15.660  0.9631  2.7522  1.5725
16114TIP3   OH269756   1.464   5.132   6.057 -0.1247 -0.0273 -0.3405
16114TIP3    H169757   1.490   5.148   5.967  0.5169 -1.7365 -0.4988
16114TIP3    H269758   1.420   5.047   6.055  1.0049 -0.7145  1.1088
16115TIP3   OH269759   6.381   5.829  17.160 -0.2200 -0.8940  0.4909
16115TIP3    H169760   6.335   5.913  17.154 -0.1225 -0.7878  1.1814
16115TIP3    H269761   6.351   5.780  17.084 -0.8454 -0.5133  0.4853
16116TIP3   OH269762   1.023   3.755  11.128  0.2812 -0.1364 -0.5684
16116TIP3    H169763   1.105   3.797  11.156 -0.1059 -0.6161  1.4876
16116TIP3    H269764   0.955   3.818  11.150 -0.0041 -0.2687 -1.0611
16117TIP3   OH269765   0.360   3.301   0.463 -0.0123 -0.3286 -0.0344
16117TIP3    H169766   0.419   3.314   0.536  1.5281 -0.3032 -1.2366
16117TIP3    H269767   0.320   3.387   0.449 -0.2801 -0.3262  0.7324
16118TIP3   OH269768   1.013   0.874   5.152  0.1941 -0.2029 -0.0435
16118TIP3    H169769   1.022   0.793   5.203  0.4225  0.5671  1.1907
16118TIP3    H269770   1.011   0.943   5.218 -0.8194  0.7479 -1.0220
16119TIP3   OH269771   2.022   4.618  10.759  0.4372  0.0748  0.5002
16119TIP3    H169772   1.967   4.692  10.737  1.2155  0.8492  1.1022
16119TIP3    H269773   2.078   4.605  10.682  0.1464 -0.0404  0.3075
16120TIP3   OH269774   2.415   1.652   2.360 -0.3724 -0.1083 -0.9213
16120TIP3    H169775   2.448   1.562   2.372  1.3339  0.8483  3.1989
16120TIP3    H269776   2.335   1.656   2.412 -0.2691  0.8373 -0.8235
16121TIP3   OH269777   1.047   2.360   3.788 -0.0724  0.0464  0.0941
16121TIP3    H169778   1.051   2.340   3.695 -2.3600 -0.6202  0.0757
16121TIP3    H269779   1.138   2.376   3.813  0.9157 -2.0363 -1.7504
16122TIP3   OH269780   2.775   1.481   3.204  0.0915 -0.1961  0.5043
16122TIP3    H169781   2.769   1.467   3.110 -0.0716  0.1566  0.4576
16122TIP3    H269782   2.736   1.403   3.243  0.1182 -0.3224  0.2785
16123TIP3   OH269783   1.917   3.063  14.450  0.0571  0.3222  0.2272
16123TIP3    H169784   1.847   3.112  14.493  0.1233  0.1079  0.5809
16123TIP3    H269785   1.919   2.978  14.495  2.2753  1.2271  2.0386
16124TIP3   OH269786   5.369   5.635  12.748 -0.1007 -0.3306 -0.1322
16124TIP3    H169787   5.318   5.569  12.795 -0.3638 -0.0934 -0.0801
16124TIP3    H269788   5.337   5.630  12.658  0.9133 -1.2865 -0.4503
16125TIP3   OH269789   0.644   3.697  14.628  0.1388  0.3675 -1.0614
16125TIP3    H169790   0.698   3.764  14.671  2.5546 -2.0067 -0.1109
16125TIP3    H269791   0.600   3.652  14.700 -1.1857  0.6588 -1.6667
16126TIP3   OH269792   4.693   1.852   3.690 -0.4118  0.7804 -0.2951
16126TIP3    H169793   4.703   1.829   3.597 -0.7613 -1.4713  0.1647
16126TIP3    H269794   4.605   1.823   3.712  0.4050 -0.6790  1.2233
16127TIP3   OH269795   1.805   2.896  16.346  0.1230 -0.2685 -0.4925
16127TIP3    H169796   1.730   2.883  16.288 -1.2564  1.9814  0.6789
16127TIP3    H269797   1.881   2.888  16.288 -1.1227  0.1854 -2.2913
16128TIP3   OH269798   5.916   1.209  11.409  0.2535 -0.7407  0.1826
16128TIP3    H169799   5.886   1.228  11.498  0.1816 -1.9468  0.4348
16128TIP3    H269800   5.843   1.164  11.367  0.2469 -0.0791 -0.5305
16129TIP3   OH269801   5.574   2.900  13.729  0.7881 -0.2714  0.0411
16129TIP3    H169802   5.496   2.850  13.704  1.4259 -1.9632  1.2126
16129TIP3    H269803   5.540   2.971  13.784 -0.0814  0.1956 -1.0687
16130TIP3   OH269804   3.999   0.614   1.425  0.1489  0.4588 -0.5334
16130TIP3    H169805   3.979   0.634   1.517  1.1025 -0.3256 -0.1408
16130TIP3    H269806   4.089   0.581   1.426  0.7584  1.9170 -1.9619
16131TIP3   OH269807   2.885   1.925  13.314 -0.3468  0.3611 -0.1893
16131TIP3    H169808   2.837   1.847  13.338 -1.2381  0.8143 -0.4714
16131TIP3    H269809   2.901   1.970  13.397  0.6269 -0.3548  0.0379
16132TIP3   OH269810   3.168   6.192  15.895  0.2774 -0.3074  0.2286
16132TIP3    H169811   3.173   6.255  15.967  1.0650 -0.6000  0.4416
16132TIP3    H269812   3.180   6.107  15.936  2.6083 -0.3637 -0.4247
16133TIP3   OH269813   2.510   6.474   3.382 -0.3404  0.1161  0.1937
16133TIP3    H169814   2.515   6.399   3.323 -0.9086  0.3248 -0.1270
16133TIP3    H269815   2.473   6.438   3.463  2.2401 -0.5858  1.1607
16134TIP3   OH269816   0.693   3.539   0.855  0.0322  0.2692 -0.9255
16134TIP3    H169817   0.697   3.448   0.827  0.0807  0.1409 -0.5078
16134TIP3    H269818   0.651   3.536   0.941  0.1176  0.6310 -0.8687
16135TIP3   OH269819   5.709   0.795   3.075  0.1761 -0.5394  0.5199
16135TIP3    H169820   5.701   0.809   2.980 -0.8856  2.0367  0.8933
16135TIP3    H269821   5.795   0.830   3.097  0.7054 -1.7524  0.4509
16136TIP3   OH269822   5.339   1.491  14.630  0.2792  0.0100 -0.7190
16136TIP3    H169823   5.311   1.576  14.665  0.7660 -0.1230  0.0339
16136TIP3    H269824   5.417   1.511  14.579  1.9352 -0.2431  1.5253
16137TIP3   OH269825   4.186   1.361  12.609 -0.3558  0.1020 -0.1187
16137TIP3    H169826   4.248   1.305  12.656 -1.8540 -0.0504  1.7636
16137TIP3    H269827   4.160   1.309  12.533 -2.1285 -2.0840  1.8620
16138TIP3   OH269828   5.197   6.657  12.359  0.0039  0.0112 -0.1151
16138TIP3    H169829   5.166   6.567  12.348  0.1417 -0.0799  0.2265
16138TIP3    H269830   5.200   6.670  12.454 -0.8675  0.6692 -0.1538
16139TIP3   OH269831   6.659   1.471   3.265  0.4585 -0.4253  0.1785
16139TIP3    H169832   6.628   1.560   3.282 -0.2274 -0.9264  1.7437
16139TIP3    H269833   6.579   1.418   3.259  0.8249 -0.8469 -1.4860
16140TIP3   OH269834   4.107   3.012  17.036 -0.4610  0.4839  0.7325
16140TIP3    H169835   4.177   3.044  17.092 -0.8737  1.8566  0.5069
16140TIP3    H269836   4.139   3.025  16.947 -0.4357 -0.2345  0.6266
16141TIP3   OH269837   0.415   0.179  15.959  0.3129  0.4608  0.2792
16141TIP3    H169838   0.433   0.153  15.868  1.1212 -1.7119  0.9923
16141TIP3    H269839   0.320   0.181  15.965  0.2336 -0.4564 -0.3639
16142TIP3   OH269840   1.955   4.427  15.528 -0.7168  0.5304  0.3600
16142TIP3    H169841   2.013   4.412  15.603  1.5700  1.8023 -1.0580
16142TIP3    H269842   1.926   4.517  15.538 -1.2013  0.3970  0.1984
16143TIP3   OH269843   0.821   6.164   0.651  0.1110  0.3082  0.0991
16143TIP3    H169844   0.904   6.122   0.671 -0.4120  0.1254  2.1285
16143TIP3    H269845   0.818   6.168   0.555  1.4552 -1.6421 -0.0766
16144TIP3   OH269846   1.016   6.009  14.522  0.3129  0.1716 -0.0509
16144TIP3    H169847   0.984   5.919  14.514 -1.3279  0.7619 -0.5015
16144TIP3    H269848   1.004   6.047  14.435 -0.4580  1.2533  0.4969
16145TIP3   OH269849   5.616   4.069  16.870 -0.2235  0.3302  0.3421
16145TIP3    H169850   5.547   4.018  16.828  0.6005  0.6199 -1.4431
16145TIP3    H269851   5.572   4.147  16.903 -0.8827  0.1541 -0.1024
16146TIP3   OH269852   3.384   0.203  16.789  0.2026  0.1922 -0.0636
16146TIP3    H169853   3.413   0.175  16.702  0.9265  0.0091  0.2314
16146TIP3    H269854   3.289   0.190  16.788  0.5793 -3.5985  0.5026
16147TIP3   OH269855   4.135   2.588   3.701 -0.1623  0.0793 -0.4290
16147TIP3    H169856   4.111   2.507   3.746 -0.1478 -0.5355 -1.5049
16147TIP3    H269857   4.205   2.563   3.641 -1.1829  0.5610 -1.8706
16148TIP3   OH269858   3.909   2.971   4.002  0.3277  0.6344  0.2246
16148TIP3    H169859   3.905   2.888   3.955 -0.2656 -0.0989  1.5325
16148TIP3    H269860   3.976   3.022   3.956  0.4944 -0.4524 -0.7610
16149TIP3   OH269861   1.888   5.528  14.391 -0.5367  0.0181 -0.3518
16149TIP3    H169862   1.980   5.552  14.383  0.0460 -0.8336  2.5444
16149TIP3    H269863   1.870   5.533  14.485 -2.5167 -3.0247 -0.4204
16150TIP3   OH269864   2.570   6.648  13.077  0.1765 -0.2074 -0.4150
16150TIP3    H169865   2.579   6.613  12.988  0.2563  2.1514 -1.4109
16150TIP3    H269866   2.636   6.718  13.082 -0.9748  0.8539  0.8755
16151TIP3   OH269867   3.680   3.416  15.075  0.0235  0.4096 -0.0896
16151TIP3    H169868   3.754   3.356  15.066  1.5741  2.2543 -0.5810
16151TIP3    H269869   3.605   3.361  15.095  0.9423 -1.8867 -2.3717
16152TIP3   OH269870   2.090   5.914  16.689  0.0018 -0.1277  0.3657
16152TIP3    H169871   2.092   5.988  16.629  1.3796  0.6036  1.2495
16152TIP3    H269872   2.014   5.929  16.745 -0.3850 -0.0009 -0.1883
16153TIP3   OH269873   2.701   0.561   2.234  0.3538 -1.0562 -0.2073
16153TIP3    H169874   2.726   0.644   2.192 -0.7938 -0.2907  0.5592
16153TIP3    H269875   2.768   0.548   2.301 -0.5193  0.3620  1.0362
16154TIP3   OH269876   4.680   6.268   0.538 -0.5899  0.2432  0.1391
16154TIP3    H169877   4.711   6.270   0.448  1.2410 -0.4006  0.7077
16154TIP3    H269878   4.586   6.285   0.532 -0.6973 -0.8008 -1.9788
16155TIP3   OH269879   5.814   2.709   4.736 -0.2658 -0.0279  0.5435
16155TIP3    H169880   5.857   2.691   4.820  0.8496  1.9132  0.4397
16155TIP3    H269881   5.772   2.794   4.748 -1.4566 -0.4463 -0.3930
16156TIP3   OH269882   6.258   0.752   2.273 -0.3207 -0.4716 -0.3291
16156TIP3    H169883   6.266   0.829   2.218 -0.1780 -0.7140 -0.6504
16156TIP3    H269884   6.268   0.678   2.213 -1.0816 -0.7481 -0.1268
16157TIP3   OH269885   4.841   1.799   2.035  0.5031  0.0636 -0.2114
16157TIP3    H169886   4.794   1.765   1.959  1.3719 -1.1221 -0.2500
16157TIP3    H269887   4.790   1.874   2.063 -0.2559  0.0555 -1.5006
16158TIP3   OH269888   2.167   4.082  16.331  0.0693 -0.8327  1.2017
16158TIP3    H169889   2.140   4.054  16.244  1.9089  1.4078 -0.1944
16158TIP3    H269890   2.218   4.008  16.365  0.5301 -1.1978 -0.2304
16159TIP3   OH269891   0.790   5.243  14.150  0.3009  0.1682 -0.1713
16159TIP3    H169892   0.779   5.168  14.210 -0.5563  0.3337 -0.1025
16159TIP3    H269893   0.805   5.318  14.208  0.7591  0.1139 -0.2216
16160TIP3   OH269894   2.436   0.488  16.816  0.1022  0.1258  0.8500
16160TIP3    H169895   2.427   0.419  16.882 -1.3999 -0.9939 -0.4507
16160TIP3    H269896   2.491   0.554  16.858  0.4999 -1.2577  2.6272
16161TIP3   OH269897   2.099   5.421   1.408 -0.4839  0.0987  0.0218
16161TIP3    H169898   2.165   5.393   1.472 -1.2562 -0.7240  0.4828
16161TIP3    H269899   2.042   5.480   1.457 -0.1820  0.7051 -0.3425
16162TIP3   OH269900   3.151   5.447  16.105  0.3581 -0.2510 -0.0784
16162TIP3    H169901   3.082   5.508  16.130  0.1575 -0.9388  1.1161
16162TIP3    H269902   3.231   5.486  16.139  0.1995 -0.7476  0.8965
16163TIP3   OH269903   4.792   1.377   4.662  0.0643 -0.3508 -0.7782
16163TIP3    H169904   4.732   1.397   4.590 -1.7186 -2.2121  0.1033
16163TIP3    H269905   4.766   1.436   4.733  0.2273 -0.1840 -0.8554
16164TIP3   OH269906   3.180   1.687   1.138  0.0551  0.0207 -0.1301
16164TIP3    H169907   3.164   1.620   1.071  1.0083 -1.1131  0.7505
16164TIP3    H269908   3.155   1.646   1.220 -0.5595  1.2143  0.3148
16165TIP3   OH269909   3.148   5.930  17.371 -0.0370  0.0461 -0.2382
16165TIP3    H169910   3.186   5.890  17.450 -0.5952 -1.2112 -0.5826
16165TIP3    H269911   3.177   5.873  17.299 -0.8928  0.2226 -0.7334
16166TIP3   OH269912   3.293   5.396   3.444 -0.2724  0.3546  0.7898
16166TIP3    H169913   3.246   5.457   3.500 -0.3350 -0.8493  2.1202
16166TIP3    H269914   3.381   5.391   3.482 -0.2776 -0.3896  0.7266
16167TIP3   OH269915   1.331   3.909  11.724  0.3235  0.5124  0.1825
16167TIP3    H169916   1.412   3.858  11.725  0.8386  1.3137  0.8841
16167TIP3    H269917   1.327   3.947  11.636  0.6199  0.3243  0.0874
16168TIP3   OH269918   2.049   6.711  17.224  0.9674 -0.0534 -0.2097
16168TIP3    H169919   2.142   6.691  17.218  0.9568 -0.3588  0.5194
16168TIP3    H269920   2.023   6.678  17.310  0.3563  0.7268 -0.0864
16169TIP3   OH269921   0.941   0.447  17.128 -0.0532  0.2805 -0.2032
16169TIP3    H169922   0.890   0.508  17.182  0.5483 -0.0933  0.7984
16169TIP3    H269923   0.878   0.414  17.064 -1.1191 -0.2458  1.0743
16170TIP3   OH269924   5.435   0.829  16.369  0.4912 -0.5340 -0.1902
16170TIP3    H169925   5.423   0.735  16.356  0.9922 -0.5187 -0.8133
16170TIP3    H269926   5.430   0.866  16.280  1.9144 -0.1595 -0.1325
16171TIP3   OH269927   2.822   0.087   4.585 -0.3739 -0.1564 -0.1836
16171TIP3    H169928   2.759   0.148   4.621 -0.6883  0.4991 -1.7497
16171TIP3    H269929   2.769   0.014   4.553 -0.1325 -0.5904  0.3919
16172TIP3   OH269930   3.888   6.251   5.335 -0.1984  0.8424  0.2857
16172TIP3    H169931   3.867   6.325   5.278  0.0050  0.8173  0.1774
16172TIP3    H269932   3.906   6.179   5.274 -1.7424  0.3161  0.3846
16173TIP3   OH269933   4.009   4.424  15.406  0.2476  0.5781  0.3868
16173TIP3    H169934   3.948   4.496  15.417  0.4116  0.5909  1.3299
16173TIP3    H269935   4.008   4.379  15.490  2.9112  1.6681  1.1064
16174TIP3   OH269936   5.197   0.038  14.107 -0.0965 -0.5934 -0.4932
16174TIP3    H169937   5.255   0.108  14.139 -2.3723  0.3839  1.7966
16174TIP3    H269938   5.160   0.073  14.026 -1.0005  0.8156  0.4802
16175TIP3   OH269939   2.919   0.468   5.386  0.1257  0.8475 -0.1690
16175TIP3    H169940   2.833   0.427   5.372 -0.2027  1.9060 -1.4654
16175TIP3    H269941   2.945   0.499   5.299  0.5159  3.0827  0.6757
16176TIP3   OH269942   0.623   3.616  15.781 -0.4683 -0.0561  0.2088
16176TIP3    H169943   0.623   3.548  15.714  0.8641 -0.1663  0.2897
16176TIP3    H269944   0.642   3.570  15.862  4.0176  0.6671 -0.1667
16177TIP3   OH269945   1.580   3.454   3.906 -0.3344 -0.1246 -0.2573
16177TIP3    H169946   1.636   3.517   3.951 -0.3567  0.2176 -0.7068
16177TIP3    H269947   1.492   3.490   3.914 -0.6890 -1.2251  1.4473
16178TIP3   OH269948   1.916   0.663  12.838 -0.0013 -0.4267 -0.1639
16178TIP3    H169949   1.872   0.686  12.756  0.5728 -0.1826 -0.4053
16178TIP3    H269950   1.875   0.719  12.904  0.8188  0.7283 -0.6041
16179TIP3   OH269951   2.166   4.428   0.949 -0.5655 -0.5310  0.3390
16179TIP3    H169952   2.175   4.524   0.948 -1.9996 -0.3505  1.7095
16179TIP3    H269953   2.161   4.405   0.856 -1.6499  0.8874  0.0021
16180TIP3   OH269954   0.675   4.034  12.382 -0.4707  0.1732 -0.2577
16180TIP3    H169955   0.644   3.994  12.463  0.9001  0.2194  0.3118
16180TIP3    H269956   0.655   3.969  12.314  1.3581 -1.3579  0.5870
16181TIP3   OH269957   3.155   2.940   1.302 -0.0086 -0.4006  0.9390
16181TIP3    H169958   3.076   2.966   1.255 -0.7627 -2.6388  0.8149
16181TIP3    H269959   3.214   2.906   1.234  1.3069  1.6600  0.9710
16182TIP3   OH269960   6.427   5.748   0.708 -0.2324 -0.0526 -0.2912
16182TIP3    H169961   6.483   5.758   0.632  0.5218 -1.4986  0.0554
16182TIP3    H269962   6.350   5.803   0.689  0.8451  1.2070 -1.1752
16183TIP3   OH269963   1.550   4.912  16.468  0.6897 -0.3739  0.1394
16183TIP3    H169964   1.536   4.855  16.544  0.1350 -1.1917 -0.5483
16183TIP3    H269965   1.562   4.851  16.395  3.1803  0.3543 -0.1490
16184TIP3   OH269966   3.780   2.305  12.348 -0.5667 -0.1695  0.1006
16184TIP3    H169967   3.716   2.272  12.284 -0.2826 -0.1731 -0.1877
16184TIP3    H269968   3.730   2.318  12.428 -0.9396 -0.1239 -0.1369
16185TIP3   OH269969   5.250   3.785  14.679 -0.6251  0.3018 -0.4783
16185TIP3    H169970   5.155   3.794  14.682 -0.7727 -1.1801  1.2240
16185TIP3    H269971   5.265   3.693  14.659  0.3593 -0.1189  1.8353
16186TIP3   OH269972   1.082   2.834  15.096  0.1280  0.3345 -0.3168
16186TIP3    H169973   1.009   2.892  15.119 -0.3875 -0.5380  0.3604
16186TIP3    H269974   1.149   2.892  15.062 -0.4127  1.3137  0.2250
16187TIP3   OH269975   3.259   0.357  12.863  0.7362 -0.1784 -0.8878
16187TIP3    H169976   3.171   0.330  12.835  1.0366 -0.0726 -1.9929
16187TIP3    H269977   3.244   0.438  12.913  0.1441 -0.5863 -0.3845
16188TIP3   OH269978   5.449   2.004  15.800  0.3025 -0.4478  0.4649
16188TIP3    H169979   5.533   1.969  15.829  0.3354 -0.5142  0.2908
16188TIP3    H269980   5.471   2.066  15.730  0.1805 -0.7535  0.1538
16189TIP3   OH269981   6.288   1.973  16.927 -0.4351  0.1785  0.3001
16189TIP3    H169982   6.296   1.978  16.832 -0.4085  0.6932  0.3240
16189TIP3    H269983   6.201   2.009  16.945 -0.6632 -0.4277  0.4340
16190TIP3   OH269984   4.948   0.976  14.269  0.1164 -0.1535  0.0762
16190TIP3    H169985   4.901   1.059  14.267  2.3641  1.2015 -1.2215
16190TIP3    H269986   4.881   0.909  14.261 -1.8431  1.4687  1.7534
16191TIP3   OH269987   5.146   1.596   4.225  0.4489 -0.2113  0.1233
16191TIP3    H169988   5.195   1.519   4.197  1.1579  0.0621  0.5894
16191TIP3    H269989   5.210   1.649   4.272  0.2602  1.1817 -1.1013
16192TIP3   OH269990   3.836   6.195   3.299 -0.2809  0.2238 -0.5074
16192TIP3    H169991   3.768   6.262   3.292 -0.7277 -0.3192 -1.5970
16192TIP3    H269992   3.801   6.131   3.361 -0.8605 -0.1524 -1.2148
16193TIP3   OH269993   0.833   0.098  12.132 -0.0829  0.0619  0.2280
16193TIP3    H169994   0.768   0.135  12.192 -0.1113 -1.5689  1.2737
16193TIP3    H269995   0.909   0.155  12.141  0.2531 -0.6428  2.6067
16194TIP3   OH269996   1.178   5.360  12.413 -0.1129 -0.2683  0.8876
16194TIP3    H169997   1.128   5.355  12.494  0.8391  1.0199  1.5869
16194TIP3    H269998   1.200   5.453  12.404 -0.6146 -0.3005 -1.1185
16195TIP3   OH269999   4.066   4.063   5.098  0.4813 -0.7313  0.6891
16195TIP3    H170000   4.156   4.058   5.065  0.6009 -0.0218  0.8750
16195TIP3    H270001   4.073   4.116   5.178 -0.0831 -0.7779  0.7747
16196TIP3   OH270002   2.486   4.652   2.059  0.7061 -0.3256 -0.5002
16196TIP3    H170003   2.522   4.733   2.094 -1.5232  1.6362 -2.3479
16196TIP3    H270004   2.443   4.610   2.133  1.8315  0.2104  0.4753
16197TIP3   OH270005   6.315   0.551  15.951  0.2496  0.1852 -0.2486
16197TIP3    H170006   6.329   0.554  16.046 -0.0002  0.9218 -0.2309
16197TIP3    H270007   6.223   0.575  15.940 -0.1718 -1.4947 -0.5766
16198TIP3   OH270008   1.062   5.525   0.904  0.3020  0.0682 -0.9279
16198TIP3    H170009   1.130   5.471   0.864 -0.0749  0.6951 -2.5336
16198TIP3    H270010   1.034   5.476   0.981  3.4380  0.4204  0.5590
16199TIP3   OH270011   1.713   3.674  12.056 -0.6493 -0.4083 -0.3937
16199TIP3    H170012   1.777   3.737  12.021 -2.0594  1.7619  0.7075
16199TIP3    H270013   1.673   3.719  12.130 -0.0730 -3.5821  2.0441
16200TIP3   OH270014   4.937   4.020  15.688  0.0782 -0.1766 -0.0328
16200TIP3    H170015   5.017   3.989  15.732  0.3471 -0.2583 -0.5651
16200TIP3    H270016   4.875   4.034  15.759  0.7948  0.5782  0.4688
16201TIP3   OH270017   4.237   3.031  13.542  0.1533  0.1383  0.6126
16201TIP3    H170018   4.259   3.102  13.602  1.8152  0.0931  0.1215
16201TIP3    H270019   4.270   2.952  13.585 -0.6604 -0.1957  0.6378
16202TIP3   OH270020   0.540   2.527  10.911  0.0517  0.1222  0.6452
16202TIP3    H170021   0.485   2.506  10.836 -0.0236  3.1523 -0.2804
16202TIP3    H270022   0.510   2.468  10.980 -2.1122 -0.5354 -0.7579
16203TIP3   OH270023   4.309   2.789   2.022  0.3939 -0.0784  0.9518
16203TIP3    H170024   4.331   2.865   2.076 -0.1527 -1.2494  2.8871
16203TIP3    H270025   4.255   2.826   1.952 -1.2028  1.1617  2.7307
16204TIP3   OH270026   6.775   1.400   0.874  0.1741 -0.3404  0.4860
16204TIP3    H170027   6.761   1.477   0.930 -0.2075 -0.8423  1.0882
16204TIP3    H270028   6.689   1.379   0.840 -0.1942 -1.9418  2.2440
16205TIP3   OH270029   0.552   0.187   4.333  0.2658  0.3528 -0.0250
16205TIP3    H170030   0.488   0.116   4.329 -0.2427  0.8112 -0.1613
16205TIP3    H270031   0.537   0.237   4.253  0.2818  0.8979  0.3055
16206TIP3   OH270032   3.986   0.945   3.804  0.1394  0.5493 -0.2860
16206TIP3    H170033   4.051   1.016   3.803  0.5707  0.1674  0.3603
16206TIP3    H270034   3.983   0.915   3.713  0.0346  1.3170 -0.5430
16207TIP3   OH270035   5.594   2.288   3.724 -0.5350  0.4933  0.1177
16207TIP3    H170036   5.615   2.379   3.705  1.0040  0.0562 -0.3957
16207TIP3    H270037   5.529   2.293   3.794 -0.8596  1.9840 -0.2517
16208TIP3   OH270038   0.828   1.557  14.676 -0.3868 -0.3553  0.1982
16208TIP3    H170039   0.758   1.599  14.625 -0.2756 -1.0135 -0.5231
16208TIP3    H270040   0.796   1.467  14.690  1.3960 -1.5218 -2.4354
16209TIP3   OH270041   2.548   2.986   4.184  0.6042  0.4005  0.2921
16209TIP3    H170042   2.541   3.039   4.105  0.4217 -0.0595 -0.0063
16209TIP3    H270043   2.637   2.999   4.215  0.7860  0.2945 -0.1906
16210TIP3   OH270044   5.155   4.839   1.749  0.7837 -0.1576 -0.2909
16210TIP3    H170045   5.115   4.868   1.667 -2.4296  0.8391  1.4499
16210TIP3    H270046   5.123   4.749   1.761 -2.7206  1.1494  1.8714
16211TIP3   OH270047   5.947   0.959   1.007 -0.0709  0.4483  0.1243
16211TIP3    H170048   6.013   0.893   1.027  0.3811  0.1484 -2.0707
16211TIP3    H270049   5.955   0.974   0.913 -0.2298  3.5735  0.4804
16212TIP3   OH270050   2.053   5.074  15.631 -0.1425  0.6782 -0.2026
16212TIP3    H170051   2.006   5.074  15.547 -0.1587 -2.6629 -0.3434
16212TIP3    H270052   2.024   5.154  15.674 -1.9988  1.3187 -2.3919
16213TIP3   OH270053   4.373   5.444   3.867  0.4480  0.4249  0.2657
16213TIP3    H170054   4.383   5.521   3.923  1.6174 -0.3141  1.1145
16213TIP3    H270055   4.285   5.412   3.885  0.2096  1.1609  0.4287
16214TIP3   OH270056   5.550   6.402  17.345  0.0385  0.8950  0.8597
16214TIP3    H170057   5.514   6.432  17.429  0.7257  2.9196  0.5038
16214TIP3    H270058   5.643   6.426  17.349  0.3220  0.0288 -0.0698
16215TIP3   OH270059   5.350   6.673   3.714 -1.2163 -0.4699  0.4830
16215TIP3    H170060   5.327   6.766   3.720 -2.0905 -0.6632  0.2291
16215TIP3    H270061   5.321   6.646   3.627  0.3739 -0.6399 -0.0404
16216TIP3   OH270062   3.611   2.339  10.686 -0.2121  0.0090  0.1286
16216TIP3    H170063   3.579   2.273  10.624 -2.0596 -0.2747  1.3068
16216TIP3    H270064   3.707   2.335  10.678 -0.3608 -0.7776 -1.8759
16217TIP3   OH270065   3.495   6.263  14.817  0.2119 -0.0405 -0.1407
16217TIP3    H170066   3.463   6.292  14.903  0.5811 -1.0532  0.3594
16217TIP3    H270067   3.590   6.275  14.821  0.6341 -2.9681  0.8080
16218TIP3   OH270068   3.340   3.172  12.584 -0.5249  1.2934 -0.6358
16218TIP3    H170069   3.314   3.260  12.610 -2.0778  0.4559  0.8521
16218TIP3    H270070   3.370   3.132  12.666 -0.8061  0.1288 -1.0888
16219TIP3   OH270071   0.164   0.931  17.393  0.0234  0.0635 -0.1356
16219TIP3    H170072   0.115   0.971  17.321 -2.7193 -1.3111  0.8231
16219TIP3    H270073   0.251   0.916  17.357 -1.3011 -0.8947 -3.3440
16220TIP3   OH270074   5.967   1.736  10.766  0.8028 -0.2014  0.4842
16220TIP3    H170075   5.969   1.687  10.848  0.5014 -0.4647  0.3374
16220TIP3    H270076   5.924   1.677  10.704  1.5115 -0.2220 -0.0068
16221TIP3   OH270077   1.305   0.612   4.163  0.8416 -0.0862 -0.1332
16221TIP3    H170078   1.280   0.557   4.088  1.0550 -0.6960  0.2369
16221TIP3    H270079   1.264   0.569   4.238  1.8041 -0.2745  0.2902
16222TIP3   OH270080   6.622   5.544   5.782 -0.1021  0.0256  0.1689
16222TIP3    H170081   6.692   5.479   5.784 -0.7608 -0.7176 -0.1791
16222TIP3    H270082   6.649   5.611   5.846  2.2087  1.1444 -1.8253
16223TIP3   OH270083   4.609   4.632   6.819 -0.1007  0.4982 -0.0588
16223TIP3    H170084   4.585   4.542   6.842  0.3364 -0.0001 -1.4842
16223TIP3    H270085   4.528   4.682   6.831 -0.1914  0.0547  1.3536
16224TIP3   OH270086   2.179   3.372   2.835  0.3386  0.3447  0.2327
16224TIP3    H170087   2.218   3.313   2.771 -1.0435 -0.7289  0.3202
16224TIP3    H270088   2.243   3.378   2.905  0.0492 -2.1160  0.8219
16225TIP3   OH270089   1.123   1.805   5.009  0.2144  0.4350 -0.0980
16225TIP3    H170090   1.122   1.717   5.047 -0.5831  1.0530  1.4034
16225TIP3    H270091   1.164   1.794   4.923 -0.8277 -1.5806 -0.3918
16226TIP3   OH270092   1.245   3.057   4.882 -0.1245  0.0784 -0.6736
16226TIP3    H170093   1.339   3.076   4.882  0.4700 -2.5213 -1.3839
16226TIP3    H270094   1.238   2.972   4.839 -2.5295 -1.0479  1.7042
16227TIP3   OH270095   0.326   5.629  13.099 -0.5765 -0.3062 -0.0824
16227TIP3    H170096   0.279   5.621  13.016  0.8923  0.0046 -0.9869
16227TIP3    H270097   0.379   5.709  13.089 -0.7369  0.0127  1.3505
16228TIP3   OH270098   2.788   5.209   5.022  0.6245 -0.0576  0.6094
16228TIP3    H170099   2.748   5.123   5.009 -0.4138  0.6345 -1.0057
16228TIP3    H270100   2.749   5.241   5.104  2.2821 -1.7593  2.1645
16229TIP3   OH270101   3.935   6.561  15.974 -0.1374  1.1089  0.3849
16229TIP3    H170102   3.885   6.591  15.898 -0.5173  0.7108  0.4743
16229TIP3    H270103   3.917   6.626  16.042 -2.4380 -0.2489  1.1635
16230TIP3   OH270104   3.366   3.018   4.748  0.0078  0.4196  0.5413
16230TIP3    H170105   3.374   2.974   4.833 -1.0081  0.3213  0.5948
16230TIP3    H270106   3.276   3.001   4.720  1.0206 -1.8294 -1.8337
16231TIP3   OH270107   0.563   3.018   5.162  0.0912  0.2454 -0.4274
16231TIP3    H170108   0.497   3.076   5.200  1.1552  1.3121 -0.1482
16231TIP3    H270109   0.599   3.068   5.089  0.1666 -0.5775 -0.9627
16232TIP3   OH270110   1.867   4.712  15.379 -0.2308 -0.2796 -0.5540
16232TIP3    H170111   1.958   4.732  15.360 -0.5180  1.2078 -0.5225
16232TIP3    H270112   1.841   4.777  15.444 -0.4280 -2.7214  1.9840
16233TIP3   OH270113   4.610   5.428   1.059 -0.1745 -0.1961 -0.4600
16233TIP3    H170114   4.607   5.414   0.965 -0.8598 -0.5516 -0.3963
16233TIP3    H270115   4.682   5.489   1.073  0.6872 -1.0419 -1.1026
16234TIP3   OH270116   2.748   6.203   0.444  0.3393  0.0395  0.4413
16234TIP3    H170117   2.668   6.189   0.394  1.1555 -0.5871 -0.7307
16234TIP3    H270118   2.805   6.251   0.385  2.2943 -2.9178 -0.3046
16235TIP3   OH270119   2.658   0.885  12.225  0.1534 -0.2988  0.0077
16235TIP3    H170120   2.569   0.867  12.254  0.3459 -0.5916  0.4259
16235TIP3    H270121   2.695   0.941  12.293  1.1828 -2.4073  1.2698
16236TIP3   OH270122   3.932   3.855   0.869 -0.0168  0.1272  0.2518
16236TIP3    H170123   4.003   3.895   0.920  0.2586 -1.5070  1.2089
16236TIP3    H270124   3.879   3.929   0.841  1.7630  1.3653 -0.0451
16237TIP3   OH270125   4.386   6.556  13.872 -0.5080 -0.3681 -0.1846
16237TIP3    H170126   4.394   6.650  13.888  0.5029 -0.5956  0.7822
16237TIP3    H270127   4.424   6.543  13.785  4.0310 -0.4505  1.5284
16238TIP3   OH270128   4.460   3.217  12.972  0.4003  0.6143  0.3202
16238TIP3    H170129   4.389   3.154  12.961 -0.9432  2.2227 -0.7557
16238TIP3    H270130   4.523   3.173  13.028 -1.2821 -1.0164  1.0309
16239TIP3   OH270131   3.855   1.754  12.765 -0.1654  0.5037  0.3570
16239TIP3    H170132   3.798   1.775  12.691  0.9424  0.6789 -0.4639
16239TIP3    H270133   3.911   1.684  12.733 -0.7779 -0.6025  1.6005
16240TIP3   OH270134   2.922   6.047   0.605  0.6966  0.1991 -0.1744
16240TIP3    H170135   2.880   6.100   0.536  1.9598  0.9810 -0.3628
16240TIP3    H270136   2.869   5.968   0.609  0.6559  0.0801 -2.1475
16241TIP3   OH270137   4.278   2.120  15.570 -0.4596  0.0246 -0.0019
16241TIP3    H170138   4.371   2.101  15.585 -0.6890  0.5026  2.4838
16241TIP3    H270139   4.236   2.033  15.566 -0.0564 -0.1748  0.0743
16242TIP3   OH270140   6.260   0.587  13.413  0.4593  0.1489 -0.5361
16242TIP3    H170141   6.244   0.525  13.342  2.1319  1.2401 -1.9582
16242TIP3    H270142   6.267   0.533  13.491 -1.7081 -1.0704 -1.1123
16243TIP3   OH270143   3.904   1.840   3.090  0.0378  0.0354  0.1418
16243TIP3    H170144   3.941   1.919   3.053 -0.8544  0.1878 -0.4726
16243TIP3    H270145   3.978   1.795   3.131  0.8332  0.4376 -0.8233
16244TIP3   OH270146   1.110   3.293  15.444  0.3976 -0.0575  0.2091
16244TIP3    H170147   1.114   3.333  15.357  1.6885  1.7315  1.0264
16244TIP3    H270148   1.107   3.367  15.504 -2.1224 -1.2311  1.6991
16245TIP3   OH270149   1.531   5.017   3.777  0.6662 -0.0748  0.0966
16245TIP3    H170150   1.547   5.055   3.691 -0.9271 -0.3421 -0.3372
16245TIP3    H270151   1.439   4.991   3.776  1.1925 -2.1675  1.0742
16246TIP3   OH270152   2.318   5.723   6.159  0.6182 -0.5551 -0.0521
16246TIP3    H170153   2.276   5.797   6.115  0.3518 -1.5355 -1.5519
16246TIP3    H270154   2.380   5.762   6.219 -0.5253  0.9010  0.2422
16247TIP3   OH270155   3.378   0.926  16.779  0.2792 -0.2931  0.0850
16247TIP3    H170156   3.457   0.884  16.745  0.9188  0.9413 -0.0166
16247TIP3    H270157   3.411   0.995  16.837 -0.7688 -1.8701  2.7269
16248TIP3   OH270158   2.263   2.725  14.627 -0.5905  0.4260  0.1735
16248TIP3    H170159   2.331   2.732  14.694  0.7117 -2.8860 -0.6247
16248TIP3    H270160   2.181   2.743  14.673  0.5635  2.0173  1.7242
16249TIP3   OH270161   0.074   5.966   3.373 -0.3207  0.9510 -0.1397
16249TIP3    H170162   0.137   5.929   3.312  2.9074  0.8288  2.9193
16249TIP3    H270163   0.036   5.890   3.417 -0.5925  1.0764 -0.1565
16250TIP3   OH270164   5.377   5.957  14.350  0.3357 -0.2729 -0.0491
16250TIP3    H170165   5.309   5.943  14.416  0.6742  1.1752  0.6474
16250TIP3    H270166   5.416   6.041  14.374  2.1124 -0.8914 -0.6687
16251TIP3   OH270167   2.821   1.542   2.368 -0.3793  0.0568  0.6284
16251TIP3    H170168   2.775   1.476   2.317  0.4889  1.3932 -2.0899
16251TIP3    H270169   2.762   1.562   2.441 -2.6616 -0.5503 -0.9370
16252TIP3   OH270170   3.004   6.386   2.525  0.5803 -0.3883  0.5142
16252TIP3    H170171   2.941   6.404   2.595  0.2148  1.1310 -0.1696
16252TIP3    H270172   3.059   6.464   2.522 -0.4891  0.3639 -1.9932
16253TIP3   OH270173   2.460   5.920  17.160  0.5607  0.7175 -0.1788
16253TIP3    H170174   2.529   5.855  17.176 -0.3132 -0.0453  0.6309
16253TIP3    H270175   2.469   5.941  17.067  0.0602 -1.5489 -0.8108
16254TIP3   OH270176   5.531   2.970  15.417  0.1498  0.3704 -0.1150
16254TIP3    H170177   5.451   3.022  15.423 -1.2558 -1.7284  0.6862
16254TIP3    H270178   5.526   2.926  15.332  0.5882  0.4367 -0.1793
16255TIP3   OH270179   3.715   1.098   4.539 -0.0576 -0.1565 -0.1789
16255TIP3    H170180   3.761   1.018   4.563  1.3128  0.7055  0.1631
16255TIP3    H270181   3.633   1.068   4.499  1.6977 -1.8047 -2.8359
16256TIP3   OH270182   2.160   1.452   5.251 -0.3050  0.6994  0.2247
16256TIP3    H170183   2.155   1.394   5.327  0.2048  0.0802 -0.2050
16256TIP3    H270184   2.112   1.406   5.183 -0.4094  1.0637  0.0499
16257TIP3   OH270185   2.182   1.171   0.342  0.1356 -0.1713  1.3987
16257TIP3    H170186   2.141   1.170   0.256 -0.2016  3.6493  1.3010
16257TIP3    H270187   2.110   1.152   0.403 -0.1268 -0.6436  0.9431
16258TIP3   OH270188   1.619   3.315  11.630 -0.5067 -0.1045 -0.4624
16258TIP3    H170189   1.713   3.316  11.649 -0.9270 -0.5797  1.9620
16258TIP3    H270190   1.583   3.388  11.682 -1.7046 -1.1290  0.2028
16259TIP3   OH270191   5.295   6.522  12.897 -0.1565 -0.0256  0.1960
16259TIP3    H170192   5.229   6.569  12.947 -0.4807 -0.1260 -0.1294
16259TIP3    H270193   5.344   6.472  12.962  1.3474  2.0821  0.7935
16260TIP3   OH270194   6.237   0.761  15.276 -0.6433 -0.0589 -0.2073
16260TIP3    H170195   6.197   0.676  15.293  1.1023 -1.2999 -1.8035
16260TIP3    H270196   6.166   0.815  15.243 -1.6763 -1.0761  0.2611
16261TIP3   OH270197   0.442   4.848  14.240  0.7032  0.6799  0.2450
16261TIP3    H170198   0.444   4.812  14.151  1.2456  0.4108  0.3617
16261TIP3    H270199   0.533   4.872  14.258  0.9960 -1.1448  1.4783
16262TIP3   OH270200   2.375   0.787  10.621  0.3212  0.0580 -0.0203
16262TIP3    H170201   2.437   0.715  10.608  0.9709  0.4421  0.8676
16262TIP3    H270202   2.363   0.792  10.715 -1.4073 -0.2691 -0.1742
16263TIP3   OH270203   1.474   4.904  14.288  0.0658  0.2347  0.1644
16263TIP3    H170204   1.530   4.881  14.213 -0.5284 -1.6400  0.2330
16263TIP3    H270205   1.514   4.982  14.325  2.2083 -0.6135 -0.2394
16264TIP3   OH270206   6.754   6.501  16.624  0.3382 -0.7815 -0.5641
16264TIP3    H170207   6.711   6.487  16.540 -0.8282  1.2546 -0.3842
16264TIP3    H270208   6.775   6.595  16.625 -0.2468 -0.6166  1.6530
16265TIP3   OH270209   3.267   3.097   0.427  0.3369  0.1387 -0.0724
16265TIP3    H170210   3.292   3.057   0.344 -0.0690  0.7471 -0.4993
16265TIP3    H270211   3.182   3.138   0.409 -0.6002 -1.2113  1.1324
16266TIP3   OH270212   2.904   3.253   4.904  0.0975 -0.0668  0.1631
16266TIP3    H170213   2.860   3.218   4.826  0.4014 -0.0818 -0.0042
16266TIP3    H270214   2.835   3.257   4.970 -0.1474 -0.1272 -0.0830
16267TIP3   OH270215   2.457   0.847   2.350  0.1804 -0.2773  0.2272
16267TIP3    H170216   2.521   0.816   2.415  0.0501  0.8325  0.9124
16267TIP3    H270217   2.468   0.788   2.276  1.3063 -0.7259  0.7230
16268TIP3   OH270218   3.864   4.125   1.878 -0.1738  0.5055 -0.3758
16268TIP3    H170219   3.953   4.118   1.842 -0.2035 -0.5934 -0.2439
16268TIP3    H270220   3.873   4.099   1.969 -0.4052  1.6914  0.0027
16269TIP3   OH270221   4.866   5.021  14.030 -0.5235  0.6016 -0.2068
16269TIP3    H170222   4.792   5.064  14.073  1.4043  2.3961  1.5383
16269TIP3    H270223   4.913   5.092  13.986  1.3039 -0.0993  0.5163
16270TIP3   OH270224   5.537   3.710   0.590 -0.8750  0.2099  0.0644
16270TIP3    H170225   5.575   3.630   0.554 -1.0678  0.0974  0.1119
16270TIP3    H270226   5.517   3.689   0.681 -1.0926  0.2553  0.0268
16271TIP3   OH270227   3.281   0.523  13.252 -0.8532 -0.0586 -0.0058
16271TIP3    H170228   3.356   0.464  13.255 -1.3582 -0.6963  0.7731
16271TIP3    H270229   3.292   0.573  13.171  0.1595 -0.4611 -0.1283
16272TIP3   OH270230   0.556   0.986  14.051  0.1392  0.3345  0.3012
16272TIP3    H170231   0.487   0.948  13.997  1.1884 -1.0476 -0.1484
16272TIP3    H270232   0.514   1.007  14.134 -0.8421 -0.3776  0.0002
16273TIP3   OH270233   4.315   1.340   0.357 -0.0886  0.3846 -0.2649
16273TIP3    H170234   4.249   1.291   0.405  0.1517 -0.7320 -1.0266
16273TIP3    H270235   4.307   1.309   0.267  2.9343 -1.5071 -0.0143
16274TIP3   OH270236   4.758   1.216   2.838 -0.1085 -0.0576  0.2713
16274TIP3    H170237   4.811   1.144   2.872  2.0970  0.8479 -1.0301
16274TIP3    H270238   4.697   1.175   2.777  0.1460 -0.9532  0.5991
16275TIP3   OH270239   0.408   3.919  12.528 -0.2723  0.1363  0.2467
16275TIP3    H170240   0.367   3.974  12.595 -2.6844 -0.8929 -0.3024
16275TIP3    H270241   0.416   3.833  12.569 -1.5573 -0.4431 -0.6900
16276TIP3   OH270242   4.853   2.385   4.864  0.0008  0.2526 -0.0387
16276TIP3    H170243   4.913   2.311   4.872 -0.0281  0.2731  0.3841
16276TIP3    H270244   4.830   2.388   4.771  0.1461 -0.1566 -0.0877
16277TIP3   OH270245   2.018   2.868   0.130  0.6118 -0.0739 -0.5739
16277TIP3    H170246   2.067   2.945   0.101  1.5477 -0.6933 -0.7139
16277TIP3    H270247   2.058   2.845   0.214  0.6014 -0.6224 -0.7150
16278TIP3   OH270248   6.120   4.533  16.763  0.3162  0.1113  0.1108
16278TIP3    H170249   6.209   4.504  16.787 -0.0280 -0.2945  0.9445
16278TIP3    H270250   6.093   4.473  16.694  0.0630 -0.8494  1.0145
16279TIP3   OH270251   3.028   3.448  15.767  0.5606 -0.1472 -0.1769
16279TIP3    H170252   2.974   3.379  15.728  1.4006  0.2474 -2.1498
16279TIP3    H270253   3.103   3.402  15.804  0.5784 -0.3968 -0.5199
16280TIP3   OH270254   3.025   0.852  13.973 -0.1873 -0.1964 -0.1404
16280TIP3    H170255   2.949   0.908  13.985  0.0755 -0.2411  2.3989
16280TIP3    H270256   2.991   0.774  13.930 -0.9955  0.9145 -1.6116
16281TIP3   OH270257   3.224   0.447  11.024  0.5487 -0.0074  0.0984
16281TIP3    H170258   3.164   0.483  10.958  1.1514  0.0575 -0.4228
16281TIP3    H270259   3.202   0.354  11.028  1.6329 -0.3665 -1.4516
16282TIP3   OH270260   2.003   0.942  14.422  0.3562  0.2472  0.3075
16282TIP3    H170261   1.933   0.920  14.362  0.6113 -0.8710  0.3947
16282TIP3    H270262   1.964   0.933  14.509  0.2157  1.0504  0.3348
16283TIP3   OH270263   3.512   2.600  14.249 -0.4945 -0.3642  0.7622
16283TIP3    H170264   3.555   2.624  14.167 -0.7810  0.9830  0.9802
16283TIP3    H270265   3.451   2.671  14.266  0.2989 -0.0764  2.6709
16284TIP3   OH270266   5.417   4.036  13.813 -0.2141  0.5179 -0.3456
16284TIP3    H170267   5.463   4.028  13.729 -0.2223 -0.2167 -0.2878
16284TIP3    H270268   5.324   4.029  13.791 -0.1681 -2.0490 -0.0745
16285TIP3   OH270269   0.140   6.073   0.161 -0.4550 -0.0509 -0.9052
16285TIP3    H170270   0.213   6.135   0.154 -0.1328 -0.5715 -2.5584
16285TIP3    H270271   0.066   6.126   0.190  0.3579  0.6373  0.0187
16286TIP3   OH270272   0.842   5.838   0.452 -0.4269 -0.8828 -0.3710
16286TIP3    H170273   0.809   5.898   0.519  1.4305  0.5255 -0.6503
16286TIP3    H270274   0.936   5.832   0.469  0.1133 -0.4618 -2.8530
16287TIP3   OH270275   1.414   0.051   5.212 -0.0140  0.3454 -0.2840
16287TIP3    H170276   1.439  -0.006   5.285  0.6860 -0.1729 -0.9060
16287TIP3    H270277   1.456   0.011   5.136 -0.8564  0.7934 -0.9984
16288TIP3   OH270278   6.322   1.689  13.493  0.6337 -0.0535 -0.5191
16288TIP3    H170279   6.334   1.667  13.400  1.8626  2.1436 -0.9296
16288TIP3    H270280   6.287   1.609  13.531 -0.2160 -0.9340 -2.9326
16289TIP3   OH270281   3.430   1.378  16.688 -0.2916  0.7192 -0.2262
16289TIP3    H170282   3.386   1.414  16.611  1.2026 -0.5180 -1.7390
16289TIP3    H270283   3.508   1.432  16.699  0.5444 -0.3278 -0.8409
16290TIP3   OH270284   5.091   0.098   0.870  0.6591  0.1241 -0.6742
16290TIP3    H170285   5.044   0.075   0.790  0.0610  1.5215 -0.7623
16290TIP3    H270286   5.166   0.149   0.840  0.6770  0.2751 -0.3789
16291TIP3   OH270287   0.985   1.656  14.442  0.4991  0.6043 -0.1304
16291TIP3    H170288   0.964   1.744  14.410 -1.9816  0.1005 -0.0798
16291TIP3    H270289   0.945   1.652  14.530  0.4460 -0.5980 -0.1856
16292TIP3   OH270290   1.000   0.987  12.039  0.0883  0.4740 -0.6175
16292TIP3    H170291   1.015   1.081  12.043 -0.8523  0.7082 -2.0214
16292TIP3    H270292   0.917   0.978  11.993 -0.0500 -1.0391 -0.1319
16293TIP3   OH270293   2.454   5.786  14.376  0.3288  0.0231  0.2284
16293TIP3    H170294   2.421   5.702  14.409  1.1377 -0.1667  0.5915
16293TIP3    H270295   2.485   5.766  14.288  1.0758 -0.2147  0.5328
16294TIP3   OH270296   2.731   4.579  16.913  0.0247  0.9512 -0.5201
16294TIP3    H170297   2.681   4.638  16.856 -0.9496  1.4149  0.7603
16294TIP3    H270298   2.748   4.630  16.992 -0.4238 -0.3122  0.4354
16295TIP3   OH270299   0.628   0.722   2.995 -0.1368 -0.0442  0.5215
16295TIP3    H170300   0.592   0.664   2.927  1.3557 -0.7226  0.2814
16295TIP3    H270301   0.555   0.733   3.057 -0.7888 -1.3279  0.0284
16296TIP3   OH270302   4.306   4.215   2.546  0.3290  0.6161  0.1133
16296TIP3    H170303   4.242   4.210   2.618  0.9131  0.8236  0.6542
16296TIP3    H270304   4.356   4.294   2.564 -0.0670  1.1417 -0.9970
16297TIP3   OH270305   6.555   1.119  17.367  0.0830 -0.6831  0.3910
16297TIP3    H170306   6.622   1.185  17.352 -1.4689  0.4890 -1.9154
16297TIP3    H270307   6.533   1.128  17.460  1.8667  0.0724  0.7850
16298TIP3   OH270308   0.014   2.889   3.320 -0.4061 -0.2992  0.4431
16298TIP3    H170309  -0.055   2.937   3.366 -0.0776  0.5437  0.0801
16298TIP3    H270310  -0.027   2.807   3.294 -1.0647 -0.1023  0.8359
16299TIP3   OH270311   3.070   4.083   0.914  0.5573 -0.3350  0.3438
16299TIP3    H170312   3.066   3.991   0.886 -0.4906 -0.2587  0.2039
16299TIP3    H270313   2.981   4.103   0.943  0.0060  1.4236 -2.1748
16300TIP3   OH270314   3.136   5.713  11.670  0.1063 -0.4552  0.2654
16300TIP3    H170315   3.198   5.680  11.605 -0.8659  0.6121 -1.2650
16300TIP3    H270316   3.065   5.649  11.669 -0.2056 -0.1098 -0.2181
16301TIP3   OH270317   0.179   6.712  12.033 -0.1231  0.2452  0.7414
16301TIP3    H170318   0.174   6.807  12.020 -0.1843  0.1566  0.0470
16301TIP3    H270319   0.096   6.680  11.998  0.5294 -0.2016 -0.4690
16302TIP3   OH270320   0.718   0.663   5.402 -0.8000  0.4107  0.0065
16302TIP3    H170321   0.725   0.589   5.462 -1.6965  0.6451  0.4217
16302TIP3    H270322   0.625   0.667   5.380 -0.4812  0.2800 -1.4783
16303TIP3   OH270323   6.221   3.960  16.433 -0.4502 -0.6261 -0.2977
16303TIP3    H170324   6.271   3.972  16.352 -0.7082 -0.4216 -0.4254
16303TIP3    H270325   6.154   3.897  16.411 -0.8072 -0.2267 -0.3695
16304TIP3   OH270326   0.536   3.032  17.023  0.0347  0.1576 -0.0521
16304TIP3    H170327   0.562   3.107  16.969 -0.6402  0.1646 -0.3811
16304TIP3    H270328   0.443   3.020  17.004 -0.3370  0.4293  1.4232
16305TIP3   OH270329   6.156   1.939   3.484  0.0914  0.6832 -0.4960
16305TIP3    H170330   6.238   1.911   3.524 -0.4059 -0.5024 -0.2637
16305TIP3    H270331   6.164   1.913   3.392 -1.6355 -3.5357  0.2788
16306TIP3   OH270332   3.502   1.648   2.772  0.5745  0.3595 -0.0330
16306TIP3    H170333   3.544   1.615   2.693 -0.6946  0.2564 -0.6965
16306TIP3    H270334   3.414   1.611   2.769  0.7822 -0.4005  1.9140
16307TIP3   OH270335   5.495   0.390   5.332  0.2619 -0.0926 -0.1036
16307TIP3    H170336   5.571   0.341   5.363 -0.3376 -1.7490 -1.1418
16307TIP3    H270337   5.511   0.480   5.361  2.6364 -0.3779 -0.3387
16308TIP3   OH270338   3.543   4.851  13.869 -0.1531 -0.2125 -0.8264
16308TIP3    H170339   3.613   4.885  13.926  0.2826 -1.2322 -0.7284
16308TIP3    H270340   3.529   4.761  13.900 -1.8675  0.1289 -0.5222
16309TIP3   OH270341   6.151   4.478  13.283 -0.1775  0.1509  0.0464
16309TIP3    H170342   6.191   4.505  13.200 -0.5709 -0.1077 -0.2258
16309TIP3    H270343   6.221   4.492  13.348 -0.8648  3.5525  0.2407
16310TIP3   OH270344   2.190   4.076   3.178 -0.3677  0.4851 -0.2015
16310TIP3    H170345   2.171   3.987   3.209  0.0862  1.0177  1.7083
16310TIP3    H270346   2.143   4.082   3.095  0.1816 -1.7772 -0.7553
16311TIP3   OH270347   4.005   4.852   2.000  0.5859 -0.0282 -0.0779
16311TIP3    H170348   4.076   4.862   2.063  1.9719 -2.2057 -1.1581
16311TIP3    H270349   3.961   4.771   2.027 -0.2723  0.2702 -0.5546
16312TIP3   OH270350   5.046   5.193   2.106  0.3954 -0.3761  0.6490
16312TIP3    H170351   5.032   5.135   2.181 -1.0909  0.4112  1.0123
16312TIP3    H270352   4.976   5.258   2.112  1.8970  1.3609  0.1392
16313TIP3   OH270353   5.223   6.066  13.010  0.0311  0.7915 -0.2309
16313TIP3    H170354   5.294   6.072  13.073 -0.1934 -0.2272  0.1384
16313TIP3    H270355   5.253   6.001  12.946 -1.1361 -0.7315  0.7136
16314TIP3   OH270356   4.565   5.859  13.872 -0.2446  0.4067 -0.1644
16314TIP3    H170357   4.552   5.925  13.940  0.1911  1.4125 -1.0303
16314TIP3    H270358   4.651   5.879  13.835 -0.3715 -0.2649 -0.8617
16315TIP3   OH270359   0.204   6.281  12.340  0.2733  0.0150  0.1412
16315TIP3    H170360   0.118   6.265  12.300  0.3489 -1.9020  0.6254
16315TIP3    H270361   0.260   6.212  12.305  1.5926  1.1169 -0.0054
16316TIP3   OH270362   5.199   3.648   2.903 -0.5313 -0.6699 -0.4200
16316TIP3    H170363   5.256   3.684   2.835  0.3305  0.0310  0.6400
16316TIP3    H270364   5.142   3.721   2.928  0.6364 -0.2243  1.1218
16317TIP3   OH270365   6.504   2.451   3.821 -0.9657 -0.5243  0.2695
16317TIP3    H170366   6.545   2.462   3.736 -0.6922 -0.2448  0.4352
16317TIP3    H270367   6.447   2.528   3.830 -1.5772 -0.9395  0.0148
16318TIP3   OH270368   1.894   5.680   3.156 -0.0774 -0.3214 -0.1259
16318TIP3    H170369   1.810   5.637   3.171  0.2985 -1.5690 -1.4630
16318TIP3    H270370   1.871   5.765   3.117 -0.7741  0.3686  1.6577
16319TIP3   OH270371   4.086   1.564   3.986 -0.3710  0.0729 -0.1823
16319TIP3    H170372   3.997   1.579   3.953 -0.5889  1.1518  0.8266
16319TIP3    H270373   4.125   1.651   3.989  0.7111 -0.3792 -0.5330
16320TIP3   OH270374   6.578   6.559   5.640  0.1441 -0.0311 -0.8352
16320TIP3    H170375   6.601   6.538   5.550  1.7035 -0.2231 -0.4247
16320TIP3    H270376   6.648   6.520   5.692 -0.8107 -0.0576  0.4764
16321TIP3   OH270377   6.305   2.688   4.085  0.7191  0.3475  0.4953
16321TIP3    H170378   6.276   2.687   3.994  0.7633  2.3003  0.4187
16321TIP3    H270379   6.393   2.728   4.081  1.2963 -0.8024  1.2608
16322TIP3   OH270380   3.305   2.670  15.279 -0.2281  0.1446  0.0239
16322TIP3    H170381   3.317   2.591  15.228  1.1972  0.1267  0.3494
16322TIP3    H270382   3.250   2.643  15.353  0.2252 -0.5278  0.1187
16323TIP3   OH270383   2.676   6.634  16.418 -0.9571  0.2584  0.0159
16323TIP3    H170384   2.711   6.592  16.497  0.7012  0.5862 -0.5041
16323TIP3    H270385   2.657   6.724  16.444 -3.0419 -0.3105  0.7197
16324TIP3   OH270386   4.648   0.244  15.226  0.0478  0.5075  0.1485
16324TIP3    H170387   4.614   0.166  15.183 -0.2199 -0.6000  2.2278
16324TIP3    H270388   4.570   0.292  15.253  0.2132  1.2243 -0.6001
16325TIP3   OH270389   3.182   4.031  16.555 -0.1204  0.1687 -0.5157
16325TIP3    H170390   3.196   4.055  16.646  1.0588  0.3432 -0.7334
16325TIP3    H270391   3.228   4.098  16.505  1.6619 -1.4573 -1.1746
16326TIP3   OH270392   1.613   1.933  16.492 -0.4330 -0.0811  0.2349
16326TIP3    H170393   1.646   1.954  16.579  1.9215  0.5598 -0.7450
16326TIP3    H270394   1.619   2.015  16.444 -0.3461 -0.7539 -0.9361
16327TIP3   OH270395   4.415   6.071   4.409 -0.6907 -0.4965 -0.7395
16327TIP3    H170396   4.364   6.106   4.482  0.3445  0.6853 -0.5536
16327TIP3    H270397   4.477   6.011   4.450 -1.3687 -1.3249 -0.8841
16328TIP3   OH270398   2.023   3.174   2.521 -0.4653  0.2204 -0.2423
16328TIP3    H170399   2.113   3.186   2.551 -0.3903 -0.1460 -0.3180
16328TIP3    H270400   1.982   3.119   2.588  0.0425 -1.6374 -1.3907
16329TIP3   OH270401   5.964   4.033  14.842 -0.6125 -0.3334 -0.6528
16329TIP3    H170402   5.907   4.020  14.918  1.7198 -1.5253  1.0153
16329TIP3    H270403   5.947   3.958  14.786 -0.4451 -0.8725  0.0074
16330TIP3   OH270404   2.155   0.503   3.600  0.6029 -0.3306  0.1738
16330TIP3    H170405   2.123   0.506   3.691  1.2934 -2.0621  0.5084
16330TIP3    H270406   2.098   0.440   3.557  1.6663 -1.2195  0.0144
16331TIP3   OH270407   5.799   1.638   6.833 -0.5761  0.4090  0.5931
16331TIP3    H170408   5.877   1.631   6.779 -0.0813 -0.8596  1.4243
16331TIP3    H270409   5.759   1.551   6.830 -2.2692  1.1679 -0.2340
16332TIP3   OH270410   5.774   2.971   2.198 -0.7961 -0.0925  0.3818
16332TIP3    H170411   5.774   2.940   2.107 -1.7993  1.3112 -0.1282
16332TIP3    H270412   5.784   3.066   2.191 -0.5878  0.0072  1.7715
16333TIP3   OH270413   5.518   5.966   3.593  0.3726  0.6063 -0.4660
16333TIP3    H170414   5.502   5.874   3.613  1.6488  0.6682  1.0087
16333TIP3    H270415   5.565   6.000   3.669 -0.5088  2.6258 -0.7623
16334TIP3   OH270416   3.509   4.556  13.962 -0.2063 -0.8689  0.0565
16334TIP3    H170417   3.468   4.500  14.028 -0.4366  2.2190  2.8021
16334TIP3    H270418   3.588   4.590  14.005  0.4106  0.2092 -1.8150
16335TIP3   OH270419   0.968   6.615   5.588  0.0224 -0.3634  0.8274
16335TIP3    H170420   1.010   6.606   5.673  2.0781  0.7396  0.0118
16335TIP3    H270421   0.951   6.709   5.579 -0.0102 -0.4395 -0.0500
16336TIP3   OH270422   3.550   6.118   4.787  0.7666 -0.0438  0.2621
16336TIP3    H170423   3.497   6.112   4.866 -0.5057 -0.7910 -0.6156
16336TIP3    H270424   3.529   6.039   4.737  0.7184  0.9179 -1.3243
16337TIP3   OH270425   2.843   0.303  13.280  0.4131 -0.5814  0.3835
16337TIP3    H170426   2.932   0.311  13.315  0.7979  0.6505 -0.7914
16337TIP3    H270427   2.833   0.379  13.223 -1.1854 -1.0390  0.0086
16338TIP3   OH270428   2.007   1.339  17.147 -0.1394  0.3414  0.1852
16338TIP3    H170429   1.982   1.355  17.056 -0.3754  0.9591  0.3547
16338TIP3    H270430   2.003   1.244  17.156 -2.0420  0.3763  0.0813
16339TIP3   OH270431   0.939   5.180  16.661  0.4524  0.0694 -0.0424
16339TIP3    H170432   0.966   5.139  16.744  1.6913  0.2359 -0.3446
16339TIP3    H270433   0.901   5.264  16.687  0.6091  0.0155  0.3721
16340TIP3   OH270434   5.089   5.107  13.357 -0.0032 -0.2282 -0.0401
16340TIP3    H170435   5.119   5.029  13.311 -1.0194 -2.2094  2.4493
16340TIP3    H270436   4.998   5.119  13.329 -0.1140 -0.4538  0.2228
16341TIP3   OH270437   3.750   4.610   2.601  0.0908 -0.0995 -0.0779
16341TIP3    H170438   3.762   4.640   2.691  1.9533 -0.0096 -0.3208
16341TIP3    H270439   3.818   4.544   2.588 -0.2104 -0.1808 -1.4000
16342TIP3   OH270440   5.931   0.940   4.059  0.1916 -0.7057 -0.3382
16342TIP3    H170441   5.855   0.955   4.002  1.3801  0.9454 -1.5703
16342TIP3    H270442   5.918   0.999   4.133  0.9943  0.7800 -1.3290
16343TIP3   OH270443   0.270   3.045  15.093  0.1604  0.1951  0.0817
16343TIP3    H170444   0.332   3.002  15.034 -0.0873 -1.8919  1.2413
16343TIP3    H270445   0.199   2.981  15.103 -0.3617  0.9930  1.7118
16344TIP3   OH270446   6.683   1.748   5.499  0.3433  0.5692  0.0225
16344TIP3    H170447   6.662   1.841   5.487 -0.9855  0.0771 -1.8740
16344TIP3    H270448   6.611   1.714   5.553  0.0783  0.3606 -0.4584
16345TIP3   OH270449   2.103   2.702  10.643  0.4835  0.4115 -0.1974
16345TIP3    H170450   2.020   2.736  10.675  0.0024 -1.1964  0.3782
16345TIP3    H270451   2.088   2.682  10.551  0.2729  0.2834 -0.1359
16346TIP3   OH270452   1.037   0.293   3.052 -0.3018  1.1850 -0.0911
16346TIP3    H170453   0.985   0.213   3.044 -0.5860  1.1459  1.8242
16346TIP3    H270454   1.110   0.280   2.991  0.4623 -1.2124  1.2043
16347TIP3   OH270455   5.736   0.935  14.266  0.3732  0.4768 -0.0963
16347TIP3    H170456   5.767   1.021  14.238 -1.9766  1.0128 -1.3318
16347TIP3    H270457   5.813   0.891  14.301  2.2295  2.0412 -2.0068
16348TIP3   OH270458   3.330   4.932   2.608 -0.1055  0.4242  0.5755
16348TIP3    H170459   3.270   4.862   2.583  0.2804  0.1513  0.4076
16348TIP3    H270460   3.391   4.891   2.669 -0.7447  0.9612  1.6290
16349TIP3   OH270461   4.184   2.022   6.695  0.2484 -0.4810 -0.0220
16349TIP3    H170462   4.099   1.980   6.708  0.1702 -0.5451 -0.7005
16349TIP3    H270463   4.233   1.959   6.643 -0.2886  0.7606 -2.1198
16350TIP3   OH270464   4.807   4.891   5.644 -0.2391 -0.4083 -0.3049
16350TIP3    H170465   4.873   4.853   5.702  0.6236  0.1041 -0.9193
16350TIP3    H270466   4.793   4.979   5.678 -0.9574 -0.6688  0.0938
16351TIP3   OH270467   2.352   2.554   2.483 -0.8335 -0.3090 -0.0910
16351TIP3    H170468   2.372   2.462   2.500  0.7484  0.2206  1.0858
16351TIP3    H270469   2.331   2.591   2.570 -3.2549  0.0708 -0.7603
16352TIP3   OH270470   3.095   5.191  12.261 -0.2781 -0.5523  0.0244
16352TIP3    H170471   3.069   5.192  12.169 -1.1758 -1.1707  0.2600
16352TIP3    H270472   3.012   5.187  12.309  0.0407  2.0595  0.9364
16353TIP3   OH270473   1.550   0.321   2.817 -0.0092  0.4051  0.1374
16353TIP3    H170474   1.550   0.294   2.725 -0.2087 -0.0942  0.2793
16353TIP3    H270475   1.459   0.346   2.834  0.2017  1.2979 -0.0272
16354TIP3   OH270476   4.171   3.382  17.004  0.1465 -0.0981  0.0021
16354TIP3    H170477   4.242   3.444  16.990  0.7987 -0.5539  1.1377
16354TIP3    H270478   4.214   3.297  17.018 -0.7146 -0.7788 -1.2683
16355TIP3   OH270479   5.530   2.299  16.549  0.0773  0.3602  0.2823
16355TIP3    H170480   5.514   2.226  16.609 -0.7540  1.1288  1.0282
16355TIP3    H270481   5.606   2.343  16.586  0.0422  0.3794  0.3323
16356TIP3   OH270482   3.288   2.598  15.746  0.0634 -0.1398 -0.7710
16356TIP3    H170483   3.359   2.549  15.788  0.6243  0.7994 -0.5813
16356TIP3    H270484   3.222   2.532  15.725  0.6801 -0.9293 -0.2954
16357TIP3   OH270485   0.664   6.120  14.096  1.0727  0.2800 -0.3232
16357TIP3    H170486   0.626   6.113  14.009  0.5151 -0.4507 -0.0227
16357TIP3    H270487   0.754   6.148  14.080  0.7408  0.9829 -1.0871
16358TIP3   OH270488   2.284   5.500   6.399 -0.7184 -0.6935 -0.5399
16358TIP3    H170489   2.371   5.537   6.386  0.4484 -2.8601  0.6021
16358TIP3    H270490   2.255   5.536   6.482  0.5452 -2.4235  0.7226
16359TIP3   OH270491   1.136   4.876   5.152 -0.5632 -0.3594 -0.4200
16359TIP3    H170492   1.100   4.801   5.105 -1.4387 -1.0279  1.2401
16359TIP3    H270493   1.153   4.844   5.241  3.4850  0.1132 -0.8149
16360TIP3   OH270494   1.132   2.210   0.480  0.0809  0.6110  0.9118
16360TIP3    H170495   1.129   2.224   0.386  1.1184  0.6971  0.8827
16360TIP3    H270496   1.088   2.286   0.518 -1.7629 -0.1771  0.4619
16361TIP3   OH270497   3.686   0.115   2.018  0.4304  0.0961 -0.0348
16361TIP3    H170498   3.736   0.135   1.939  1.8948  1.8353  1.2492
16361TIP3    H270499   3.692   0.019   2.027  0.9324 -0.0392 -1.5403
16362TIP3   OH270500   5.402   3.658   0.174 -0.3002 -0.0503 -0.7324
16362TIP3    H170501   5.431   3.652   0.083 -0.3648  1.0133 -0.8454
16362TIP3    H270502   5.341   3.586   0.186  1.0229 -1.2524 -1.0141
16363TIP3   OH270503   5.611   4.228  13.830 -0.5926 -0.1404  0.3026
16363TIP3    H170504   5.678   4.163  13.811 -1.0264 -0.3137 -0.6834
16363TIP3    H270505   5.529   4.179  13.829 -1.0180  0.5399 -1.2863
16364TIP3   OH270506   6.274   0.896   3.092 -0.3079 -0.6329  0.0433
16364TIP3    H170507   6.356   0.907   3.045 -0.4017  0.3156  0.0723
16364TIP3    H270508   6.270   0.803   3.112 -0.2195 -1.0440 -1.7116
16365TIP3   OH270509   2.650   0.856  13.993  0.2271 -0.0144 -0.6019
16365TIP3    H170510   2.612   0.816  13.914  0.5762 -2.6568  0.4841
16365TIP3    H270511   2.599   0.820  14.065  0.7647  1.3316  0.4935
16366TIP3   OH270512   5.905   2.075  11.347  0.4808 -0.5862  0.1157
16366TIP3    H170513   5.828   2.108  11.301 -0.3789  0.2620  2.0265
16366TIP3    H270514   5.972   2.067  11.280 -0.5582  0.9955 -1.1872
16367TIP3   OH270515   4.456   2.911   1.543 -0.1753  0.2336  0.3739
16367TIP3    H170516   4.364   2.897   1.564 -0.5519 -0.5420 -1.5927
16367TIP3    H270517   4.502   2.890   1.624 -1.6249 -0.7685  0.9802
16368TIP3   OH270518   1.533   1.892  17.358 -0.0374 -0.3890  0.0241
16368TIP3    H170519   1.490   1.842  17.427  0.5847 -0.3049  0.4772
16368TIP3    H270520   1.491   1.978  17.359  0.8546  0.0550  1.1897
16369TIP3   OH270521   4.256   1.948   4.979 -0.4419  0.7053 -0.0690
16369TIP3    H170522   4.323   1.881   4.973 -0.4404  0.6376  0.6803
16369TIP3    H270523   4.198   1.919   5.049 -0.0697  1.8114  0.7222
16370TIP3   OH270524   1.717   5.460  13.202  0.4564  0.0652  0.1902
16370TIP3    H170525   1.775   5.528  13.236  2.0044 -0.0255 -2.0432
16370TIP3    H270526   1.642   5.508  13.167  0.1455  0.3605  1.2396
16371TIP3   OH270527   1.812   3.931   1.711 -0.8899  0.0432 -0.3582
16371TIP3    H170528   1.727   3.975   1.712 -0.2907  1.2881 -1.6783
16371TIP3    H270529   1.876   4.002   1.707  0.1393 -0.9181 -1.4156
16372TIP3   OH270530   1.705   4.560  13.800  0.3319 -0.0394  0.0679
16372TIP3    H170531   1.721   4.609  13.720 -1.4849  0.3257 -0.1122
16372TIP3    H270532   1.786   4.569  13.850  0.4095  2.3635 -0.3738
16373TIP3   OH270533   6.416   5.756   0.321 -0.3702 -0.5211 -0.3195
16373TIP3    H170534   6.497   5.805   0.335 -0.9633  0.3576  0.0688
16373TIP3    H270535   6.347   5.822   0.324 -1.1893 -1.3900  0.2684
16374TIP3   OH270536   1.824   3.502   6.148 -0.0761 -0.0841  0.0718
16374TIP3    H170537   1.850   3.435   6.212 -1.1623 -1.6445 -1.0521
16374TIP3    H270538   1.878   3.484   6.071  0.6922  1.3268  0.2365
16375TIP3   OH270539   0.091   2.912  11.467  0.1138 -0.4909  0.3706
16375TIP3    H170540   0.019   2.933  11.526  2.3959  0.6009  2.9950
16375TIP3    H270541   0.101   2.817  11.473 -1.6493 -0.8019 -0.8381
16376TIP3   OH270542   0.369   3.074   3.685  0.3109  0.4738 -0.2169
16376TIP3    H170543   0.318   3.030   3.617  1.4131 -1.1950 -0.0186
16376TIP3    H270544   0.339   3.165   3.682 -2.2735 -0.2878 -0.4766
16377TIP3   OH270545   0.104   5.796   1.920 -0.0885  0.1561 -0.2281
16377TIP3    H170546   0.082   5.727   1.858 -2.2925  0.9189 -0.4010
16377TIP3    H270547   0.153   5.860   1.869  0.0001 -0.2392 -0.6390
16378TIP3   OH270548   3.413   4.963   4.350  0.9100 -0.9308 -0.2294
16378TIP3    H170549   3.396   4.905   4.424  0.5810  0.2825  0.6849
16378TIP3    H270550   3.498   4.935   4.315  0.7456 -1.9489  0.1793
16379TIP3   OH270551   6.407   0.199   5.421 -0.1609  0.0895 -0.2201
16379TIP3    H170552   6.495   0.237   5.414 -0.0616 -0.0618  0.1522
16379TIP3    H270553   6.420   0.121   5.474 -0.1563 -1.1479 -1.9725
16380TIP3   OH270554   1.896   5.504   6.539  0.7565  0.5310 -0.6673
16380TIP3    H170555   1.845   5.580   6.510  1.2533  0.6952 -1.1482
16380TIP3    H270556   1.846   5.466   6.611 -0.0991  0.6198 -1.2031
16381TIP3   OH270557   6.545   4.634  15.563  0.4036 -0.0974 -0.0538
16381TIP3    H170558   6.491   4.682  15.500 -0.4920 -1.6890 -0.5372
16381TIP3    H270559   6.585   4.564  15.513  1.6218  0.0448  0.6697
16382TIP3   OH270560   6.727   1.657  16.684  0.1003 -0.4282 -0.0216
16382TIP3    H170561   6.768   1.648  16.598 -0.0865 -0.0224 -0.1573
16382TIP3    H270562   6.634   1.640  16.668  0.3359 -2.3603  0.4635
16383TIP3   OH270563   1.594   2.184   4.980 -0.0182 -0.2929  0.3885
16383TIP3    H170564   1.677   2.157   5.018 -0.3048  0.1473  1.3630
16383TIP3    H270565   1.602   2.164   4.886  1.6480  0.8898  0.2472
16384TIP3   OH270566   0.688   6.572  14.882  0.0208  0.5446  0.1669
16384TIP3    H170567   0.616   6.618  14.926  0.3972 -0.1676  1.5879
16384TIP3    H270568   0.714   6.504  14.944  3.4169  2.1496  0.7634
16385TIP3   OH270569   6.123   5.950  12.654  0.2725  0.3249 -0.1275
16385TIP3    H170570   6.098   6.003  12.577 -1.6285  0.5355  0.5671
16385TIP3    H270571   6.107   5.860  12.627  0.1532  0.3604 -0.1793
16386TIP3   OH270572   0.213   2.564   0.299 -0.0251 -0.0746  0.1392
16386TIP3    H170573   0.230   2.659   0.301 -1.9021  0.3028  0.9865
16386TIP3    H270574   0.263   2.530   0.374  0.6301  0.2339 -0.1454
16387TIP3   OH270575   1.035   6.580  11.882  0.4489  0.2319 -0.1987
16387TIP3    H170576   1.011   6.625  11.801 -0.7054 -0.7124 -0.4086
16387TIP3    H270577   0.984   6.625  11.950 -0.5406 -0.5966 -0.3782
16388TIP3   OH270578   4.129   0.981  12.734  0.3648 -0.0196  0.7992
16388TIP3    H170579   4.135   0.895  12.775 -0.5027 -0.2867  0.3940
16388TIP3    H270580   4.036   1.003  12.737  0.6303  1.1055  1.2839
16389TIP3   OH270581   5.882   5.420   0.478 -0.8946  0.0076  0.3065
16389TIP3    H170582   5.929   5.350   0.524 -0.4146 -0.4136 -0.7673
16389TIP3    H270583   5.790   5.392   0.480 -0.8425 -0.1338  0.7841
16390TIP3   OH270584   6.361   6.300   4.346 -0.3892 -0.8184  0.0990
16390TIP3    H170585   6.423   6.322   4.277 -1.0436 -1.2160 -0.6360
16390TIP3    H270586   6.311   6.381   4.360 -0.8170 -0.9739 -0.4985
16391TIP3   OH270587   5.640   1.435   6.744  0.1092 -0.8252 -0.5253
16391TIP3    H170588   5.556   1.448   6.700 -0.3028 -1.0709  0.1743
16391TIP3    H270589   5.690   1.380   6.683 -0.7793 -1.9205 -0.3127
16392TIP3   OH270590   6.399   1.548   0.515  0.3514  0.7299 -0.0126
16392TIP3    H170591   6.405   1.458   0.483 -2.2148  0.4719 -0.0316
16392TIP3    H270592   6.455   1.598   0.456  1.6918 -0.8119 -0.1118
16393TIP3   OH270593   6.379   1.561   2.997  0.2700  0.1835  0.0889
16393TIP3    H170594   6.454   1.503   2.988  0.7850  0.6346  1.1750
16393TIP3    H270595   6.375   1.580   3.091 -1.2245  0.1521  0.0606
16394TIP3   OH270596   1.301   0.662  14.728  0.7555 -0.1075  0.0994
16394TIP3    H170597   1.354   0.629  14.801  0.6544 -0.9393 -0.1934
16394TIP3    H270598   1.279   0.752  14.753  0.0460 -0.6387  1.4582
16395TIP3   OH270599   4.250   4.081   4.150  0.0187 -0.1174 -0.3169
16395TIP3    H170600   4.307   4.095   4.225  0.7333 -1.6307 -0.5375
16395TIP3    H270601   4.308   4.090   4.074 -0.0061 -1.6614 -0.5447
16396TIP3   OH270602   4.061   3.766   5.226  0.2745  0.3885 -0.1995
16396TIP3    H170603   3.994   3.698   5.237  0.0605  0.7051  0.5012
16396TIP3    H270604   4.039   3.808   5.143  0.6071 -0.6104 -0.8109
16397TIP3   OH270605   4.241   3.391  15.132  0.0920 -0.5937 -0.5748
16397TIP3    H170606   4.264   3.410  15.041 -0.3434 -2.3190 -1.0987
16397TIP3    H270607   4.148   3.413  15.137  0.0352 -0.8125 -0.6495
16398TIP3   OH270608   0.242   5.740  10.985  0.0460 -0.6462  0.6004
16398TIP3    H170609   0.280   5.685  10.917  1.0572  0.7791 -0.0304
16398TIP3    H270610   0.317   5.771  11.036 -0.1634  2.1203 -0.5949
16399TIP3   OH270611   5.374   2.835  12.561  0.1529 -0.0020 -0.2538
16399TIP3    H170612   5.349   2.838  12.469 -0.7413  1.5088 -0.0114
16399TIP3    H270613   5.294   2.808  12.606  1.2972 -3.5146 -0.0732
16400TIP3   OH270614   3.972   2.726   6.457 -0.2156  0.4892 -0.3886
16400TIP3    H170615   4.052   2.687   6.420  0.8493  1.2478  0.9991
16400TIP3    H270616   3.908   2.656   6.455  1.6818 -1.5351  2.2418
16401TIP3   OH270617   3.461   3.967  14.757  0.6176 -0.1319 -0.2599
16401TIP3    H170618   3.479   3.984  14.849  0.1631 -0.3629 -0.1220
16401TIP3    H270619   3.373   3.928  14.757 -0.3476  1.8591 -0.9737
16402TIP3   OH270620   0.468   5.853  13.074  0.2146 -0.2426  0.1176
16402TIP3    H170621   0.519   5.857  12.993 -1.8058  1.3469 -1.1973
16402TIP3    H270622   0.467   5.944  13.106 -1.7227 -0.2007  0.0706
16403TIP3   OH270623   4.801   0.935  11.643  0.2777  0.2301  0.3766
16403TIP3    H170624   4.851   1.015  11.627  1.1856 -0.6148 -1.3615
16403TIP3    H270625   4.738   0.932  11.571  1.1361 -1.2446 -0.3650
16404TIP3   OH270626   2.741   5.760   4.999 -0.5617 -0.3311 -0.0985
16404TIP3    H170627   2.688   5.740   5.076 -0.3601  0.1049  0.1556
16404TIP3    H270628   2.691   5.825   4.951 -1.3065 -1.5304 -1.0261
16405TIP3   OH270629   3.307   6.528   0.078  0.2179  0.2352 -0.2739
16405TIP3    H170630   3.325   6.439   0.107 -0.1961  0.1650 -0.2295
16405TIP3    H270631   3.350   6.584   0.143  0.0937  0.0703 -0.0488
16406TIP3   OH270632   3.354   4.413   0.446 -0.2436 -0.4214 -0.2591
16406TIP3    H170633   3.304   4.351   0.393 -0.1277 -0.5407 -0.2300
16406TIP3    H270634   3.380   4.363   0.523 -0.5189 -0.2134 -0.0269
16407TIP3   OH270635   1.406   3.581  13.675  0.3084  0.0590 -0.1803
16407TIP3    H170636   1.409   3.495  13.633  0.4096  0.5423 -1.1680
16407TIP3    H270637   1.473   3.576  13.743 -0.0984 -0.8504  0.1831
16408TIP3   OH270638   1.293   3.415  14.391  0.9003  0.5794 -0.6231
16408TIP3    H170639   1.296   3.420  14.296  0.1129  1.3902 -0.6182
16408TIP3    H270640   1.379   3.381  14.416  0.5942 -1.1049 -1.6980
16409TIP3   OH270641   3.947   1.277  12.179  0.4730  0.3745  0.3175
16409TIP3    H170642   3.923   1.369  12.189 -1.6414  0.1898 -2.0839
16409TIP3    H270643   4.042   1.278  12.170  0.9401  1.8592  3.7388
16410TIP3   OH270644   5.172   1.083   2.473 -0.4283 -0.2703 -0.7277
16410TIP3    H170645   5.225   1.159   2.448  0.6009 -0.6611  0.2120
16410TIP3    H270646   5.142   1.103   2.562  0.6459 -1.3514 -0.0923
16411TIP3   OH270647   1.045   6.726   1.970  0.4721  0.0767  0.4545
16411TIP3    H170648   1.010   6.686   2.049 -2.7511 -1.6012 -1.5761
16411TIP3    H270649   1.089   6.654   1.924 -0.7862  0.0613 -0.8152
16412TIP3   OH270650   3.345   5.828   2.416 -0.2539  0.2140  0.1223
16412TIP3    H170651   3.339   5.842   2.321 -1.9599  0.0679  0.1888
16412TIP3    H270652   3.304   5.906   2.454 -1.8190 -0.8352  0.6676
16413TIP3   OH270653   5.778   5.394   4.758 -0.4984  0.1113  0.2719
16413TIP3    H170654   5.726   5.333   4.811  0.5387 -0.9215  0.1291
16413TIP3    H270655   5.764   5.366   4.668 -1.2474  1.0785  0.0659
16414TIP3   OH270656   4.056   1.371  17.012  0.0075  0.1453  0.2044
16414TIP3    H170657   4.020   1.301  16.957  1.2887  0.4974 -1.1642
16414TIP3    H270658   4.115   1.326  17.073  1.5359  0.0305 -1.2637
16415TIP3   OH270659   1.802   6.260   1.545 -0.6171 -0.2047  0.4637
16415TIP3    H170660   1.874   6.240   1.604 -0.1248  2.2340  0.8146
16415TIP3    H270661   1.845   6.272   1.460 -0.8153 -0.2373  0.3607
16416TIP3   OH270662   0.499   0.037   2.671  0.0736  0.2513  0.2547
16416TIP3    H170663   0.572   0.059   2.612 -1.3200 -1.9962 -2.5667
16416TIP3    H270664   0.420   0.058   2.621 -1.2017 -1.4998  1.4021
16417TIP3   OH270665   5.829   3.667  14.744 -0.1851  0.1680 -0.3334
16417TIP3    H170666   5.847   3.657  14.651 -0.2157  3.5833 -0.8162
16417TIP3    H270667   5.767   3.740  14.749 -0.6894 -0.3288  2.3573
16418TIP3   OH270668   6.608   2.595  13.173 -0.0115 -0.4041  0.0325
16418TIP3    H170669   6.692   2.636  13.194 -0.1114  0.0264 -0.3721
16418TIP3    H270670   6.602   2.602  13.077 -0.4414 -0.5659  0.0480
16419TIP3   OH270671   2.186   2.812   1.906 -0.2318 -0.0587  0.1256
16419TIP3    H170672   2.113   2.791   1.964 -0.4531  0.8418  0.1895
16419TIP3    H270673   2.154   2.792   1.818 -0.8759  1.1520  0.0738
16420TIP3   OH270674   1.829   1.594   1.823  0.1763 -0.6310  0.3703
16420TIP3    H170675   1.777   1.531   1.874 -0.6968  1.3399  2.0723
16420TIP3    H270676   1.769   1.623   1.754  0.5021 -1.4647 -0.2759
16421TIP3   OH270677   1.342   4.678   5.406 -0.3736 -0.1497  0.0368
16421TIP3    H170678   1.259   4.640   5.377  0.2166 -0.8864 -0.7091
16421TIP3    H270679   1.409   4.627   5.361  0.5375 -0.4592  1.6960
16422TIP3   OH270680   0.232   0.075   4.130  0.0846  0.1775  0.2981
16422TIP3    H170681   0.303   0.031   4.082  0.7219 -0.1128  1.4652
16422TIP3    H270682   0.206   0.147   4.073  1.4352  0.3954 -0.0790
16423TIP3   OH270683   5.962   4.968  14.035 -0.2483 -0.1483  0.0012
16423TIP3    H170684   5.911   5.009  13.965 -0.9967 -0.5580  0.3026
16423TIP3    H270685   6.053   4.975  14.005 -0.6194 -1.1388 -1.4753
16424TIP3   OH270686   5.887   1.619   4.092  0.3322 -0.2142  0.0018
16424TIP3    H170687   5.964   1.608   4.035  0.7009  3.4340 -0.4639
16424TIP3    H270688   5.817   1.645   4.032 -0.6981 -1.3106  0.6918
16425TIP3   OH270689   3.509   0.705  16.380 -0.0095  0.3209 -0.1093
16425TIP3    H170690   3.460   0.641  16.433  0.1123 -0.1643 -0.5679
16425TIP3    H270691   3.478   0.690  16.290  0.4259  0.5297 -0.2980
16426TIP3   OH270692   2.531   0.752  16.875  0.3000 -0.6078  0.3508
16426TIP3    H170693   2.570   0.795  16.798  2.9321 -0.2159  1.7673
16426TIP3    H270694   2.599   0.759  16.943 -2.2313 -0.1125  3.0273
16427TIP3   OH270695   2.558   2.101  15.021 -0.2329 -0.4842  0.0741
16427TIP3    H170696   2.481   2.141  15.062  0.2266 -0.2645  0.7534
16427TIP3    H270697   2.564   2.014  15.060 -0.5020 -0.7434 -0.4563
16428TIP3   OH270698   2.908   2.216   6.011 -0.3899 -0.7042 -0.6777
16428TIP3    H170699   2.854   2.162   6.069  1.4324 -0.1544  1.6579
16428TIP3    H270700   2.854   2.294   5.994 -0.4839 -0.2588  1.4149
16429TIP3   OH270701   6.714   6.645  11.910  0.4267 -0.4474 -0.3015
16429TIP3    H170702   6.663   6.642  11.829  0.8946  0.9028 -0.6674
16429TIP3    H270703   6.690   6.565  11.956  0.4873 -1.4810 -1.9827
16430TIP3   OH270704   3.419   3.413  16.973  0.0222 -0.5854 -0.6417
16430TIP3    H170705   3.345   3.359  16.946  0.6702 -2.0622  0.4340
16430TIP3    H270706   3.469   3.427  16.892 -0.8865 -0.4049 -1.1835
16431TIP3   OH270707   1.980   5.502   0.583 -0.4602  0.3257  0.1845
16431TIP3    H170708   1.915   5.567   0.557  0.1614  0.6656 -0.5464
16431TIP3    H270709   2.064   5.546   0.572  0.0398 -0.9241 -1.3383
16432TIP3   OH270710   2.088   4.385  14.517  0.6346 -0.2268 -0.6341
16432TIP3    H170711   2.179   4.391  14.548  0.0344  1.6515  0.9674
16432TIP3    H270712   2.082   4.452  14.449  0.3878 -0.1764 -0.5615
16433TIP3   OH270713   3.418   3.052   5.422 -0.7255 -0.3946 -0.2321
16433TIP3    H170714   3.414   3.141   5.387  2.0481 -0.3191 -0.6048
16433TIP3    H270715   3.478   3.006   5.363 -2.0036 -2.4938  0.0225
16434TIP3   OH270716   4.822   4.457   6.455  0.3211 -0.4332 -0.3414
16434TIP3    H170717   4.905   4.498   6.476 -0.0319  0.2530 -0.2535
16434TIP3    H270718   4.815   4.465   6.359  1.4384 -2.6121 -0.6533
16435TIP3   OH270719   0.407   0.573  12.789  0.7319  0.2452  0.3789
16435TIP3    H170720   0.322   0.608  12.814  0.2846 -0.0468 -0.6737
16435TIP3    H270721   0.417   0.494  12.841  0.6012  0.5619  0.8911
16436TIP3   OH270722   5.013   0.872   3.472  0.2757 -0.2066  0.5070
16436TIP3    H170723   5.007   0.966   3.457  2.5497 -0.3362 -1.7560
16436TIP3    H270724   4.976   0.832   3.393  0.2855 -1.2169  0.9939
16437TIP3   OH270725   4.958   5.001   0.768  0.1580 -0.1363 -0.5755
16437TIP3    H170726   5.052   4.989   0.782 -0.1955 -3.4926 -0.3776
16437TIP3    H270727   4.927   5.044   0.848  1.2708 -0.4250  0.0359
16438TIP3   OH270728   5.604   3.304   3.203 -0.5342  0.3633  0.0123
16438TIP3    H170729   5.589   3.259   3.286 -1.8272 -0.4948 -0.6611
16438TIP3    H270730   5.524   3.291   3.153 -0.0064  1.3667 -1.1618
16439TIP3   OH270731   1.606   1.559   1.623  0.4005 -0.5409  0.0346
16439TIP3    H170732   1.574   1.468   1.626 -0.0276 -0.3834  2.6178
16439TIP3    H270733   1.526   1.612   1.617  0.6570 -0.2627 -1.7083
16440TIP3   OH270734   3.337   4.066   3.708 -0.6055 -0.1484 -0.0655
16440TIP3    H170735   3.375   4.047   3.794  0.4301 -0.4544 -0.5754
16440TIP3    H270736   3.263   4.124   3.726  0.7079  1.3033  0.8871
16441TIP3   OH270737   2.621   2.431   5.118  0.0086  0.4254 -0.8445
16441TIP3    H170738   2.621   2.526   5.105  0.1340  0.5692  0.1249
16441TIP3    H270739   2.535   2.412   5.156  0.1294  0.2041 -0.6828
16442TIP3   OH270740   3.270   4.796  16.296  0.3780 -0.4348  0.2382
16442TIP3    H170741   3.347   4.791  16.239 -0.7571 -0.0509 -1.4208
16442TIP3    H270742   3.251   4.890  16.302 -1.7832 -0.6018 -2.0830
16443TIP3   OH270743   0.730   4.030   3.116  0.0425  0.1652 -0.4812
16443TIP3    H170744   0.812   4.029   3.165  0.1437 -0.9513 -0.6424
16443TIP3    H270745   0.733   4.111   3.066  0.2190  1.0388  0.8690
16444TIP3   OH270746   4.931   0.014  12.131 -0.7525 -0.1682 -0.1113
16444TIP3    H170747   4.857   0.043  12.184 -0.1509  0.3086  0.4946
16444TIP3    H270748   4.897  -0.059  12.079 -1.4800 -0.3502  0.5987
16445TIP3   OH270749   4.992   1.358   2.266  0.2186  0.0505 -0.5573
16445TIP3    H170750   4.916   1.333   2.319  1.0577  0.1083  0.7196
16445TIP3    H270751   4.974   1.448   2.239 -0.2949 -0.0329 -0.5006
16446TIP3   OH270752   4.562   2.259   3.689  0.3930 -0.1192  0.4508
16446TIP3    H170753   4.524   2.329   3.742  1.4352  1.1362 -0.4099
16446TIP3    H270754   4.502   2.185   3.701 -2.4103  1.7537 -0.9086
16447TIP3   OH270755   0.415   4.982   3.895  0.0049  0.1557 -0.3098
16447TIP3    H170756   0.394   4.974   3.987  2.0150  0.2078  0.2124
16447TIP3    H270757   0.348   4.931   3.849 -2.9762  2.7359  0.8594
16448TIP3   OH270758   5.107   3.237   5.593  0.3851 -0.8846 -0.1452
16448TIP3    H170759   5.112   3.302   5.663 -0.4883  0.7019 -1.4813
16448TIP3    H270760   5.182   3.258   5.536 -0.5043 -0.3210 -1.1421
16449TIP3   OH270761   0.005   6.158  16.421  0.4197 -0.5872 -0.0417
16449TIP3    H170762  -0.085   6.150  16.454  0.2376  0.3368 -0.2825
16449TIP3    H270763   0.059   6.111  16.485 -0.2031 -0.9238  0.2467
16450TIP3   OH270764   3.920   2.097   5.122 -0.1805 -0.2439  0.1060
16450TIP3    H170765   3.978   2.115   5.048  0.1719 -0.2918  0.3633
16450TIP3    H270766   3.976   2.108   5.199  0.1593 -2.6965  0.2909
16451TIP3   OH270767   2.008   6.425   1.673  0.4769  0.1034  0.3284
16451TIP3    H170768   2.102   6.438   1.660  0.7821 -3.0545 -1.9059
16451TIP3    H270769   1.967   6.501   1.633  2.0578  0.9007  0.1495
16452TIP3   OH270770   2.095   1.411  11.062  0.2857 -0.1332 -0.2171
16452TIP3    H170771   2.010   1.447  11.087 -1.1482 -2.3608 -1.6279
16452TIP3    H270772   2.090   1.397  10.968  2.1584 -0.5259 -0.3135
16453TIP3   OH270773   1.269   0.581  15.156  0.1990 -0.3072 -0.3680
16453TIP3    H170774   1.208   0.655  15.160  0.7013  0.1437 -0.8102
16453TIP3    H270775   1.295   0.567  15.247  0.5013  0.4183 -0.3333
16454TIP3   OH270776   6.154   1.507  17.314 -0.4668 -0.2288  0.2172
16454TIP3    H170777   6.163   1.421  17.274  1.2573 -0.7628  1.6111
16454TIP3    H270778   6.096   1.493  17.389  0.6966 -0.4555  1.1009
16455TIP3   OH270779   3.374   0.227  14.590  0.1194 -0.1069 -0.2686
16455TIP3    H170780   3.444   0.292  14.577  1.2816 -1.4582 -1.1095
16455TIP3    H270781   3.325   0.230  14.508 -0.9050  0.9102  0.3594
16456TIP3   OH270782   6.264   4.085  14.211 -0.3523 -0.1765 -0.1615
16456TIP3    H170783   6.271   4.005  14.263  0.8034 -1.3792 -2.0363
16456TIP3    H270784   6.176   4.118  14.229 -0.5401 -1.3596  1.3360
16457TIP3   OH270785   6.679   2.925   0.842  0.1087 -0.2379 -0.1665
16457TIP3    H170786   6.587   2.926   0.819  0.3000 -1.0591 -1.0705
16457TIP3    H270787   6.704   3.017   0.850 -0.2048  0.1295 -2.4928
16458TIP3   OH270788   0.114   6.429  11.644  0.0707 -0.0025  0.6697
16458TIP3    H170789   0.051   6.376  11.694 -1.1509  0.3659 -0.4020
16458TIP3    H270790   0.151   6.490  11.708  0.9770 -1.6407  1.7778
16459TIP3   OH270791   0.979   5.149  15.456  0.3318  0.0659 -0.4655
16459TIP3    H170792   1.027   5.180  15.380  0.6837 -1.0814 -0.7284
16459TIP3    H270793   0.911   5.092  15.420  0.4713 -0.4490  0.0762
16460TIP3   OH270794   1.676   1.292   2.757 -0.4337  0.0780  0.1533
16460TIP3    H170795   1.679   1.215   2.813  0.6474  0.1757  0.2506
16460TIP3    H270796   1.596   1.338   2.783  1.0774  1.2888  3.2161
16461TIP3   OH270797   3.995   1.172  15.862 -0.7306  0.0457 -0.3006
16461TIP3    H170798   4.007   1.163  15.956 -0.8293 -3.0677 -0.4692
16461TIP3    H270799   4.040   1.253  15.839 -0.8341  0.9610  2.4004
16462TIP3   OH270800   0.506   6.025   0.884  0.2130 -0.5216 -0.0398
16462TIP3    H170801   0.530   5.940   0.846 -0.0093 -2.4083  3.5985
16462TIP3    H270802   0.564   6.036   0.959 -1.9042  0.9084  1.5327
16463TIP3   OH270803   3.761   6.427  16.154 -0.0893 -0.1577 -0.2640
16463TIP3    H170804   3.777   6.334  16.168 -0.2844 -0.1846 -0.2078
16463TIP3    H270805   3.832   6.456  16.096  0.6487 -0.0702  0.6656
16464TIP3   OH270806   2.066   5.182   2.462  0.6094 -0.1463  0.3684
16464TIP3    H170807   2.012   5.210   2.388  1.2175  1.3640  0.4641
16464TIP3    H270808   2.084   5.090   2.445 -0.0530 -0.0636 -0.8712
16465TIP3   OH270809   5.742   6.717  12.647 -0.0653 -0.0472  0.1733
16465TIP3    H170810   5.776   6.778  12.713 -0.2138 -1.1283  1.2852
16465TIP3    H270811   5.663   6.680  12.687 -0.3753 -0.4548 -0.7759
16466TIP3   OH270812   3.842   4.360  15.684 -0.3673  0.4104  0.1188
16466TIP3    H170813   3.841   4.274  15.726  2.5451  0.3966  0.3827
16466TIP3    H270814   3.756   4.367  15.641 -0.7791 -2.5157  0.2453
16467TIP3   OH270815   1.674   1.405   3.888  0.5952 -0.4542 -0.1604
16467TIP3    H170816   1.725   1.453   3.823 -0.2902 -1.4988 -1.6738
16467TIP3    H270817   1.691   1.313   3.869 -2.3733 -0.8773 -1.2385
16468TIP3   OH270818   2.706   2.852  16.774 -0.4645  0.0280 -0.1516
16468TIP3    H170819   2.657   2.906  16.712  0.0826 -0.8484 -1.3768
16468TIP3    H270820   2.662   2.767  16.772  0.8955 -0.6794 -1.0475
16469TIP3   OH270821   4.828   1.248   1.709 -0.3475 -0.1425  0.3306
16469TIP3    H170822   4.765   1.319   1.722 -0.5763 -0.3824  0.5458
16469TIP3    H270823   4.882   1.249   1.788  1.7505  1.8614 -1.0054
16470TIP3   OH270824   2.163   2.007   2.878  0.0870 -0.5063 -0.1438
16470TIP3    H170825   2.148   1.942   2.809  1.6540 -0.9009 -0.1610
16470TIP3    H270826   2.255   2.032   2.868 -0.8383  2.9173 -1.1004
16471TIP3   OH270827   4.473   3.402  16.730 -0.4006 -0.5080  0.2878
16471TIP3    H170828   4.507   3.446  16.808 -0.0037  1.4878 -0.9284
16471TIP3    H270829   4.424   3.471  16.683  0.3458 -1.3161 -1.7830
16472TIP3   OH270830   6.103   2.710  13.545 -0.3151  0.0551  0.2744
16472TIP3    H170831   6.099   2.712  13.641  2.5500  0.7098  0.4572
16472TIP3    H270832   6.106   2.617  13.523 -2.8132 -0.1848  0.6125
16473TIP3   OH270833   0.691   5.423  12.398  0.3262  0.3454 -0.3229
16473TIP3    H170834   0.612   5.369  12.395 -0.0283  0.8816 -1.1587
16473TIP3    H270835   0.735   5.405  12.314  2.0406 -1.3183  0.8566
16474TIP3   OH270836   1.846   4.497   1.670  0.9456  0.5132  0.0060
16474TIP3    H170837   1.936   4.515   1.699  0.9246 -0.3126  0.6429
16474TIP3    H270838   1.856   4.449   1.588  1.1997 -1.5928  1.1950
16475TIP3   OH270839   2.764   4.373   4.499 -0.1927 -0.0064  0.3002
16475TIP3    H170840   2.755   4.410   4.411 -0.4137  0.5351  0.5489
16475TIP3    H270841   2.813   4.439   4.547 -0.6169 -0.0241  0.7596
16476TIP3   OH270842   3.983   4.602   1.601 -0.2914 -0.4419 -0.0829
16476TIP3    H170843   3.977   4.534   1.668 -0.1316  0.5093  0.9251
16476TIP3    H270844   4.025   4.559   1.527 -0.2312 -1.4490  0.5160
16477TIP3   OH270845   0.740   1.286  15.605 -0.0591  0.6888 -0.1982
16477TIP3    H170846   0.677   1.319  15.670  0.3304  0.2725  0.3965
16477TIP3    H270847   0.686   1.264  15.529 -0.5606  0.8901  0.0930
16478TIP3   OH270848   3.236   2.767   3.335  0.2392  0.1960 -0.5661
16478TIP3    H170849   3.262   2.713   3.260 -0.1954 -0.7694 -0.0408
16478TIP3    H270850   3.261   2.715   3.411 -0.6543  0.5049 -0.0499
16479TIP3   OH270851   2.674   1.696  15.568 -0.3330  0.4789  0.6022
16479TIP3    H170852   2.587   1.711  15.529 -0.3540 -1.4730 -0.1981
16479TIP3    H270853   2.732   1.751  15.516 -0.8356  0.4020 -0.0639
16480TIP3   OH270854   6.075   0.842   5.991 -0.2489 -0.6426  0.9834
16480TIP3    H170855   6.085   0.889   5.908 -1.4197 -4.1833 -1.4043
16480TIP3    H270856   6.035   0.907   6.050 -2.6142  1.2075 -2.2568
16481TIP3   OH270857   4.682   0.398  12.089  0.9205 -0.5229 -0.0819
16481TIP3    H170858   4.701   0.334  12.021  1.1443 -0.6383  0.0863
16481TIP3    H270859   4.652   0.475  12.042  1.0318 -0.6180 -0.3098
16482TIP3   OH270860   2.341   2.584   4.199  0.1520 -0.2010 -0.0224
16482TIP3    H170861   2.326   2.677   4.183  1.0835 -0.0434 -0.0525
16482TIP3    H270862   2.364   2.548   4.113  1.7011 -0.0521  0.2874
16483TIP3   OH270863   3.068   5.086   2.281  0.2736  0.6546 -0.1867
16483TIP3    H170864   3.001   5.129   2.228  1.9740  0.0481 -3.0303
16483TIP3    H270865   3.137   5.064   2.219  1.2294 -2.6390  1.8172
16484TIP3   OH270866   6.665   3.324  14.835  0.0631 -0.8550 -0.2415
16484TIP3    H170867   6.748   3.291  14.870  0.5957  0.1317 -0.5274
16484TIP3    H270868   6.690   3.400  14.782 -1.0434 -0.4147 -0.1639
16485TIP3   OH270869   3.078   2.952  14.671  0.0933  0.4945  0.3479
16485TIP3    H170870   3.118   2.883  14.724  0.0797 -0.8603 -1.3035
16485TIP3    H270871   3.150   2.988  14.620 -0.2452  0.1323 -0.4168
16486TIP3   OH270872   6.729   0.419   4.521 -0.3835 -0.4476  0.1089
16486TIP3    H170873   6.654   0.478   4.516  0.9951  1.3778 -0.0332
16486TIP3    H270874   6.728   0.387   4.611 -0.2384  1.1151  0.6984
16487TIP3   OH270875   3.914   6.087   2.547  0.0722  0.2266  0.2779
16487TIP3    H170876   3.820   6.087   2.529  0.3362  0.9377 -1.3646
16487TIP3    H270877   3.932   6.001   2.585 -1.1976 -0.0130  0.3583
16488TIP3   OH270878   2.850   2.751   1.500  0.4618 -0.2914 -0.1380
16488TIP3    H170879   2.815   2.828   1.456 -0.9848 -0.6552  0.3311
16488TIP3    H270880   2.815   2.756   1.589  0.3045 -1.5135 -0.1110
16489TIP3   OH270881   1.683   3.409   2.440  0.1325  0.1578  0.2296
16489TIP3    H170882   1.683   3.395   2.345  0.5536 -0.3281  0.2948
16489TIP3    H270883   1.673   3.321   2.477  2.3890  0.0109  0.6450
16490TIP3   OH270884   1.119   3.077  13.843 -0.0489 -0.3701 -0.1261
16490TIP3    H170885   1.030   3.060  13.812  0.7724 -2.5831 -1.4513
16490TIP3    H270886   1.134   3.010  13.910  0.4204  0.4214  0.5788
16491TIP3   OH270887   3.592   6.118  11.365  0.1772  0.4857  0.0292
16491TIP3    H170888   3.602   6.208  11.397 -0.0620  1.4232 -2.2734
16491TIP3    H270889   3.606   6.126  11.270  1.4212 -2.1362 -0.0834
16492TIP3   OH270890   4.346   5.598  13.480 -0.3501 -0.4759 -0.3407
16492TIP3    H170891   4.437   5.620  13.498 -0.2051 -0.8085 -0.6470
16492TIP3    H270892   4.351   5.521  13.424 -0.8244 -0.6145 -0.1962
16493TIP3   OH270893   2.085   3.105   3.097 -0.2045 -0.2307  0.1637
16493TIP3    H170894   2.112   3.076   3.010  0.6489 -0.2379  0.4164
16493TIP3    H270895   2.165   3.143   3.134 -0.5117 -0.4087  1.0130
16494TIP3   OH270896   0.799   3.413   4.411 -0.1672 -0.0298  0.3252
16494TIP3    H170897   0.856   3.337   4.410 -1.4109 -1.0130 -1.4204
16494TIP3    H270898   0.717   3.382   4.450 -0.0268  0.9894  1.5140
16495TIP3   OH270899   1.531   3.960   1.646 -0.1220  0.1222 -0.2675
16495TIP3    H170900   1.449   3.925   1.610 -0.4759  0.3130  0.3386
16495TIP3    H270901   1.519   4.055   1.644  0.9470  0.2647 -2.1671
16496TIP3   OH270902   4.323   1.994  16.443 -0.1351  0.7836  0.3204
16496TIP3    H170903   4.319   2.030  16.532  2.7316  1.4401  0.2560
16496TIP3    H270904   4.416   1.994  16.421 -0.5159 -1.7833 -1.7351
16497TIP3   OH270905   4.298   1.136   4.591  0.1096  0.0259 -0.7257
16497TIP3    H170906   4.213   1.127   4.634  0.2939  1.3773 -0.0287
16497TIP3    H270907   4.325   1.226   4.610  1.8921 -0.5108 -0.5889
16498TIP3   OH270908   2.996   5.405   2.138 -0.5108  0.8433  0.1043
16498TIP3    H170909   2.978   5.328   2.084  0.9397 -0.9186  1.9867
16498TIP3    H270910   3.041   5.465   2.078  2.8611 -1.8422 -0.4170
16499TIP3   OH270911   5.491   6.249   1.398  0.6141  0.1281  0.3864
16499TIP3    H170912   5.473   6.266   1.305  1.2147 -0.6743  0.1077
16499TIP3    H270913   5.488   6.335   1.439  0.3637  0.4981 -0.3894
16500TIP3   OH270914   2.795   2.319   0.443  0.0199 -0.4194  0.1567
16500TIP3    H170915   2.833   2.239   0.480  0.1478 -1.3020 -1.7677
16500TIP3    H270916   2.714   2.290   0.401 -0.7885  0.7732  0.8301
16501TIP3   OH270917   3.704   6.277  11.594  0.0210 -0.2623  0.0523
16501TIP3    H170918   3.763   6.232  11.654  0.7895  0.5726 -0.0612
16501TIP3    H270919   3.749   6.358  11.571 -0.9891  0.2125 -0.3546
16502TIP3   OH270920   5.966   5.511   0.134  0.8362  0.3728  0.0743
16502TIP3    H170921   5.979   5.444   0.201 -0.8703 -0.7208 -0.6072
16502TIP3    H270922   6.044   5.506   0.079  1.1332 -0.4548  0.5505
16503TIP3   OH270923   4.235   2.437  15.306  0.1985 -0.5384  0.6185
16503TIP3    H170924   4.162   2.444  15.245  0.6478 -0.2295  0.1047
16503TIP3    H270925   4.242   2.523  15.347  0.0811 -0.6588  0.8939
16504TIP3   OH270926   4.790   2.565   0.300 -0.1107 -0.3869  0.3693
16504TIP3    H170927   4.787   2.556   0.205 -2.0916  0.7298  0.2720
16504TIP3    H270928   4.723   2.505   0.333  0.7145 -0.9370  1.1003
16505TIP3   OH270929   0.020   5.808  12.753 -0.7097 -0.2944 -0.0402
16505TIP3    H170930  -0.069   5.775  12.766 -0.2868 -1.5717 -0.3093
16505TIP3    H270931   0.033   5.805  12.659 -0.3172 -0.2529  0.0142
16506TIP3   OH270932   6.000   2.911   3.713  0.3577 -0.1874  0.0833
16506TIP3    H170933   6.080   2.936   3.760  2.0032  1.2376 -3.1189
16506TIP3    H270934   5.929   2.949   3.765  2.1344  2.7136  0.6257
16507TIP3   OH270935   6.708   6.606  14.427 -0.1112 -0.2804  0.2106
16507TIP3    H170936   6.620   6.623  14.462 -1.4985 -2.8631 -1.6742
16507TIP3    H270937   6.753   6.560  14.498 -1.3659 -1.5833  0.2118
16508TIP3   OH270938   6.114   4.854   6.347  0.3102 -0.0424 -0.4505
16508TIP3    H170939   6.144   4.775   6.392  0.4502  0.5754  0.5730
16508TIP3    H270940   6.019   4.845   6.343  0.3036 -0.1362 -0.0910
16509TIP3   OH270941   0.771   0.545  12.624 -0.0519 -0.5051  0.1099
16509TIP3    H170942   0.864   0.565  12.622  0.2147 -1.5667 -2.2370
16509TIP3    H270943   0.765   0.458  12.583 -2.1379 -0.0851 -0.5771
16510TIP3   OH270944   0.314   1.596  15.481  0.1052  0.0794  0.1564
16510TIP3    H170945   0.371   1.588  15.557  3.1476 -1.8000 -2.1003
16510TIP3    H270946   0.357   1.659  15.425 -1.7671  0.9792 -0.3666
16511TIP3   OH270947   6.041   3.588   5.601 -0.4845  0.0399  0.3541
16511TIP3    H170948   6.094   3.662   5.632 -0.2210 -0.6697  1.6878
16511TIP3    H270949   6.000   3.553   5.680  2.4228 -3.6409  0.4812
16512TIP3   OH270950   4.352   6.324  16.255  0.1898 -0.2656  0.3041
16512TIP3    H170951   4.405   6.370  16.190  0.9093 -1.4072  0.0485
16512TIP3    H270952   4.289   6.389  16.285  0.7510  0.6859 -0.5117
16513TIP3   OH270953   5.034   2.692   4.939 -0.3053  0.0451 -0.2855
16513TIP3    H170954   5.036   2.679   5.034 -2.0889 -0.4003 -0.2804
16513TIP3    H270955   5.050   2.785   4.927  1.6566 -0.1577  0.3203
16514TIP3   OH270956   4.464   2.996  15.776 -0.3931 -0.4783  0.2499
16514TIP3    H170957   4.529   2.944  15.824  1.7713  1.1013 -0.7897
16514TIP3    H270958   4.483   2.978  15.684 -1.1141  0.4017 -0.0847
16515TIP3   OH270959   4.219   1.551  13.656 -0.1225  0.5636 -0.5621
16515TIP3    H170960   4.298   1.555  13.602  0.2906  0.9703  0.0581
16515TIP3    H270961   4.251   1.520  13.742 -0.8424 -0.5755 -0.6900
16516TIP3   OH270962   6.091   3.301  10.830 -0.4677  0.1898 -0.5759
16516TIP3    H170963   6.109   3.336  10.916  2.1227  0.8811 -1.3219
16516TIP3    H270964   5.997   3.317  10.816 -0.9332  0.0619  2.0414
16517TIP3   OH270965   1.502   0.470   2.022 -0.1652  0.5879 -0.3399
16517TIP3    H170966   1.573   0.406   2.027  0.8558  1.3229 -3.3970
16517TIP3    H270967   1.547   0.555   2.017 -1.4703  1.6036  2.6282
16518TIP3   OH270968   6.718   4.855  16.803  0.3598  0.7568 -0.1389
16518TIP3    H170969   6.694   4.850  16.896 -0.6462  1.0611 -0.3627
16518TIP3    H270970   6.809   4.882  16.802  0.5402  0.2193  0.7685
16519TIP3   OH270971   0.598   4.935  15.996  0.1517  0.3648 -0.2106
16519TIP3    H170972   0.606   5.005  16.060  1.4294  0.8098 -0.8214
16519TIP3    H270973   0.608   4.854  16.047  0.2403  0.6789  0.2756
16520TIP3   OH270974   3.126   5.902  12.458  0.5464 -0.0143 -0.0083
16520TIP3    H170975   3.206   5.933  12.501  0.8769 -0.5399 -0.2260
16520TIP3    H270976   3.112   5.815  12.496  0.4345 -0.1828 -0.4296
16521TIP3   OH270977   4.078   4.947   5.632 -0.1538  0.1576  0.4360
16521TIP3    H170978   3.986   4.924   5.647  0.2174 -1.6836  0.1703
16521TIP3    H270979   4.118   4.942   5.719 -0.2072  0.4551  0.4769
16522TIP3   OH270980   3.890   5.375  11.522  0.2896 -0.0048  0.1596
16522TIP3    H170981   3.912   5.330  11.604  3.7147  0.6243 -0.2700
16522TIP3    H270982   3.915   5.314  11.453  2.0104  1.2608 -0.4011
16523TIP3   OH270983   1.448   6.772  13.902 -0.5418 -0.0901 -0.3842
16523TIP3    H170984   1.483   6.852  13.942  0.6265 -0.6916 -0.1643
16523TIP3    H270985   1.358   6.766  13.936  0.1808 -0.2100  1.6421
16524TIP3   OH270986   3.195   1.367   3.473 -0.2275 -0.2512  0.0011
16524TIP3    H170987   3.275   1.393   3.427 -0.5473  2.1518  0.6244
16524TIP3    H270988   3.124   1.398   3.416 -0.6436  0.5003  0.8955
16525TIP3   OH270989   2.957   1.610  13.046  0.4435 -0.0669 -0.1463
16525TIP3    H170990   2.972   1.530  13.097 -0.1073 -0.5239 -0.6866
16525TIP3    H270991   3.038   1.661  13.057  0.0224  0.2275  1.8398
16526TIP3   OH270992   1.673   1.971   2.064  0.3250 -0.2355  0.9955
16526TIP3    H170993   1.721   2.012   1.992  1.1478 -0.7188  1.2512
16526TIP3    H270994   1.583   2.002   2.054  0.0368 -1.6149 -1.2210
16527TIP3   OH270995   6.662   0.381   2.871 -0.0396 -0.3860  0.2293
16527TIP3    H170996   6.681   0.354   2.960  2.9407  2.7551  0.7768
16527TIP3    H270997   6.621   0.467   2.880 -1.5869 -0.8761 -1.4582
16528TIP3   OH270998   3.966   1.161  11.786  0.7506 -1.1986  0.4126
16528TIP3    H170999   3.948   1.101  11.858  0.5789 -1.4782  0.1392
16528TIP3    H271000   4.039   1.215  11.817  1.5343 -2.1623  0.3102
16529TIP3   OH271001   0.859   5.530  14.171  0.2134  0.0163 -0.1662
16529TIP3    H171002   0.776   5.567  14.141 -0.9428  0.8276  3.4613
16529TIP3    H271003   0.910   5.516  14.091 -2.7806  0.9494 -2.4249
16530TIP3   OH271004   6.355   6.435   5.366  0.3183  0.1278  0.3795
16530TIP3    H171005   6.337   6.465   5.277  1.2195  0.7271  0.3825
16530TIP3    H271006   6.443   6.469   5.385  0.9045 -1.5531  0.8257
16531TIP3   OH271007   3.556   3.467   2.897  0.1914  0.2183  0.1811
16531TIP3    H171008   3.631   3.510   2.939 -0.2629 -0.2491  1.5426
16531TIP3    H271009   3.518   3.413   2.967 -2.1802  1.4104 -0.0980
16532TIP3   OH271010   4.834   3.384  15.964 -0.3309  0.2614 -0.5814
16532TIP3    H171011   4.750   3.346  15.991 -0.8511  1.4496 -0.5086
16532TIP3    H271012   4.854   3.340  15.881  1.0016 -3.0243  1.2517
16533TIP3   OH271013   6.249   1.010  13.802 -0.5938 -0.2623  0.3908
16533TIP3    H171014   6.335   0.969  13.810 -0.6523 -0.5314 -0.2289
16533TIP3    H271015   6.231   1.009  13.708 -1.5453 -0.7807  0.5591
16534TIP3   OH271016   0.175   4.108  14.847 -0.1755  0.0021  0.1289
16534TIP3    H171017   0.128   4.142  14.771 -0.5781  0.5320  0.6066
16534TIP3    H271018   0.140   4.020  14.860  1.4805 -0.9966 -1.6337
16535TIP3   OH271019   4.622   5.579  12.660 -0.1823 -0.2531  0.4394
16535TIP3    H171020   4.591   5.669  12.664 -1.0337 -0.5644  1.2240
16535TIP3    H271021   4.617   5.547  12.751  0.7962 -0.8660  0.2970
16536TIP3   OH271022   5.024   5.593  15.099 -0.4361 -0.1907  0.2605
16536TIP3    H171023   5.024   5.684  15.127 -0.2209 -0.7046  2.0932
16536TIP3    H271024   5.116   5.567  15.102 -0.5679 -0.6531  0.4564
16537TIP3   OH271025   4.306   5.355  11.363 -0.0413 -0.1830  0.5860
16537TIP3    H171026   4.304   5.350  11.458 -1.0147 -1.4477  0.5242
16537TIP3    H271027   4.349   5.439  11.344  0.8194 -0.2448  2.1148
16538TIP3   OH271028   3.800   0.787   0.091 -0.1335 -0.2679  0.5200
16538TIP3    H171029   3.877   0.817   0.139 -0.8609  3.9745 -0.5023
16538TIP3    H271030   3.728   0.795   0.154 -0.1120 -2.0228  0.8108
16539TIP3   OH271031   6.094   0.604   6.530 -0.4461 -0.0516  0.5564
16539TIP3    H171032   6.096   0.676   6.468  0.5155  0.3212  1.0089
16539TIP3    H271033   6.134   0.639   6.610  0.6742 -1.2705  0.5634
16540TIP3   OH271034   4.953   1.218   1.181  0.3309 -0.0933 -0.6462
16540TIP3    H171035   4.984   1.142   1.231  1.8179  0.0062 -1.3648
16540TIP3    H271036   4.881   1.253   1.233  2.5740  0.7753  2.1341
16541TIP3   OH271037   0.973   4.381  10.679  0.4163 -0.1968  0.3924
16541TIP3    H171038   1.058   4.338  10.670  0.8840  0.6431  0.6571
16541TIP3    H271039   0.990   4.456  10.736 -0.1243  0.9450 -0.8739
16542TIP3   OH271040   5.290   0.670   2.435  0.1750 -0.5234 -0.0397
16542TIP3    H171041   5.265   0.579   2.418 -0.7504 -0.3388  0.2861
16542TIP3    H271042   5.379   0.664   2.470  0.1704 -1.2937 -0.1420
16543TIP3   OH271043   2.929   5.374  12.574 -0.3442 -0.4304  0.6291
16543TIP3    H171044   2.896   5.355  12.662 -0.4196 -2.2542  0.2626
16543TIP3    H271045   2.925   5.289  12.529  2.7342 -0.2548 -0.1517
16544TIP3   OH271046   4.860   1.897  17.324 -0.1294  0.3340 -0.5964
16544TIP3    H171047   4.785   1.953  17.303 -0.1231  1.2873  1.6329
16544TIP3    H271048   4.936   1.948  17.297 -0.1689  0.9955  0.4857
16545TIP3   OH271049   3.652   2.533   1.708 -0.1987  0.2283  0.5268
16545TIP3    H171050   3.657   2.624   1.681 -1.9568  0.4729  0.9203
16545TIP3    H271051   3.742   2.500   1.700 -0.0808  1.0285 -2.8622
16546TIP3   OH271052   3.128   0.272   4.256 -0.5869 -0.0242  0.0548
16546TIP3    H171053   3.168   0.328   4.322 -0.7679 -0.7666  0.8012
16546TIP3    H271054   3.092   0.333   4.191  0.1118  0.6884  0.3322
16547TIP3   OH271055   6.631   0.787   1.864 -0.0654 -0.0968  0.1773
16547TIP3    H171056   6.662   0.789   1.955  0.0615 -0.7827  0.1486
16547TIP3    H271057   6.624   0.695   1.843  1.3245  0.0400 -1.0105
16548TIP3   OH271058   2.106   5.190   1.038  0.8624  0.3569 -0.0408
16548TIP3    H171059   2.056   5.242   1.101  0.7352  0.2689 -0.0705
16548TIP3    H271060   2.156   5.129   1.092 -0.0803 -0.4694 -0.0722
16549TIP3   OH271061   4.936   2.088   1.495 -0.1911 -0.3750  0.0037
16549TIP3    H171062   4.953   2.103   1.402  1.8237 -0.4096  0.3176
16549TIP3    H271063   4.959   2.171   1.538  0.5379 -0.8734  0.6200
16550TIP3   OH271064   2.349   5.306   2.858 -0.1097 -0.7655  0.5816
16550TIP3    H171065   2.257   5.310   2.884 -0.5145 -0.8982 -0.7503
16550TIP3    H271066   2.356   5.369   2.786  0.6028 -1.4738  0.0210
16551TIP3   OH271067   2.425   1.535   2.076 -0.6714  0.0272 -0.4379
16551TIP3    H171068   2.387   1.592   2.143 -2.1239 -0.1105 -1.1103
16551TIP3    H271069   2.351   1.513   2.019  0.6864  0.8509 -2.6073
16552TIP3   OH271070   5.717   5.720   6.280 -0.6686 -0.1075 -0.3371
16552TIP3    H171071   5.765   5.639   6.295  2.4302  1.6242  0.0217
16552TIP3    H271072   5.712   5.729   6.185 -1.4024 -0.8552 -0.3842
16553TIP3   OH271073   3.422   3.242   3.090  0.3475 -0.1439 -0.0339
16553TIP3    H171074   3.347   3.243   3.149  0.2334  0.1004 -0.1814
16553TIP3    H271075   3.494   3.277   3.142  0.8478 -2.1943  0.7427
16554TIP3   OH271076   1.090   1.269   0.876  0.4014  0.3244 -0.4553
16554TIP3    H171077   1.062   1.315   0.955  0.5277  0.3517 -0.4257
16554TIP3    H271078   1.154   1.205   0.907  1.1775  0.9883 -0.6531
16555TIP3   OH271079   3.350   0.244  15.370 -0.6387 -0.2484 -0.2062
16555TIP3    H171080   3.314   0.206  15.290 -0.1023 -1.6725  0.1854
16555TIP3    H271081   3.443   0.220  15.368  0.0804  2.2882 -0.5994
16556TIP3   OH271082   4.054   3.307  13.929  0.4505 -0.0350 -0.1132
16556TIP3    H171083   4.068   3.288  14.021 -0.1244  1.0083  0.2075
16556TIP3    H271084   3.962   3.286  13.912  0.2621  0.7835 -0.1663
16557TIP3   OH271085   3.849   6.488  13.912 -0.2184  0.0236  0.1142
16557TIP3    H171086   3.918   6.499  13.977  1.4671 -1.4159 -1.3015
16557TIP3    H271087   3.768   6.496  13.961  0.9197  1.8835  1.8418
16558TIP3   OH271088   1.378   1.936   6.443  0.1423 -0.1448 -0.1777
16558TIP3    H171089   1.372   2.016   6.495  1.6682  0.4190 -0.7986
16558TIP3    H271090   1.307   1.881   6.475  2.4381 -0.9413  4.4145
16559TIP3   OH271091   5.987   2.976  17.098 -0.0890 -0.1370 -0.3632
16559TIP3    H171092   5.966   3.043  17.163  0.4214  1.9185 -2.1888
16559TIP3    H271093   5.941   2.898  17.128 -0.6621  0.9850  1.9053
16560TIP3   OH271094   6.763   5.814  15.232  0.6676  0.2150 -0.1042
16560TIP3    H171095   6.705   5.795  15.158  0.0962  0.1165  0.3652
16560TIP3    H271096   6.742   5.748  15.298  0.9409  0.5046  0.2811
16561TIP3   OH271097   4.059   5.087  11.616 -0.2512 -0.1850  0.3688
16561TIP3    H171098   4.123   5.016  11.617  2.7553  2.3205 -0.7724
16561TIP3    H271099   3.991   5.057  11.556  1.2120 -1.8873 -0.5133
16562TIP3   OH271100   6.397   6.735  16.362  0.2858 -0.3723 -0.5674
16562TIP3    H171101   6.344   6.730  16.441 -1.7307  0.6634 -1.7798
16562TIP3    H271102   6.476   6.782  16.389 -1.2001  1.6838  0.4664
16563TIP3   OH271103   4.663   4.272   2.363 -0.3871  0.6736 -0.2118
16563TIP3    H171104   4.705   4.349   2.400  0.5590  0.2374 -0.3466
16563TIP3    H271105   4.593   4.307   2.308 -0.3576  1.4098  0.2119
16564TIP3   OH271106   3.087   0.251  15.457  0.7090 -0.1131  0.3315
16564TIP3    H171107   3.029   0.214  15.391  2.3718 -1.4239 -0.4937
16564TIP3    H271108   3.175   0.226  15.428  1.8614  3.1776  0.6310
16565TIP3   OH271109   0.534   1.453  16.336  0.0111  0.5785 -0.5134
16565TIP3    H171110   0.604   1.518  16.346  0.4033  0.0786  0.0518
16565TIP3    H271111   0.573   1.370  16.363 -0.4069  0.0438 -1.4884
16566TIP3   OH271112   1.900   1.902   0.129 -0.2210 -0.1142  0.0204
16566TIP3    H171113   1.991   1.889   0.155 -0.1540 -1.3534 -0.7470
16566TIP3    H271114   1.905   1.943   0.043 -0.3822 -0.2727 -0.0657
16567TIP3   OH271115   3.256   4.717  11.787  0.6008 -0.0292  0.4115
16567TIP3    H171116   3.199   4.695  11.713  0.4781 -1.4534  0.9148
16567TIP3    H271117   3.250   4.642  11.846 -0.7857  1.8298  2.7977
16568TIP3   OH271118   1.065   3.473  11.573 -0.9554  0.0493  0.4968
16568TIP3    H171119   1.154   3.446  11.551 -1.3838 -1.6899  0.7152
16568TIP3    H271120   1.059   3.564  11.544  1.0244  0.3562  0.9307
16569TIP3   OH271121   0.188   5.376   6.348  0.0398 -0.1293 -0.6778
16569TIP3    H171122   0.141   5.453   6.379 -0.0362 -0.4955  0.1539
16569TIP3    H271123   0.278   5.387   6.379 -0.1162 -0.6628 -0.0043
16570TIP3   OH271124   1.960   4.257   1.428  0.0057  0.0705 -0.0211
16570TIP3    H171125   1.887   4.318   1.442  1.0996  1.3653  0.1317
16570TIP3    H271126   2.003   4.289   1.349 -0.2897 -1.4285 -0.8338
16571TIP3   OH271127   6.388   0.294   4.909  0.2552 -0.5086 -0.3973
16571TIP3    H171128   6.415   0.292   5.001 -0.7761 -1.2916 -0.0978
16571TIP3    H271129   6.455   0.244   4.863 -0.0516 -1.4482  0.1652
16572TIP3   OH271130   4.694   6.101   2.531  0.1169  0.1233 -0.2051
16572TIP3    H171131   4.678   6.044   2.606  1.6775  1.3417  1.1328
16572TIP3    H271132   4.624   6.167   2.536 -0.4207 -0.4138 -0.4883
16573TIP3   OH271133   2.915   5.705   5.258  0.9950  0.3567  0.2669
16573TIP3    H171134   2.983   5.664   5.204 -0.3565  1.1350 -2.1667
16573TIP3    H271135   2.939   5.798   5.260 -0.6683  0.9124 -1.8774
16574TIP3   OH271136   6.166   6.016   5.906  0.4906 -0.1374 -0.0286
16574TIP3    H171137   6.142   5.934   5.950  0.9579  0.3563  1.1893
16574TIP3    H271138   6.115   6.083   5.952  0.6515  0.3494 -0.5493
16575TIP3   OH271139   0.217   2.020   0.672  0.6082 -0.2968 -0.1333
16575TIP3    H171140   0.263   1.946   0.711  0.8049  0.3347  0.8504
16575TIP3    H271141   0.280   2.092   0.676 -0.3989  0.5512  1.1406
16576TIP3   OH271142   5.407   6.111   2.824 -0.9044  0.2039  0.3005
16576TIP3    H171143   5.431   6.083   2.912 -1.6513 -0.2659  0.3640
16576TIP3    H271144   5.333   6.171   2.837 -0.2878  1.0416  0.0616
16577TIP3   OH271145   3.365   6.183   1.361  0.5058 -0.2486 -0.0218
16577TIP3    H171146   3.385   6.114   1.298 -0.8301 -1.2631  0.6264
16577TIP3    H271147   3.449   6.227   1.376  1.5157 -2.1005 -0.0029
16578TIP3   OH271148   2.934   6.354  12.936 -0.2666  0.0787 -0.0363
16578TIP3    H171149   2.859   6.379  12.883 -0.1594 -0.2402 -0.3492
16578TIP3    H271150   2.900   6.344  13.024 -0.2392  1.6945  0.1917
16579TIP3   OH271151   2.495   3.363  12.182  0.5171 -0.1400  0.3918
16579TIP3    H171152   2.458   3.399  12.101  1.8174  1.0614  0.2784
16579TIP3    H271153   2.423   3.366  12.245  0.2487  1.6363  0.0562
16580TIP3   OH271154   1.843   2.178   3.740  0.4619 -0.1577 -0.3422
16580TIP3    H171155   1.798   2.150   3.661  1.3945  0.0334 -0.9623
16580TIP3    H271156   1.880   2.097   3.776  0.8551 -0.1163 -0.6425
16581TIP3   OH271157   5.058   4.625  13.098 -0.0917 -0.2573  0.2770
16581TIP3    H171158   5.132   4.673  13.061 -0.6764 -0.4180 -1.1844
16581TIP3    H271159   4.984   4.685  13.089 -0.4942 -0.7861 -0.0203
16582TIP3   OH271160   3.936   2.176  17.063 -0.4307  0.3742 -0.0018
16582TIP3    H171161   3.856   2.128  17.085  0.9955 -1.4086  1.6542
16582TIP3    H271162   3.993   2.110  17.023  1.0740  0.9944  1.0354
16583TIP3   OH271163   3.067   6.616  14.281 -0.1057 -0.6277  0.7988
16583TIP3    H171164   3.027   6.548  14.336 -2.1204 -0.8867 -0.8818
16583TIP3    H271165   3.042   6.593  14.192 -1.6527  2.7617  0.1906
16584TIP3   OH271166   1.394   2.510   4.692  0.1949  0.5329 -0.0378
16584TIP3    H171167   1.358   2.582   4.744 -0.3978  1.1807 -1.3097
16584TIP3    H271168   1.487   2.529   4.686  0.1812  0.7312  0.3619
16585TIP3   OH271169   2.619   6.218   2.831  0.2275 -0.1515  0.6259
16585TIP3    H171170   2.678   6.146   2.805  0.5089 -0.3817  1.8616
16585TIP3    H271171   2.555   6.177   2.889 -2.3712 -0.3126 -2.1028
16586TIP3   OH271172   3.653   6.615   3.540  0.0180  0.5284 -0.0423
16586TIP3    H171173   3.655   6.677   3.467 -0.6212  1.1565  0.4624
16586TIP3    H271174   3.620   6.666   3.614 -1.2229 -0.5792  0.2030
16587TIP3   OH271175   1.060   5.978  14.239  0.3288  0.2119 -0.1628
16587TIP3    H171176   1.082   5.885  14.240  0.3927  0.0889 -3.2356
16587TIP3    H271177   1.143   6.023  14.226  0.1511  0.5844 -0.0381
16588TIP3   OH271178   6.316   1.687  10.991  0.0101  0.6237 -0.1596
16588TIP3    H171179   6.264   1.606  10.996  0.1335  0.4321 -1.5419
16588TIP3    H271180   6.376   1.681  11.065  1.2503 -1.4549 -1.2347
16589TIP3   OH271181   1.905   2.140   1.722  0.3082 -0.6943  0.2490
16589TIP3    H171182   1.942   2.056   1.750 -0.0636 -0.3787  1.7625
16589TIP3    H271183   1.979   2.200   1.721  0.0467 -0.2814  2.3844
16590TIP3   OH271184   3.140   0.043   3.368 -0.3006 -0.0269  0.1148
16590TIP3    H171185   3.166   0.013   3.455  1.3844 -0.0976 -0.3736
16590TIP3    H271186   3.090  -0.030   3.331  0.8191 -0.8770  0.2280
16591TIP3   OH271187   2.687   0.223  15.412  0.2662  0.2331  0.3902
16591TIP3    H171188   2.687   0.295  15.475 -1.2443  0.2856  0.3626
16591TIP3    H271189   2.680   0.144  15.466 -0.7091  0.2604  0.3097
16592TIP3   OH271190   4.352   4.482   0.572  0.7809 -0.0272 -0.4718
16592TIP3    H171191   4.446   4.477   0.583  0.7334  0.1447  0.0315
16592TIP3    H271192   4.338   4.555   0.510  1.1564 -2.2317 -3.3903
16593TIP3   OH271193   5.372   4.846   2.430  0.1103  0.3597  0.0085
16593TIP3    H171194   5.285   4.862   2.393 -0.4622 -0.1253  1.1039
16593TIP3    H271195   5.412   4.932   2.437 -0.2370  0.5748 -0.6102
16594TIP3   OH271196   0.357   3.566  15.531 -0.2389  0.0072  0.2789
16594TIP3    H171197   0.453   3.557  15.531 -0.3432 -1.3826  1.4101
16594TIP3    H271198   0.332   3.549  15.621 -1.6105 -0.1114 -0.1133
16595TIP3   OH271199   0.883   3.230  14.365 -0.3627 -0.3521 -0.2290
16595TIP3    H171200   0.962   3.179  14.379  0.6746  0.7513 -1.7687
16595TIP3    H271201   0.901   3.314  14.408 -0.8575 -0.2135 -0.2778
16596TIP3   OH271202   0.621   3.271  16.891 -0.2314 -0.1944  0.6672
16596TIP3    H171203   0.598   3.341  16.953  0.4379  0.2747  0.4005
16596TIP3    H271204   0.709   3.294  16.861 -0.9778  0.2378 -1.3431
16597TIP3   OH271205   2.742   5.177  16.568 -0.0953 -0.4158  0.3403
16597TIP3    H171206   2.674   5.143  16.509 -0.5367  0.5633  0.2557
16597TIP3    H271207   2.822   5.175  16.516 -0.6659  1.4354 -0.7231
16598TIP3   OH271208   6.229   2.963  15.942 -0.2371 -0.0109  0.1630
16598TIP3    H171209   6.288   2.889  15.933  1.2133  1.1439 -0.2604
16598TIP3    H271210   6.144   2.930  15.914  0.5696 -1.2577 -0.9440
16599TIP3   OH271211   3.348   0.980   1.573  0.9283 -0.3177 -0.8295
16599TIP3    H171212   3.330   1.000   1.665 -0.1049  0.0232 -1.0922
16599TIP3    H271213   3.393   1.058   1.540  1.9454 -0.7277 -0.4453
16600TIP3   OH271214   4.959   0.645   1.655 -0.1246  0.0066 -0.0628
16600TIP3    H171215   4.933   0.712   1.718 -0.3857 -1.0518  0.9891
16600TIP3    H271216   5.043   0.676   1.620 -1.3326  2.0185 -1.3342
16601TIP3   OH271217   5.697   6.454  10.743 -0.7946 -0.1667 -0.4171
16601TIP3    H171218   5.702   6.359  10.757 -1.1722 -0.1632 -0.2604
16601TIP3    H271219   5.783   6.477  10.708  0.7540  0.0393  3.1319
16602TIP3   OH271220   6.123   6.691   5.797 -1.2582  0.2875  0.0228
16602TIP3    H171221   6.061   6.665   5.864 -0.6994 -0.0837  0.4076
16602TIP3    H271222   6.198   6.632   5.809 -1.1764  0.1601 -0.9711
16603TIP3   OH271223   1.032   5.154   2.068 -0.2660  0.3450  0.8788
16603TIP3    H171224   1.125   5.152   2.049 -0.0932  0.3749  1.6903
16603TIP3    H271225   0.990   5.160   1.982  0.3625 -2.2265  0.3193
16604TIP3   OH271226   1.135   6.095  11.806 -0.2045 -0.2219 -0.2585
16604TIP3    H171227   1.193   6.040  11.754 -0.0264  0.4789 -0.8248
16604TIP3    H271228   1.106   6.162  11.745 -0.4614  0.2748  0.4010
16605TIP3   OH271229   0.552   5.485   4.516 -0.4757  0.4164 -0.3590
16605TIP3    H171230   0.514   5.409   4.561  0.5893 -0.2445 -0.5441
16605TIP3    H271231   0.478   5.526   4.472 -0.9509 -0.9599 -0.8952
16606TIP3   OH271232   4.703   0.889   4.404 -0.1279 -0.1318  0.4402
16606TIP3    H171233   4.649   0.926   4.335  2.1861 -1.2399 -2.1243
16606TIP3    H271234   4.734   0.965   4.454  1.6704  1.2753 -2.5063
16607TIP3   OH271235   1.829   1.340   1.633  0.4346 -0.2350 -0.3086
16607TIP3    H171236   1.749   1.376   1.670  1.1829  0.3141  0.8281
16607TIP3    H271237   1.874   1.416   1.596  0.5233 -0.5147 -0.7922
16608TIP3   OH271238   6.511   0.720   1.170  0.0835  0.1639 -0.0209
16608TIP3    H171239   6.488   0.654   1.104  1.7099 -0.7094  0.2333
16608TIP3    H271240   6.478   0.802   1.134 -2.3241 -0.7919 -0.1832
16609TIP3   OH271241   5.226   3.963   1.761  0.6623 -0.2151  0.1554
16609TIP3    H171242   5.220   4.056   1.742  1.0629 -0.4699 -1.3355
16609TIP3    H271243   5.227   3.920   1.675 -0.2422 -1.6505  0.8179
16610TIP3   OH271244   2.617   6.405  14.844 -0.4233 -0.3167 -0.2130
16610TIP3    H171245   2.536   6.416  14.795  0.5209 -0.6575 -1.9434
16610TIP3    H271246   2.607   6.321  14.889 -0.6462 -0.8555 -1.2335
16611TIP3   OH271247   0.912   5.545  12.523  0.3393  0.2665  0.5034
16611TIP3    H171248   0.846   5.493  12.476 -0.0236 -0.3382  1.6574
16611TIP3    H271249   0.966   5.480  12.568  2.5821  0.6549 -1.4335
16612TIP3   OH271250   5.366   1.015   0.798  0.4438 -0.3337 -0.1511
16612TIP3    H171251   5.310   0.997   0.873  1.4204  1.5951  1.1253
16612TIP3    H271252   5.445   0.963   0.815  0.3720 -0.4635 -0.2162
16613TIP3   OH271253   4.310   2.532  16.073  0.2781  0.2687 -0.8133
16613TIP3    H171254   4.401   2.508  16.088  0.2161  0.2858 -0.3888
16613TIP3    H271255   4.311   2.627  16.064  0.0435  0.5164  1.3159
16614TIP3   OH271256   4.828   1.106  12.211 -0.3676 -0.3395  1.1874
16614TIP3    H171257   4.864   1.026  12.171  0.8282  0.4519  0.6250
16614TIP3    H271258   4.904   1.153  12.244 -0.8626  1.3543  0.0419
16615TIP3   OH271259   6.023   1.015   2.240  0.6598 -0.1437 -0.2961
16615TIP3    H171260   5.954   0.955   2.214 -0.2372  0.3358  0.9144
16615TIP3    H271261   6.093   0.999   2.177 -1.0373  0.3065 -2.4184
16616TIP3   OH271262   5.650   5.630  12.283  0.1245  0.2577 -0.0899
16616TIP3    H171263   5.675   5.538  12.273  0.7038  0.2776  1.0103
16616TIP3    H271264   5.577   5.629  12.344  1.2479  0.6395  1.3023
16617TIP3   OH271265   0.058   0.957   4.451 -0.3441 -0.4931 -0.1087
16617TIP3    H171266   0.149   0.928   4.452 -0.2143 -0.1104  1.6586
16617TIP3    H271267   0.049   1.003   4.367  1.1597 -0.3175 -0.1953
16618TIP3   OH271268   4.095   3.731   1.076  0.1818  1.0645 -0.1823
16618TIP3    H171269   4.022   3.788   1.101 -0.4634  0.0082  0.4088
16618TIP3    H271270   4.155   3.789   1.030 -1.0666  1.9536 -0.7673
16619TIP3   OH271271   2.003   1.291  12.789 -0.2889 -0.4250  0.7693
16619TIP3    H171272   2.008   1.210  12.840  1.3943 -0.4567  0.6199
16619TIP3    H271273   2.057   1.353  12.838  0.6154 -0.1903 -0.4813
16620TIP3   OH271274   0.303   2.145   5.724 -0.4780  0.2110  0.5199
16620TIP3    H171275   0.240   2.196   5.775 -0.6256  2.8730 -2.0630
16620TIP3    H271276   0.387   2.186   5.741  0.1679 -1.4973  1.7010
16621TIP3   OH271277   4.440   5.026  14.328 -0.1392 -0.2367  0.3741
16621TIP3    H171278   4.456   5.116  14.300  1.9541 -0.4152  0.8511
16621TIP3    H271279   4.497   5.014  14.404  0.6249 -2.3558 -0.4680
16622TIP3   OH271280   6.467   4.245   2.211  0.5744  0.3432  0.0489
16622TIP3    H171281   6.378   4.278   2.201  0.6949  1.3710  1.9669
16622TIP3    H271282   6.471   4.211   2.300  2.4590  1.5558  0.4889
16623TIP3   OH271283   4.174   2.676   0.051 -0.3976  0.3244  0.0404
16623TIP3    H171284   4.157   2.678  -0.043 -0.1416 -1.0111 -0.0551
16623TIP3    H271285   4.164   2.584   0.076  1.6312  0.2788  0.9217
16624TIP3   OH271286   6.596   5.909   5.621  0.2273 -0.1648 -0.0660
16624TIP3    H171287   6.686   5.911   5.651  0.4621  1.6263 -0.7426
16624TIP3    H271288   6.554   5.984   5.664 -0.3512  0.3104 -1.3864
16625TIP3   OH271289   5.703   0.151   2.685 -0.0647 -0.7051  0.1300
16625TIP3    H171290   5.654   0.070   2.701 -0.6219 -0.4580 -0.2844
16625TIP3    H271291   5.649   0.199   2.623 -0.7073  0.8445  1.7933
16626TIP3   OH271292   3.048   0.211  14.540  0.5803 -0.1925 -0.0953
16626TIP3    H171293   3.040   0.297  14.497 -1.4331 -0.8101 -1.0980
16626TIP3    H271294   3.003   0.222  14.623  1.2943  0.0045  0.2738
16627TIP3   OH271295   3.742   2.048  15.959  0.2922 -0.2672 -0.3810
16627TIP3    H171296   3.821   2.063  15.906 -0.8124  1.9450 -1.5671
16627TIP3    H271297   3.728   2.131  16.004 -2.2370  0.0079 -1.5086
16628TIP3   OH271298   5.661   5.106   3.400  0.0740 -0.2028 -0.2008
16628TIP3    H171299   5.736   5.137   3.349 -0.6700  1.6135 -0.2820
16628TIP3    H271300   5.693   5.029   3.446  1.7206  0.0128 -0.9207
16629TIP3   OH271301   1.856   2.817  16.852 -0.8331  0.0974 -0.4084
16629TIP3    H171302   1.862   2.910  16.871 -0.4623 -0.0948  0.4305
16629TIP3    H271303   1.890   2.809  16.763  3.0194  0.2747  0.8597
16630TIP3   OH271304   4.935   1.062   2.318 -0.3416 -0.1680 -0.5369
16630TIP3    H171305   4.880   1.135   2.287 -1.1199 -0.8820 -0.8845
16630TIP3    H271306   5.021   1.102   2.333 -0.8689  0.9174 -0.2774
16631TIP3   OH271307   2.960   5.286  15.266 -0.4436 -0.4872 -0.0189
16631TIP3    H171308   2.881   5.328  15.232 -1.2276 -1.0875  0.9803
16631TIP3    H271309   3.024   5.356  15.271 -1.3441  0.3306  0.4638
16632TIP3   OH271310   4.321   5.714   0.829  0.0384  0.0436  0.4847
16632TIP3    H171311   4.407   5.754   0.813  1.0701 -2.7492 -1.6140
16632TIP3    H271312   4.335   5.657   0.905  0.1701 -0.7119 -0.1002
16633TIP3   OH271313   4.676   1.002  13.001  0.1579 -0.5512 -0.5456
16633TIP3    H171314   4.593   0.974  12.961  0.6254 -0.8888 -1.2995
16633TIP3    H271315   4.703   0.927  13.055 -0.5130 -0.0659  0.5108
16634TIP3   OH271316   6.579   3.562   4.464  0.1643 -0.8829  0.3418
16634TIP3    H171317   6.510   3.593   4.405 -0.3395 -0.7844  0.9683
16634TIP3    H271318   6.593   3.635   4.524 -0.1143 -1.3903  1.0268
16635TIP3   OH271319   0.933   1.876  16.270  0.3682 -0.0263 -0.0632
16635TIP3    H171320   0.926   1.824  16.350  1.6009  0.4103  0.3520
16635TIP3    H271321   1.027   1.891  16.259  0.1711  0.4903 -1.2282
16636TIP3   OH271322   4.736   6.607   3.447  0.5699 -0.5012  0.3176
16636TIP3    H171323   4.724   6.555   3.527 -0.6984 -0.9669 -0.1595
16636TIP3    H271324   4.649   6.638   3.425  1.2173  1.4212  0.2808
16637TIP3   OH271325   3.603   2.647  15.567  0.4046  0.1207 -0.1944
16637TIP3    H171326   3.588   2.552  15.569  1.8561 -0.1282  1.7186
16637TIP3    H271327   3.651   2.662  15.486 -0.3472 -0.6614 -0.8123
16638TIP3   OH271328   3.558   0.991  16.115  0.0273 -0.7526  0.2123
16638TIP3    H171329   3.613   1.066  16.093  3.0055 -2.1784  2.1668
16638TIP3    H271330   3.570   0.979  16.209 -1.9944 -2.4703  0.3209
16639TIP3   OH271331   4.364   1.816  17.271  0.0277  0.2922  0.3873
16639TIP3    H171332   4.294   1.858  17.320 -0.9458  0.3591 -0.9834
16639TIP3    H271333   4.397   1.884  17.213 -0.1992 -0.2794 -0.4337
16640TIP3   OH271334   6.343   5.884   2.507 -0.2595 -0.1709  0.4213
16640TIP3    H171335   6.425   5.865   2.553 -0.2241  1.1041  0.9479
16640TIP3    H271336   6.311   5.799   2.478  2.5327 -0.5411 -2.0644
16641TIP3   OH271337   3.947   6.307   1.511  0.1102 -0.1184 -0.8814
16641TIP3    H171338   3.934   6.249   1.436 -0.9755 -1.4838  0.3011
16641TIP3    H271339   3.893   6.383   1.492  0.3256 -0.1776 -1.7614
16642TIP3   OH271340   6.082   4.093  12.834  0.1372  0.6861 -0.1985
16642TIP3    H171341   6.106   4.131  12.750 -2.5292  0.1503 -1.3189
16642TIP3    H271342   6.022   4.157  12.873  0.1383  0.2267  0.5869
16643TIP3   OH271343   3.273   3.104  14.537  0.5788 -0.9556  0.3145
16643TIP3    H171344   3.331   3.167  14.496  0.5256 -1.0535  0.0901
16643TIP3    H271345   3.324   3.069  14.611  1.7494 -2.8214 -1.2769
16644TIP3   OH271346   0.053   3.101  15.900  0.3963  0.0523  0.3900
16644TIP3    H171347   0.116   3.143  15.841  0.1787  0.1844  0.2519
16644TIP3    H271348   0.094   3.108  15.986 -0.6699  2.6803  0.7794
16645TIP3   OH271349   5.859   3.956  16.955  0.1501 -0.2663 -0.1940
16645TIP3    H171350   5.771   3.975  16.924 -0.2312 -2.1947 -0.4061
16645TIP3    H271351   5.895   3.895  16.891  1.0436 -0.7601  0.7378
16646TIP3   OH271352   3.255   2.730   5.168  0.1470  0.0532  0.3992
16646TIP3    H171353   3.235   2.808   5.221 -3.3084 -0.1184 -0.3873
16646TIP3    H271354   3.269   2.661   5.232 -1.2415  0.4307  1.1614
16647TIP3   OH271355   4.472   0.471  16.891  0.1245  0.2695 -0.2174
16647TIP3    H171356   4.507   0.407  16.829  1.0122  0.1372  0.4066
16647TIP3    H271357   4.416   0.421  16.950 -1.2565  0.4984 -1.2818
16648TIP3   OH271358   2.839   3.550   2.820 -0.3856 -0.5433  0.5130
16648TIP3    H171359   2.902   3.611   2.857  1.1365 -1.1095 -0.9892
16648TIP3    H271360   2.876   3.463   2.837 -0.1700 -0.8538 -1.2541
16649TIP3   OH271361   3.669   2.575   5.607 -0.1109  0.2044 -0.2492
16649TIP3    H171362   3.649   2.601   5.697  0.1517  0.4350 -0.2586
16649TIP3    H271363   3.763   2.592   5.597  0.8515 -3.6123  0.7506
16650TIP3   OH271364   5.219   5.509  14.796 -0.2718 -0.7605 -0.2578
16650TIP3    H171365   5.179   5.423  14.783 -2.4210 -0.1944  1.9390
16650TIP3    H271366   5.278   5.497  14.871 -0.5626 -0.3253  0.0427
16651TIP3   OH271367   6.289   0.587  11.398  0.3210  0.0014  0.1420
16651TIP3    H171368   6.315   0.548  11.315  1.7282  0.3461  0.4052
16651TIP3    H271369   6.208   0.541  11.421  0.6204 -1.0235 -0.7576
16652TIP3   OH271370   2.000   3.166   0.642 -0.4506 -0.0464 -1.0240
16652TIP3    H171371   1.908   3.140   0.646 -0.0143 -1.4188  0.9692
16652TIP3    H271372   2.003   3.250   0.688 -0.3068 -1.4408  1.7166
16653TIP3   OH271373   0.539   5.176   1.998  0.5850  0.0422  0.3002
16653TIP3    H171374   0.545   5.166   1.903 -2.9355  1.6009 -0.2750
16653TIP3    H271375   0.521   5.087   2.030  2.2512 -0.5791 -0.3601
16654TIP3   OH271376   3.651   5.698   3.812 -0.4049 -0.0594  0.7338
16654TIP3    H171377   3.621   5.615   3.774 -0.5366 -0.1932  1.1180
16654TIP3    H271378   3.745   5.685   3.825  0.1618  0.9199 -1.8867
16655TIP3   OH271379   0.574   4.018  13.181  0.6915 -0.6028  0.6772
16655TIP3    H171380   0.650   4.026  13.123 -0.0178  0.1175 -0.1746
16655TIP3    H271381   0.540   3.930  13.164  0.4945 -0.3982  0.0124
16656TIP3   OH271382   2.438   6.189   6.144  0.1217  0.3266  0.1037
16656TIP3    H171383   2.393   6.149   6.218  0.7813 -0.9362 -0.1362
16656TIP3    H271384   2.392   6.271   6.128 -1.0154 -0.1394  0.9044
16657TIP3   OH271385   0.075   1.347   2.653  0.4369 -0.0965 -0.0132
16657TIP3    H171386   0.094   1.311   2.567 -0.5693 -0.9664  0.1039
16657TIP3    H271387   0.027   1.277   2.698 -0.2861  0.8682  0.7481
16658TIP3   OH271388   4.310   2.690   5.632  0.2099  0.4212  0.0906
16658TIP3    H171389   4.325   2.600   5.602  2.9113  0.4717  0.9965
16658TIP3    H271390   4.253   2.681   5.708  1.7146 -0.7454  1.1328
16659TIP3   OH271391   2.589   4.958  15.694 -0.7223 -0.0063 -0.2500
16659TIP3    H171392   2.570   4.946  15.600 -0.8604 -1.2526 -0.0895
16659TIP3    H271393   2.637   4.878  15.718 -0.1917  0.5601  0.6215
16660TIP3   OH271394   4.952   4.166  11.754 -0.8645  0.3170 -0.5731
16660TIP3    H171395   4.878   4.226  11.770 -0.6790  0.0140  1.7275
16660TIP3    H271396   4.962   4.118  11.836  2.5946  1.1168 -0.3924
16661TIP3   OH271397   1.676   0.187  12.009 -0.0642  0.1187  0.0110
16661TIP3    H171398   1.726   0.166  12.088  0.7222  1.2429 -0.1604
16661TIP3    H271399   1.667   0.282  12.012 -0.6535  0.0934 -0.8876
16662TIP3   OH271400   5.339   4.143  14.060  0.2859  0.6727  0.0311
16662TIP3    H171401   5.378   4.109  13.980 -0.6762 -2.5704  0.7959
16662TIP3    H271402   5.265   4.085  14.077 -0.0221  1.7474  2.8414
16663TIP3   OH271403   5.482   2.388   0.305  0.1185 -0.0470  0.1287
16663TIP3    H171404   5.514   2.335   0.233  1.2046  0.7291  0.0185
16663TIP3    H271405   5.561   2.420   0.349 -0.4930  1.2501  0.3439
16664TIP3   OH271406   2.200   6.426   4.069  0.0911 -0.7708  0.7104
16664TIP3    H171407   2.295   6.415   4.073 -0.1076 -2.7360  0.9521
16664TIP3    H271408   2.169   6.401   4.156 -0.6347  0.3526  0.8058
16665TIP3   OH271409   2.991   2.508   0.441 -0.2063  0.3526 -0.2082
16665TIP3    H171410   3.061   2.450   0.409  0.3935  0.7406  0.3773
16665TIP3    H271411   2.910   2.462   0.418  0.2604 -1.0003  0.7393
16666TIP3   OH271412   3.952   0.932  13.125  0.4335 -0.3535 -0.0620
16666TIP3    H171413   4.017   0.884  13.177  0.8845  0.2579 -0.0594
16666TIP3    H271414   3.978   1.023  13.132 -0.6541 -0.0539  0.2625
16667TIP3   OH271415   3.726   6.606  15.790  0.4625  0.4348  0.8961
16667TIP3    H171416   3.739   6.686  15.739  1.8102 -0.4206 -0.1466
16667TIP3    H271417   3.712   6.538  15.724  0.4988 -0.4008  1.7384
16668TIP3   OH271418   6.276   1.114  12.845 -1.0236  0.0328 -0.0275
16668TIP3    H171419   6.214   1.085  12.911 -1.5100 -0.0613 -0.5126
16668TIP3    H271420   6.298   1.035  12.796  1.1350 -0.3608  1.4393
16669TIP3   OH271421   4.124   0.686  12.792  0.0940 -0.2412 -0.0537
16669TIP3    H171422   4.208   0.642  12.778  0.0200 -0.4575  0.1724
16669TIP3    H271423   4.066   0.649  12.726  0.4155  0.5766 -0.8177
16670TIP3   OH271424   0.431   4.788  12.801 -0.3902  0.1208 -0.0377
16670TIP3    H171425   0.346   4.780  12.844 -0.2468  0.8252  0.4040
16670TIP3    H271426   0.413   4.774  12.708 -0.5121 -2.7761  0.3284
16671TIP3   OH271427   4.122   0.188  13.272 -0.1435 -0.1720  0.0378
16671TIP3    H171428   4.043   0.197  13.220  0.2983  0.0207 -0.6193
16671TIP3    H271429   4.101   0.121  13.338 -0.9817  0.1896  0.1454
16672TIP3   OH271430   2.878   1.676   6.192 -0.3552  0.0697  0.3913
16672TIP3    H171431   2.807   1.691   6.254 -0.4007 -2.3486  1.0157
16672TIP3    H271432   2.953   1.652   6.247  0.2069 -0.0297 -0.3943
16673TIP3   OH271433   6.406   1.062   2.789  0.4802 -0.7368  0.2844
16673TIP3    H171434   6.313   1.050   2.807  0.4837 -2.0058 -0.4003
16673TIP3    H271435   6.451   1.019   2.862  0.5474  0.2978  0.8680
16674TIP3   OH271436   3.352   2.711  16.404  0.0246 -0.0528 -0.5699
16674TIP3    H171437   3.390   2.768  16.338  0.2671 -0.4816 -0.8071
16674TIP3    H271438   3.347   2.625  16.362  2.6496 -0.9833  0.7743
16675TIP3   OH271439   1.744   1.420   5.381 -0.2130 -0.1132 -0.1936
16675TIP3    H171440   1.811   1.488   5.375 -0.8744  0.6913  1.2560
16675TIP3    H271441   1.792   1.339   5.366  1.3604  0.3224  2.0113
16676TIP3   OH271442   2.707   6.227  11.041  0.1921 -0.4113 -0.3453
16676TIP3    H171443   2.754   6.147  11.015 -0.0216  0.7121 -5.0860
16676TIP3    H271444   2.617   6.212  11.013 -0.4117  0.6833  0.8949
16677TIP3   OH271445   0.803   0.062  13.544 -0.0905 -0.0089 -0.1999
16677TIP3    H171446   0.772   0.136  13.491 -1.5411 -0.1696  0.3864
16677TIP3    H271447   0.813  -0.010  13.481  0.3274  0.3872 -0.5993
16678TIP3   OH271448   6.062   4.670   3.623  0.5893  0.0678  0.0192
16678TIP3    H171449   6.154   4.673   3.651  0.9707  0.3399 -1.1981
16678TIP3    H271450   6.012   4.675   3.704  1.6525  0.0443  0.6951
16679TIP3   OH271451   2.749   0.030  13.537  0.2914  0.6936 -0.2701
16679TIP3    H171452   2.705   0.005  13.456 -0.3491 -0.3455  0.3845
16679TIP3    H271453   2.685   0.011  13.606  1.0906  0.9047  0.5424
16680TIP3   OH271454   1.181   5.287   0.010 -0.4044 -0.0949 -0.0037
16680TIP3    H171455   1.105   5.232   0.028 -0.3690  0.3648  1.6484
16680TIP3    H271456   1.214   5.255  -0.074 -1.7436 -1.0452 -0.1967
16681TIP3   OH271457   4.735   2.013  15.001  0.1451  0.4400  0.0146
16681TIP3    H171458   4.640   2.008  14.997  0.0309 -0.3496  2.1851
16681TIP3    H271459   4.753   2.072  15.074  1.2921 -0.0754  0.1794
16682TIP3   OH271460   5.655   2.421  10.860  0.2378 -0.0921 -0.7900
16682TIP3    H171461   5.746   2.424  10.888  0.4261 -0.3983 -1.3637
16682TIP3    H271462   5.636   2.509  10.829 -0.1067  0.3879  0.6755
16683TIP3   OH271463   5.740   3.497   4.910 -0.3084 -0.6508  0.3310
16683TIP3    H171464   5.721   3.591   4.905  1.0420 -0.3904 -3.3425
16683TIP3    H271465   5.659   3.455   4.880 -0.0261 -0.4354 -0.7884
16684TIP3   OH271466   1.407   4.460  15.470  0.6693 -0.1001  0.2812
16684TIP3    H171467   1.427   4.366  15.466  1.6138  0.1471 -1.6279
16684TIP3    H271468   1.477   4.502  15.420 -0.8410  1.4423 -0.6480
16685TIP3   OH271469   0.478   5.224  16.588 -0.8935  0.3168  0.4114
16685TIP3    H171470   0.407   5.205  16.649  0.1199  3.4510  2.8279
16685TIP3    H271471   0.441   5.285  16.524 -1.5779 -1.9160 -1.4769
16686TIP3   OH271472   2.857   0.184  16.454 -0.0184 -0.2152  0.1026
16686TIP3    H171473   2.889   0.217  16.538 -0.6401  0.5014  0.0696
16686TIP3    H271474   2.923   0.120  16.427  1.3108  1.0735  0.1286
16687TIP3   OH271475   6.629   5.686   6.038 -0.0862 -1.1733  0.0258
16687TIP3    H171476   6.588   5.767   6.008  2.8892 -0.2795 -1.9661
16687TIP3    H271477   6.674   5.710   6.119  1.0478 -0.7103 -0.7250
16688TIP3   OH271478   2.219   4.596  15.210 -0.1081 -0.1798  0.2969
16688TIP3    H171479   2.160   4.671  15.201  0.1313 -0.1032 -0.6878
16688TIP3    H271480   2.298   4.633  15.250  0.1214  0.1641 -0.4532
16689TIP3   OH271481   3.072   0.719   3.596 -0.1723  0.3466 -0.6934
16689TIP3    H171482   3.061   0.628   3.570  1.2416 -0.0778  0.0483
16689TIP3    H271483   2.998   0.765   3.556 -0.2436 -0.9058 -2.0976
16690TIP3   OH271484   5.534   0.418   1.323 -0.1819 -0.0316  0.3816
16690TIP3    H171485   5.506   0.430   1.232 -1.4762  1.4824  0.9339
16690TIP3    H271486   5.463   0.369   1.364  0.2373 -0.4048  0.6750
16691TIP3   OH271487   4.438   0.386   2.606  0.6286 -0.1317  0.1048
16691TIP3    H171488   4.386   0.310   2.633  1.1671 -0.5876 -0.0953
16691TIP3    H271489   4.468   0.363   2.518  1.0859  0.1605  0.1804
16692TIP3   OH271490   0.919   5.728   0.741  1.0325 -0.1275 -0.4940
16692TIP3    H171491   0.956   5.657   0.794  0.0815 -1.4211 -1.5078
16692TIP3    H271492   0.917   5.693   0.652 -0.7086  0.6461 -0.7962
16693TIP3   OH271493   2.013   6.210   3.497  0.3166  0.3966 -0.0813
16693TIP3    H171494   2.092   6.161   3.517 -0.6019 -0.8451  0.6790
16693TIP3    H271495   1.964   6.211   3.580 -1.6253 -1.1178 -1.1146
16694TIP3   OH271496   6.531   4.224  15.276  0.0477 -0.4283 -0.6410
16694TIP3    H171497   6.451   4.257  15.235 -0.4862 -0.3781  0.4050
16694TIP3    H271498   6.589   4.205  15.203 -1.3712 -1.6384 -1.5223
16695TIP3   OH271499   6.352   4.026  10.872  0.0298  0.5835  0.0633
16695TIP3    H171500   6.364   4.121  10.879  1.2431  0.3706  1.2313
16695TIP3    H271501   6.352   4.009  10.778 -1.2686  1.8458 -0.2140
16696TIP3   OH271502   0.547   4.970   4.715  0.0761 -0.0185 -0.3838
16696TIP3    H171503   0.611   5.003   4.779  1.0465 -1.1857 -0.7243
16696TIP3    H271504   0.470   5.026   4.728 -0.0844 -0.7329  2.3948
16697TIP3   OH271505   4.436   0.231  12.072 -0.3848 -0.1113 -0.5411
16697TIP3    H171506   4.509   0.190  12.119 -0.3236 -0.6289 -1.0698
16697TIP3    H271507   4.431   0.320  12.107  0.9680  0.1687 -0.9948
16698TIP3   OH271508   2.460   1.394   0.090 -0.1328  0.0381 -0.8070
16698TIP3    H171509   2.432   1.435   0.172 -0.5632 -1.0597 -0.3820
16698TIP3    H271510   2.544   1.436   0.069  0.6080 -0.5119  0.8645
16699TIP3   OH271511   1.777   4.385   3.637 -0.2785  0.3403 -0.5742
16699TIP3    H171512   1.746   4.294   3.634 -0.3140  0.3436 -0.3797
16699TIP3    H271513   1.791   4.410   3.546 -0.4181  0.1891 -0.6366
16700TIP3   OH271514   1.557   3.767  14.584 -0.1739 -0.2251 -0.0442
16700TIP3    H171515   1.592   3.678  14.592  0.7757  0.2203  0.9767
16700TIP3    H271516   1.633   3.824  14.599 -0.8445  0.7620 -0.3109
16701TIP3   OH271517   3.604   1.144  11.170  0.1641  0.5921  0.6844
16701TIP3    H171518   3.606   1.216  11.233 -2.5199 -0.0303  1.5760
16701TIP3    H271519   3.512   1.136  11.144  0.3177 -2.5843  0.7094
16702TIP3   OH271520   0.626   6.139   3.450 -0.4156 -0.4219  0.6252
16702TIP3    H171521   0.557   6.097   3.502 -1.0619 -0.5297 -0.2949
16702TIP3    H271522   0.583   6.165   3.369 -0.0459  2.0865  1.1506
16703TIP3   OH271523   5.630   0.638  12.666  0.1764 -0.1017 -0.3343
16703TIP3    H171524   5.614   0.547  12.693  2.3258 -0.1965  0.7574
16703TIP3    H271525   5.583   0.646  12.583  0.0268 -2.2500 -0.5165
16704TIP3   OH271526   2.898   5.634  11.140  0.1394  0.0685 -0.1110
16704TIP3    H171527   2.826   5.642  11.078  0.7667 -0.4593 -0.9242
16704TIP3    H271528   2.944   5.554  11.113  0.6194  0.0135  0.8282
16705TIP3   OH271529   1.628   5.078  12.644  0.5840 -0.2863 -0.2578
16705TIP3    H171530   1.606   5.074  12.738 -0.8906 -0.1875 -0.5816
16705TIP3    H271531   1.674   4.995  12.628 -1.1882 -1.4108  0.0899
16706TIP3   OH271532   3.267   0.843   0.991 -0.3141  0.0501  0.5091
16706TIP3    H171533   3.329   0.839   1.064  1.7588  3.2413 -0.8334
16706TIP3    H271534   3.266   0.754   0.955  2.8323 -0.3702  1.1986
16707TIP3   OH271535   6.151   5.276   5.300 -0.6974 -0.2805  0.2594
16707TIP3    H171536   6.084   5.283   5.368  0.1318 -1.3372  1.2210
16707TIP3    H271537   6.200   5.197   5.322 -0.1707 -0.4449 -1.3722
16708TIP3   OH271538   6.143   0.703   3.851 -0.1852  0.3674  0.0703
16708TIP3    H171539   6.085   0.778   3.863 -2.8094 -1.7681  2.2505
16708TIP3    H271540   6.115   0.664   3.768 -1.6706 -0.4018  0.8979
16709TIP3   OH271541   3.799   2.858  13.471 -0.7705 -0.1190 -0.2872
16709TIP3    H171542   3.783   2.830  13.381 -1.0412 -1.7215  0.2364
16709TIP3    H271543   3.712   2.881  13.504 -0.5732  1.2300 -0.6559
16710TIP3   OH271544   3.955   1.028  11.417  0.1547 -0.3485  0.0927
16710TIP3    H171545   3.958   1.060  11.327  0.8452  0.1601  0.2909
16710TIP3    H271546   3.891   1.085  11.460  0.6633  0.1397  0.2033
16711TIP3   OH271547   6.542   3.210   3.651  0.0521  0.5273 -0.0977
16711TIP3    H171548   6.514   3.253   3.732 -0.4707 -3.9171  2.4296
16711TIP3    H271549   6.637   3.203   3.659 -0.1949 -2.6104  1.9689
16712TIP3   OH271550   6.740   3.177   0.786 -0.3654  0.4967  0.3448
16712TIP3    H171551   6.825   3.151   0.822 -1.1179 -2.3204  0.3255
16712TIP3    H271552   6.716   3.255   0.836  1.4397  0.3256  1.5774
16713TIP3   OH271553   0.263   2.957  16.965 -0.0778 -0.3605  0.2111
16713TIP3    H171554   0.285   2.882  16.908 -0.4604  0.2878 -0.8178
16713TIP3    H271555   0.173   2.940  16.993 -1.2439  1.0559 -2.3367
16714TIP3   OH271556   2.416   1.087   2.534 -0.6014  0.3033 -0.1447
16714TIP3    H171557   2.433   1.011   2.478 -0.0964 -1.6947  2.5423
16714TIP3    H271558   2.321   1.085   2.549 -0.3989 -0.7132  1.0942
16715TIP3   OH271559   1.216   0.371  13.694  0.7709  0.2628 -0.3609
16715TIP3    H171560   1.152   0.348  13.762  0.7135 -2.0355 -1.1061
16715TIP3    H271561   1.174   0.345  13.612  0.4437  3.8586 -1.4917
16716TIP3   OH271562   4.068   4.526   3.022  0.0941 -0.1758 -0.3916
16716TIP3    H171563   4.047   4.537   2.929  0.6611  0.0153 -0.5016
16716TIP3    H271564   4.157   4.560   3.030 -1.1492  3.3058  0.8892
16717TIP3   OH271565   4.618   5.299   4.572  0.3778  0.3099 -0.3893
16717TIP3    H171566   4.638   5.261   4.658 -0.2448  2.4205  0.7469
16717TIP3    H271567   4.665   5.382   4.571  1.0593 -0.0363 -2.4828
16718TIP3   OH271568   0.268   4.369  14.973 -0.1578  0.0979 -0.0481
16718TIP3    H171569   0.208   4.302  14.940 -0.9118  0.9012 -0.3350
16718TIP3    H271570   0.283   4.345  15.064  0.5266 -1.1295 -0.4533
16719TIP3   OH271571   4.050   0.690   4.856  0.1611  0.1664 -0.1116
16719TIP3    H171572   3.993   0.664   4.929 -0.3203  1.3199 -0.0389
16719TIP3    H271573   4.138   0.691   4.893  0.0065  0.0448  0.2661
16720TIP3   OH271574   0.055   2.464   2.293 -0.0758  0.0628 -0.4967
16720TIP3    H171575  -0.022   2.506   2.255 -0.0475  0.6688  0.1000
16720TIP3    H271576   0.042   2.370   2.278  0.8480  0.3306 -3.7394
16721TIP3   OH271577   5.401   6.279  14.995 -0.5677 -0.3829 -0.5833
16721TIP3    H171578   5.359   6.226  14.927  0.0001  0.1545 -1.3637
16721TIP3    H271579   5.350   6.261  15.074 -1.2770 -0.9675 -1.1593
16722TIP3   OH271580   2.528   2.794  17.139  0.6503 -0.3025  0.2372
16722TIP3    H171581   2.537   2.808  17.233  2.0152  3.7098 -0.3190
16722TIP3    H271582   2.435   2.808  17.122  0.5568 -0.1287  0.8570
16723TIP3   OH271583   0.872   4.563  15.371  0.3393  0.2953  0.0612
16723TIP3    H171584   0.961   4.592  15.392  1.0048 -1.4800 -0.0765
16723TIP3    H271585   0.878   4.467  15.372 -1.9117  0.1160  1.4189
16724TIP3   OH271586   4.775   0.840  13.711 -0.4292 -0.6262  0.0243
16724TIP3    H171587   4.775   0.787  13.632 -0.0034 -1.0160  0.2822
16724TIP3    H271588   4.777   0.930  13.680 -0.6672 -0.7681 -0.4101
16725TIP3   OH271589   1.728   0.302   2.107 -0.2085  0.4961 -0.7179
16725TIP3    H171590   1.759   0.224   2.062 -1.0492 -0.8210  0.8467
16725TIP3    H271591   1.807   0.342   2.143  0.0452 -1.3717  1.0137
16726TIP3   OH271592   0.108   1.916  16.996  0.7674  0.4730 -0.3852
16726TIP3    H171593   0.107   1.914  17.092  0.2437  1.6714 -0.3416
16726TIP3    H271594   0.024   1.879  16.970  0.4333  1.1802 -0.3333
16727TIP3   OH271595   6.049   3.850   4.914  0.7702 -0.7741 -0.2114
16727TIP3    H171596   6.123   3.789   4.910  1.1748 -0.2715 -0.8396
16727TIP3    H271597   6.028   3.867   4.822  1.0820  0.4994 -0.0686
16728TIP3   OH271598   5.643   2.726  13.983 -0.3864  0.7493  0.5006
16728TIP3    H171599   5.682   2.647  13.947  0.8508  1.4581  0.2342
16728TIP3    H271600   5.584   2.757  13.915 -3.3031 -1.5608  1.7719
16729TIP3   OH271601   1.464   4.436  13.548  0.1860 -0.0484  0.3176
16729TIP3    H171602   1.417   4.456  13.629  0.8182 -1.2410  1.0026
16729TIP3    H271603   1.448   4.343  13.533  2.7301 -0.6472  0.8813
16730TIP3   OH271604   1.715   3.957   2.071 -0.0696  0.4579  0.4611
16730TIP3    H171605   1.761   3.905   2.137 -2.1999  0.2714  1.9024
16730TIP3    H271606   1.740   4.048   2.090  1.2809  0.2286 -0.1188
16731TIP3   OH271607   2.972   5.757  16.441 -0.1260 -0.3637  0.2456
16731TIP3    H171608   2.962   5.740  16.347 -0.3325  3.7920 -0.6599
16731TIP3    H271609   2.885   5.739  16.478 -1.0092  1.0051 -1.0270
16732TIP3   OH271610   5.795   4.005   3.382  0.0408 -0.4953  0.6277
16732TIP3    H171611   5.743   3.999   3.462 -1.2089  0.0946 -0.1115
16732TIP3    H271612   5.821   4.097   3.378  0.2932 -0.5743  0.4726
16733TIP3   OH271613   4.243   5.564  12.920 -0.0662  0.3854 -0.1062
16733TIP3    H171614   4.239   5.468  12.917  0.3214  0.3652 -0.0746
16733TIP3    H271615   4.153   5.593  12.903 -0.7968 -0.0443  2.4798
16734TIP3   OH271616   3.726   4.609  14.508  0.2873  0.6370  0.4037
16734TIP3    H171617   3.816   4.582  14.524 -0.7579 -3.1831  0.7526
16734TIP3    H271618   3.728   4.645  14.419  1.7791 -1.7512 -0.6330
16735TIP3   OH271619   2.880   6.100  15.475 -0.4705  0.4946 -0.1108
16735TIP3    H171620   2.852   6.086  15.566 -0.1922 -0.2175 -0.1274
16735TIP3    H271621   2.961   6.049  15.467 -0.5473  0.4714 -0.7903
16736TIP3   OH271622   3.230   3.085  14.895 -0.5196 -0.1032  0.0512
16736TIP3    H171623   3.304   3.055  14.844  1.4274  4.1083 -0.0323
16736TIP3    H271624   3.169   3.120  14.830 -0.9651 -0.4119  0.2999
16737TIP3   OH271625   3.505   6.315  13.143  0.5558  0.6259 -0.8115
16737TIP3    H171626   3.516   6.331  13.236  0.1896  0.1883 -0.6868
16737TIP3    H271627   3.464   6.228  13.138  0.6725  0.5956 -1.3815
16738TIP3   OH271628   5.446   5.485   0.759 -0.5339 -0.2322  0.7229
16738TIP3    H171629   5.415   5.415   0.816 -2.3154 -0.6064 -0.6154
16738TIP3    H271630   5.426   5.566   0.807 -1.6350 -0.5590  0.8422
16739TIP3   OH271631   5.932   1.660  15.260 -0.1352 -0.2992  0.3012
16739TIP3    H171632   5.933   1.599  15.333  2.0865  1.0546  1.4855
16739TIP3    H271633   5.870   1.727  15.285  1.0730  0.4856  1.2803
16740TIP3   OH271634   6.176   0.338  15.441  0.3704 -0.2757 -0.4989
16740TIP3    H171635   6.155   0.248  15.415  0.9170 -0.8394  0.9425
16740TIP3    H271636   6.270   0.347  15.424  0.6399 -0.5044  0.8215
16741TIP3   OH271637   0.571   5.692  14.244 -0.2108 -0.1168 -0.5387
16741TIP3    H171638   0.646   5.748  14.266  0.4488 -1.6539  1.4365
16741TIP3    H271639   0.499   5.726  14.298 -0.9205  1.1878 -2.2325
16742TIP3   OH271640   4.405   4.579  15.883 -0.8403  0.5263  0.2325
16742TIP3    H171641   4.399   4.674  15.877 -1.7404  0.5057  0.5413
16742TIP3    H271642   4.494   4.561  15.912  0.0928  1.1570 -2.0070
16743TIP3   OH271643   3.569   0.062  10.986  0.4957  0.6301  0.5741
16743TIP3    H171644   3.649   0.114  10.975  1.3088 -0.9443 -1.5926
16743TIP3    H271645   3.596  -0.028  10.965 -1.1281 -0.5262  3.0541
16744TIP3   OH271646   5.363   2.549   3.234 -0.2660  0.4236  0.2469
16744TIP3    H171647   5.454   2.521   3.221 -0.6299  0.1053 -1.9607
16744TIP3    H271648   5.311   2.469   3.227 -0.9619  1.0066 -1.9259
16745TIP3   OH271649   0.523   2.589  14.555  0.3192 -0.3400 -0.0527
16745TIP3    H171650   0.578   2.656  14.514 -0.3564  0.2580  0.0056
16745TIP3    H271651   0.472   2.636  14.621 -2.1364 -0.3350 -1.8043
16746TIP3   OH271652   6.491   4.866   0.385  0.1433  0.7337 -0.2033
16746TIP3    H171653   6.404   4.890   0.352 -0.0502 -0.6895 -0.7936
16746TIP3    H271654   6.537   4.834   0.307 -0.4325 -3.0787  0.8576
16747TIP3   OH271655   5.583   5.231  13.467  0.2885  0.0893  0.6467
16747TIP3    H171656   5.637   5.191  13.400 -0.0369  0.0974  0.3796
16747TIP3    H271657   5.577   5.165  13.537 -0.1577 -0.2935  0.2563
16748TIP3   OH271658   5.087   3.504   6.062 -0.5129  0.0759 -0.2512
16748TIP3    H171659   5.088   3.461   6.147 -2.3409  0.1425 -0.1712
16748TIP3    H271660   5.055   3.593   6.080  0.3855  0.5385 -0.8289
16749TIP3   OH271661   5.561   5.807   1.457  0.4360 -0.0899 -0.4372
16749TIP3    H171662   5.515   5.733   1.417 -2.0339  1.2185 -0.2544
16749TIP3    H271663   5.587   5.776   1.544 -0.1332 -0.8994 -0.5477
16750TIP3   OH271664   4.025   5.514   1.212 -0.4347 -0.2046 -0.2071
16750TIP3    H171665   3.946   5.463   1.228 -1.1066  0.6773 -0.6400
16750TIP3    H271666   3.999   5.581   1.149 -0.4456  2.6833  2.5914
16751TIP3   OH271667   6.362   3.321  12.519 -0.3829 -0.1305  0.0850
16751TIP3    H171668   6.455   3.340  12.528 -0.0777 -2.0286  1.5405
16751TIP3    H271669   6.333   3.300  12.608 -1.7204 -1.5440 -0.6373
16752TIP3   OH271670   0.699   6.227  13.076  0.3538 -0.2513  0.0823
16752TIP3    H171671   0.605   6.215  13.058  0.7054 -1.5017 -1.1110
16752TIP3    H271672   0.705   6.228  13.171 -0.9571  0.7380  0.1946
16753TIP3   OH271673   1.034   3.222   4.815 -0.1787 -0.5302 -0.3871
16753TIP3    H171674   1.078   3.152   4.863  0.0140 -0.6471 -0.7295
16753TIP3    H271675   1.098   3.249   4.748 -0.1877  0.0819 -0.1575
16754TIP3   OH271676   1.855   6.257   3.715  0.5454  0.8210  0.3551
16754TIP3    H171677   1.841   6.306   3.796  0.3475 -0.5642  1.2012
16754TIP3    H271678   1.870   6.167   3.744  1.3433  0.4471 -1.1144
16755TIP3   OH271679   2.470   4.795   5.922  0.3783 -0.1141 -0.2242
16755TIP3    H171680   2.503   4.806   6.011  0.8171  2.7383 -0.6372
16755TIP3    H271681   2.481   4.702   5.903 -2.7448 -1.5926  3.8040
16756TIP3   OH271682   1.047   4.821  15.789  0.1018 -0.4002  0.4719
16756TIP3    H171683   1.066   4.901  15.837  0.1994 -0.6727  0.8911
16756TIP3    H271684   0.954   4.828  15.767  0.2913  0.1741 -0.1586
16757TIP3   OH271685   2.098   1.548   0.371 -0.5043  0.1031 -0.2840
16757TIP3    H171686   2.042   1.532   0.295 -0.9886  0.0840  0.0714
16757TIP3    H271687   2.128   1.638   0.361  1.4692 -0.6496 -1.8072
16758TIP3   OH271688   3.843   2.499   0.504  0.0234  0.2674 -0.0081
16758TIP3    H171689   3.934   2.500   0.474  0.0325 -1.5171 -0.1075
16758TIP3    H271690   3.793   2.532   0.429  0.5078  0.4953 -0.2382
16759TIP3   OH271691   4.150   5.446   5.314  0.1406 -0.5229  0.6781
16759TIP3    H171692   4.142   5.409   5.402  1.6937 -0.2980  0.9454
16759TIP3    H271693   4.242   5.434   5.291 -0.0855  0.0674 -0.6374
16760TIP3   OH271694   3.444   0.959   3.997  0.0195 -0.1079  0.1298
16760TIP3    H171695   3.492   0.903   4.058  1.4325  1.1320  0.2157
16760TIP3    H271696   3.377   1.001   4.051  0.9301  0.5910  0.7513
16761TIP3   OH271697   0.181   4.044   5.918 -0.1096 -0.1290 -0.3022
16761TIP3    H171698   0.226   4.095   5.984 -1.4606  1.2425 -0.3800
16761TIP3    H271699   0.123   4.107   5.874  0.6514 -1.0122 -2.7142
16762TIP3   OH271700   0.400   1.429  16.568  0.6621 -0.3275 -0.1623
16762TIP3    H171701   0.309   1.399  16.572  0.9088 -1.1460 -0.4413
16762TIP3    H271702   0.425   1.419  16.477  0.8195  0.5644 -0.2193
16763TIP3   OH271703   0.414   1.977  16.416 -0.7992 -0.0998 -0.1875
16763TIP3    H171704   0.509   1.983  16.407 -0.5569 -0.6596  1.4801
16763TIP3    H271705   0.399   1.888  16.448 -1.7737  0.3472  0.6601
16764TIP3   OH271706   4.429   3.624  15.969  0.0292 -0.2014  0.1619
16764TIP3    H171707   4.411   3.531  15.956  0.1894 -0.1828 -0.2149
16764TIP3    H271708   4.486   3.648  15.896  0.6125  0.0173  0.6787
16765TIP3   OH271709   6.068   5.251  15.655 -0.8343  0.1292  0.2167
16765TIP3    H171710   6.119   5.279  15.580 -1.1531 -0.3033 -0.1675
16765TIP3    H271711   5.999   5.317  15.664 -0.2707  0.6577  0.6745
16766TIP3   OH271712   5.887   6.394  15.896 -0.8904 -0.3955  0.6961
16766TIP3    H171713   5.868   6.322  15.836 -0.9954 -1.0298  1.4859
16766TIP3    H271714   5.869   6.473  15.844 -1.6239 -0.9395  0.0978
16767TIP3   OH271715   1.399   3.864  15.473  0.0598 -0.5611 -0.1714
16767TIP3    H171716   1.480   3.900  15.436  0.0421  0.7032  0.8971
16767TIP3    H271717   1.377   3.925  15.544 -1.3381 -1.3933  0.1488
16768TIP3   OH271718   3.821   4.546   0.376  0.4222 -0.0434 -0.1495
16768TIP3    H171719   3.856   4.624   0.420 -0.3104  0.7029 -0.8330
16768TIP3    H271720   3.856   4.472   0.425  1.3657  0.7164  0.3504
16769TIP3   OH271721   3.626   1.487   2.592  0.0756 -0.2065 -0.2890
16769TIP3    H171722   3.578   1.539   2.528 -0.2895 -1.4379 -1.0423
16769TIP3    H271723   3.619   1.397   2.561  0.5223 -0.7518  1.0903
16770TIP3   OH271724   3.747   6.630  17.280 -0.0566  0.0745 -0.4566
16770TIP3    H171725   3.816   6.693  17.261 -0.4875  0.8062  0.3169
16770TIP3    H271726   3.747   6.622  17.375 -1.7002  0.8954 -0.3412
16771TIP3   OH271727   4.414   1.633  13.451 -0.0960  0.1948  0.3358
16771TIP3    H171728   4.501   1.605  13.480 -0.6600 -0.4139  1.5313
16771TIP3    H271729   4.414   1.728  13.463  0.3765  0.1870  0.4163
16772TIP3   OH271730   1.032   4.151  12.862 -0.4959 -0.3198  0.4909
16772TIP3    H171731   1.035   4.157  12.957  1.1726 -2.1175  0.6161
16772TIP3    H271732   0.959   4.092  12.843 -2.1739  1.6490  0.4767
16773TIP3   OH271733   1.631   2.994  12.445 -0.6098  0.3246 -0.4682
16773TIP3    H171734   1.715   2.950  12.430 -0.5151 -0.4916  2.1022
16773TIP3    H271735   1.654   3.078  12.484 -0.9165 -0.8552  2.5249
16774TIP3   OH271736   2.665   2.880  12.082  0.5594 -0.4600  0.3333
16774TIP3    H171737   2.746   2.915  12.045 -0.0971 -0.8773 -1.6019
16774TIP3    H271738   2.604   2.954  12.081  0.3255 -0.6549 -0.1243
16775TIP3   OH271739   3.861   1.815   5.229  0.6168  0.0051  0.2302
16775TIP3    H171740   3.780   1.766   5.217  1.0667 -0.5057 -0.7808
16775TIP3    H271741   3.867   1.872   5.152  1.8748 -0.9223 -0.3943
16776TIP3   OH271742   6.471   5.358  17.322 -0.0391  0.5208 -0.0101
16776TIP3    H171743   6.511   5.437  17.357  1.6912  0.2765 -1.3160
16776TIP3    H271744   6.490   5.290  17.386 -1.9302  1.1614  1.3525
16777TIP3   OH271745   3.909   0.789   3.138 -0.3592 -0.3517  0.1297
16777TIP3    H171746   3.953   0.846   3.075 -1.5402  1.7304  1.0572
16777TIP3    H271747   3.910   0.702   3.098 -1.8371  1.0054 -3.2055
16778TIP3   OH271748   4.833   0.663  13.482  0.9483 -0.0831 -0.1636
16778TIP3    H171749   4.928   0.656  13.479  0.9698  0.4475 -0.8036
16778TIP3    H271750   4.807   0.686  13.393  0.1290 -1.2305 -0.2423
16779TIP3   OH271751   5.097   2.619   0.352  0.3949  0.6058  0.1744
16779TIP3    H171752   5.012   2.621   0.309  0.3360 -0.7272  0.1832
16779TIP3    H271753   5.076   2.621   0.446  0.4412  1.6664  0.1663
16780TIP3   OH271754   1.778   0.216   1.721  0.1162  0.0627  0.0722
16780TIP3    H171755   1.707   0.174   1.769 -0.0933 -0.3936 -0.6152
16780TIP3    H271756   1.837   0.250   1.788 -0.8366  0.6026  0.6528
16781TIP3   OH271757   0.426   2.864   2.633 -0.0612  0.1280 -0.2005
16781TIP3    H171758   0.521   2.867   2.620 -0.0065 -0.8543 -0.1320
16781TIP3    H271759   0.390   2.845   2.547 -0.0527 -1.3178  0.0876
16782TIP3   OH271760   1.482   0.167  13.318  0.2152 -0.4230  0.1801
16782TIP3    H171761   1.445   0.128  13.239 -0.3051 -0.1296  0.2805
16782TIP3    H271762   1.485   0.261  13.300  1.3622 -0.4793 -0.0145
16783TIP3   OH271763   1.786   2.179  11.834  0.7281  0.1125 -0.0430
16783TIP3    H171764   1.841   2.188  11.756 -0.2817  0.5857 -0.7320
16783TIP3    H271765   1.774   2.085  11.844  1.8081 -0.0089  0.2348
16784TIP3   OH271766   3.468   4.484  14.782  0.1197  0.5497 -0.2320
16784TIP3    H171767   3.534   4.513  14.843 -1.9419  1.0133  1.9200
16784TIP3    H271768   3.422   4.563  14.755  0.7390  0.3135 -2.1682
16785TIP3   OH271769   5.938   4.321  12.992 -0.0904  0.0997  0.5554
16785TIP3    H171770   5.849   4.333  12.959  0.0957  0.4703  0.1846
16785TIP3    H271771   5.931   4.249  13.055 -0.7825  0.5872  1.0491
16786TIP3   OH271772   0.655   1.778   2.601  0.0839 -0.1269 -0.0690
16786TIP3    H171773   0.627   1.802   2.513  1.6120  0.4156 -0.4526
16786TIP3    H271774   0.702   1.695   2.590 -0.8751 -0.7536  0.4625
16787TIP3   OH271775   5.591   6.471  12.043  0.4213  0.3919  0.1923
16787TIP3    H171776   5.617   6.415  11.970  3.0817 -0.2516  1.4851
16787TIP3    H271777   5.620   6.558  12.018  0.2111  0.3954 -0.0374
16788TIP3   OH271778   0.378   0.913   0.809  0.2053  0.1142  0.2306
16788TIP3    H171779   0.392   0.918   0.715 -2.0683  0.3250 -0.1659
16788TIP3    H271780   0.350   0.822   0.825 -0.8260  0.4481  0.4348
16789TIP3   OH271781   1.634   2.081  14.353  0.3641  0.0547  0.5505
16789TIP3    H171782   1.626   1.989  14.380 -0.6962 -0.3221 -0.9429
16789TIP3    H271783   1.552   2.121  14.380 -0.5019 -0.2098 -1.5341
16790TIP3   OH271784   5.002   4.709  13.503 -0.0758  0.7370  0.6864
16790TIP3    H171785   5.008   4.733  13.410 -1.4922 -0.0906  0.3380
16790TIP3    H271786   4.946   4.631  13.503 -0.9862  1.3398  2.3162
16791TIP3   OH271787   2.191   2.949  12.144  0.6589 -0.4687  0.5119
16791TIP3    H171788   2.231   2.864  12.160 -0.4075 -0.7943  1.5424
16791TIP3    H271789   2.226   3.006  12.212  1.3866 -0.0536 -0.1866
16792TIP3   OH271790   3.239   5.307   0.463 -0.3216  0.3800 -0.0396
16792TIP3    H171791   3.179   5.279   0.532  1.2394  0.1598  1.2893
16792TIP3    H271792   3.284   5.383   0.500 -1.1982  1.8633 -1.8095
16793TIP3   OH271793   1.558   4.438  11.103 -0.6620 -0.1604 -0.2310
16793TIP3    H171794   1.641   4.482  11.083 -0.6914  1.5708  2.8462
16793TIP3    H271795   1.491   4.503  11.086 -1.3485 -1.1672 -1.5590
16794TIP3   OH271796   3.267   5.590  14.247  0.0784  0.6547  0.8196
16794TIP3    H171797   3.262   5.627  14.335  1.0905 -0.6412  1.4616
16794TIP3    H271798   3.270   5.495  14.261 -1.1990  0.3441 -0.7002
16795TIP3   OH271799   1.793   6.671   2.564 -0.0201  0.1342 -0.1930
16795TIP3    H171800   1.797   6.583   2.527  2.2626  0.2255 -0.3508
16795TIP3    H271801   1.852   6.667   2.640 -0.9761  1.1756  0.6355
16796TIP3   OH271802   2.850   0.046   4.937 -0.1979  0.0326 -0.3958
16796TIP3    H171803   2.835  -0.044   4.965 -0.1814  0.6561  1.7537
16796TIP3    H271804   2.785   0.061   4.868  0.3406 -1.8485 -1.3884
16797TIP3   OH271805   6.172   1.642   1.683  0.1681  0.6068  0.2081
16797TIP3    H171806   6.258   1.601   1.694  0.6010  0.6910 -2.2428
16797TIP3    H271807   6.133   1.596   1.609 -1.2021  1.6732  0.2356
16798TIP3   OH271808   4.127   4.590  16.537 -0.1561  0.4450  0.0948
16798TIP3    H171809   4.108   4.562  16.626  1.5051  2.4331  1.1645
16798TIP3    H271810   4.223   4.583  16.530 -0.2115  0.7702 -1.3653
16799TIP3   OH271811   4.800   1.523   2.509  0.0465  0.0741 -0.3454
16799TIP3    H171812   4.749   1.583   2.454 -0.2553  0.4561  0.3468
16799TIP3    H271813   4.882   1.570   2.524  0.5067 -0.4169 -1.2137
16800TIP3   OH271814   0.691   2.022   5.538  0.4992 -0.0626 -0.2515
16800TIP3    H171815   0.779   2.011   5.503  0.3561 -0.7071 -0.4075
16800TIP3    H271816   0.667   1.936   5.570 -0.5363 -0.1662 -1.2701
16801TIP3   OH271817   4.172   0.044  16.828  0.3022 -0.1174 -0.0574
16801TIP3    H171818   4.265   0.039  16.850  0.0899 -0.7501  0.7249
16801TIP3    H271819   4.130  -0.020  16.885 -0.5810 -0.0549 -0.6182
16802TIP3   OH271820   3.886   3.768   3.644 -0.3797 -0.1350 -0.1899
16802TIP3    H171821   3.813   3.711   3.620 -2.4527  2.1920  0.2163
16802TIP3    H271822   3.849   3.831   3.705  2.6363 -0.4265  2.2216
16803TIP3   OH271823   2.136   0.150   4.009  0.1606 -0.2113  0.3452
16803TIP3    H171824   2.060   0.206   4.020  0.3973  0.1469  0.1758
16803TIP3    H271825   2.116   0.097   3.932  0.5027  0.5859 -0.3032
16804TIP3   OH271826   0.703   3.610   0.457  0.4632  0.0528 -0.1288
16804TIP3    H171827   0.779   3.552   0.465  0.8109  0.6919  1.3941
16804TIP3    H271828   0.694   3.623   0.362  2.3908  0.1364 -0.3527
16805TIP3   OH271829   0.198   5.376  16.910  0.0410 -0.0228  0.2751
16805TIP3    H171830   0.104   5.391  16.919  0.1990  1.4792 -0.2299
16805TIP3    H271831   0.226   5.442  16.846  1.4090 -0.5436  0.3204
16806TIP3   OH271832   0.761   2.299   2.875  0.0018 -0.1295  0.6805
16806TIP3    H171833   0.700   2.230   2.851  0.4684 -0.6094  0.8633
16806TIP3    H271834   0.712   2.380   2.862 -0.0176 -0.3925 -1.1781
16807TIP3   OH271835   3.283   6.775   5.282  0.0670  0.3466  0.3040
16807TIP3    H171836   3.224   6.759   5.208  0.8990 -0.1303 -0.2666
16807TIP3    H271837   3.265   6.866   5.307  0.9635  1.1191 -1.5881
16808TIP3   OH271838   5.829   0.127   1.592 -0.5179 -0.1939  0.3128
16808TIP3    H171839   5.781   0.210   1.593 -1.3535 -0.6594 -0.2555
16808TIP3    H271840   5.796   0.080   1.668  0.6200  0.3371  1.1745
16809TIP3   OH271841   6.343   5.876   1.708  0.4470  0.2414  0.3794
16809TIP3    H171842   6.377   5.872   1.619  0.3554 -2.3143  0.3861
16809TIP3    H271843   6.268   5.936   1.702  0.2751 -0.0902 -1.3193
16810TIP3   OH271844   4.489   4.333  17.224 -0.0757 -0.1479 -0.0649
16810TIP3    H171845   4.474   4.409  17.167 -4.3405 -0.7147 -0.0220
16810TIP3    H271846   4.492   4.370  17.312  0.9475  0.2071 -0.2355
16811TIP3   OH271847   2.065   4.400   5.570 -0.3985 -0.6713  0.1300
16811TIP3    H171848   1.974   4.419   5.544 -0.8317 -0.9138  1.3880
16811TIP3    H271849   2.105   4.362   5.492 -1.2424 -0.1369 -0.5880
16812TIP3   OH271850   5.387   5.715   5.897 -0.2949 -0.0993  0.3029
16812TIP3    H171851   5.364   5.707   5.804 -0.8743 -1.2329  0.5211
16812TIP3    H271852   5.311   5.757   5.937 -0.1269  0.2066  0.3047
16813TIP3   OH271853   2.799   0.011  14.028 -0.0334 -0.2544  0.5598
16813TIP3    H171854   2.723  -0.044  14.009 -1.0565  0.1516  2.9971
16813TIP3    H271855   2.857   0.001  13.952 -1.4493 -2.4417 -0.3200
16814TIP3   OH271856   3.213   2.114   2.978  0.1281  0.2120  0.6489
16814TIP3    H171857   3.276   2.131   3.047  0.5092  0.3042  0.2794
16814TIP3    H271858   3.253   2.045   2.925 -0.2326  0.0276  0.6131
16815TIP3   OH271859   5.101   2.356  10.722  0.2532  0.1773 -0.1131
16815TIP3    H171860   5.072   2.328  10.635 -0.6667 -0.4431  0.3775
16815TIP3    H271861   5.024   2.349  10.777  0.8751  0.3608  0.8152
16816TIP3   OH271862   4.716   4.947  14.323  0.0590 -0.4150  0.0527
16816TIP3    H171863   4.711   4.947  14.418  2.0242 -1.9948  0.2269
16816TIP3    H271864   4.709   4.854  14.298  0.9090 -0.1678 -1.2141
16817TIP3   OH271865   3.177   6.471  15.710 -0.3525 -0.7152 -0.2060
16817TIP3    H171866   3.088   6.508  15.712  0.2633  1.1579 -2.6126
16817TIP3    H271867   3.235   6.546  15.723  0.8971 -1.5745 -0.6204
16818TIP3   OH271868   0.897   4.528   1.540  0.4077  0.5223  0.1666
16818TIP3    H171869   0.855   4.470   1.477 -1.3557  2.9583 -1.0675
16818TIP3    H271870   0.966   4.573   1.490  0.0804  1.2963  0.3942
16819TIP3   OH271871   5.897   2.309   4.012 -0.4461 -0.1576  0.2459
16819TIP3    H171872   5.871   2.368   3.941  2.9042 -0.2708 -1.2556
16819TIP3    H271873   5.884   2.222   3.976 -1.2888 -0.2787  0.8268
16820TIP3   OH271874   5.358   6.032  13.248 -0.5943 -0.2050  0.3815
16820TIP3    H171875   5.397   6.117  13.228 -0.3793 -0.4405 -0.1987
16820TIP3    H271876   5.345   6.035  13.343 -1.7352  0.9566  0.2148
16821TIP3   OH271877   2.746   1.090  13.863 -0.2721 -0.3977 -0.1486
16821TIP3    H171878   2.715   1.007  13.898 -2.5057  0.5433  0.2658
16821TIP3    H271879   2.784   1.135  13.938  0.9450 -1.0161 -0.3746
16822TIP3   OH271880   5.810   3.970   5.499 -0.3211 -0.1679 -0.4372
16822TIP3    H171881   5.789   4.054   5.457  0.1417  0.0036 -0.3390
16822TIP3    H271882   5.726   3.934   5.525 -0.4372  1.1243  1.1504
16823TIP3   OH271883   1.585   4.715  14.488 -0.4969  0.1752  0.5861
16823TIP3    H171884   1.527   4.789  14.470  1.1514  1.2807 -0.4027
16823TIP3    H271885   1.575   4.658  14.412 -0.3260  0.3521  0.4287
16824TIP3   OH271886   1.996   4.483  11.449  0.2675  0.0442  0.2158
16824TIP3    H171887   2.013   4.441  11.533 -1.4917  1.2562  1.2519
16824TIP3    H271888   1.916   4.443  11.418  0.5188  0.1194 -0.5437
16825TIP3   OH271889   5.281   6.704   0.117 -0.1746  0.1261  0.0075
16825TIP3    H171890   5.370   6.668   0.117  0.5033  1.7150 -0.4017
16825TIP3    H271891   5.233   6.649   0.056  1.1712  0.6643 -1.6210
16826TIP3   OH271892   0.958   6.303  14.996 -0.7775  0.2287  0.3209
16826TIP3    H171893   0.944   6.223  14.945 -1.9131 -0.2259  1.3006
16826TIP3    H271894   0.870   6.338  15.010 -0.4803  0.4611  1.7515
16827TIP3   OH271895   3.116   5.875  16.633  0.1345  0.7857 -0.0520
16827TIP3    H171896   3.070   5.952  16.667 -1.4981 -0.6251  1.0981
16827TIP3    H271897   3.058   5.840  16.566  0.9566  0.6347 -0.6993
16828TIP3   OH271898   1.347   6.225   2.380  0.1791  0.3982  1.0238
16828TIP3    H171899   1.284   6.234   2.451  0.2855 -1.3941  1.4000
16828TIP3    H271900   1.294   6.212   2.301  0.0710  0.8725  1.0186
16829TIP3   OH271901   2.739   5.825   2.372  0.1328  0.6324  0.4760
16829TIP3    H171902   2.831   5.800   2.362 -0.6495 -1.7749 -2.3432
16829TIP3    H271903   2.698   5.749   2.413 -0.9392  0.7887 -0.2621
16830TIP3   OH271904   3.082   0.336   1.609 -0.1735  0.0628  0.0581
16830TIP3    H171905   3.100   0.337   1.703 -0.3466  1.1633  0.0834
16830TIP3    H271906   2.986   0.337   1.603 -0.2342 -1.8326 -0.1323
16831TIP3   OH271907   6.255   0.759   2.561 -0.1492 -0.0204 -0.0742
16831TIP3    H171908   6.193   0.828   2.583  1.7392  1.2532  1.6411
16831TIP3    H271909   6.258   0.759   2.465 -0.9499  1.5868 -0.1296
16832TIP3   OH271910   0.183   4.492  14.197 -0.2039 -0.1039  0.2198
16832TIP3    H171911   0.188   4.472  14.103 -1.4844 -1.5092  0.4092
16832TIP3    H271912   0.199   4.587  14.202 -0.1012  0.0010 -1.4073
16833TIP3   OH271913   1.876   5.160   1.575 -0.2022  0.7265  0.1405
16833TIP3    H171914   1.906   5.170   1.665  0.3095  1.9563 -0.1412
16833TIP3    H271915   1.810   5.228   1.563  0.6489  1.4345 -0.7640
16834TIP3   OH271916   1.019   6.457  13.111 -0.8724  0.0992  0.4574
16834TIP3    H171917   1.000   6.397  13.183 -0.6688  0.1392  0.5439
16834TIP3    H271918   0.936   6.503  13.096 -0.7328  0.6068  1.1499
16835TIP3   OH271919   3.312   5.692  12.682  0.2402 -0.6980  0.2007
16835TIP3    H171920   3.240   5.659  12.628  0.5234 -0.0736 -0.5815
16835TIP3    H271921   3.385   5.702  12.620  0.3650  0.7033  0.5446
16836TIP3   OH271922   1.075   2.983  12.157  0.0648 -0.3846  0.3334
16836TIP3    H171923   1.009   2.968  12.224 -1.6137 -0.2583 -1.1976
16836TIP3    H271924   1.069   2.906  12.100  1.7436 -0.6936  0.5147
16837TIP3   OH271925   6.129   0.510  12.604  0.2091  0.2311 -0.0565
16837TIP3    H171926   6.058   0.453  12.573 -3.0220  3.2207  1.2290
16837TIP3    H271927   6.144   0.482  12.694  2.8403 -2.1834 -1.0812
16838TIP3   OH271928   3.943   2.779   1.757 -0.1660 -0.0781 -0.3943
16838TIP3    H171929   3.954   2.687   1.734  1.5654  0.3835 -1.5909
16838TIP3    H271930   3.852   2.799   1.734 -0.4750 -1.3981 -0.3899
16839TIP3   OH271931   1.779   5.693  13.333 -0.2967  0.3973  0.0341
16839TIP3    H171932   1.821   5.733  13.409  0.9012 -1.8908  0.6783
16839TIP3    H271933   1.686   5.693  13.354 -0.0865  0.7868  1.0208
16840TIP3   OH271934   1.601   3.354   4.412  0.3414  0.3880 -0.5251
16840TIP3    H171935   1.662   3.398   4.352  1.8363 -1.9299 -0.8045
16840TIP3    H271936   1.549   3.298   4.355 -0.5022  0.6330 -0.0032
16841TIP3   OH271937   6.619   3.496  11.950  0.3788  0.3480  0.0183
16841TIP3    H171938   6.630   3.580  11.906 -1.1892  0.8866  0.5654
16841TIP3    H271939   6.537   3.461  11.916  1.7956 -1.8119 -1.4561
16842TIP3   OH271940   3.627   4.296   3.848 -0.6021 -0.1693  0.1473
16842TIP3    H171941   3.565   4.246   3.900 -0.8447  2.0810  2.2240
16842TIP3    H271942   3.596   4.386   3.855  1.7580  0.7593 -0.4065
16843TIP3   OH271943   1.362   5.710  12.812  0.3999 -0.4234  0.2827
16843TIP3    H171944   1.277   5.665  12.818  0.5318 -0.5663  1.2567
16843TIP3    H271945   1.344   5.788  12.760 -0.7524  0.4924  1.9452
16844TIP3   OH271946   0.226   1.972   1.648  0.2636 -0.0532 -0.1079
16844TIP3    H171947   0.223   2.004   1.738 -1.6220 -0.5749  0.0429
16844TIP3    H271948   0.313   1.932   1.640  1.1465  1.5794  0.9010
16845TIP3   OH271949   6.025   5.264  13.832 -0.0942 -0.0125 -0.1131
16845TIP3    H171950   5.952   5.323  13.813  1.1556  1.4277 -0.6545
16845TIP3    H271951   6.061   5.243  13.746  0.2925 -0.5056  0.1650
16846TIP3   OH271952   2.615   4.189  13.806 -0.2120  0.5345 -0.0432
16846TIP3    H171953   2.621   4.146  13.892 -1.2967  1.3180  0.4565
16846TIP3    H271954   2.532   4.238  13.810  0.8013  2.4200 -0.6736
16847TIP3   OH271955   2.476   6.736  16.020 -0.0224  0.5750 -0.3930
16847TIP3    H171956   2.538   6.801  15.987  2.5283 -2.1412 -1.5112
16847TIP3    H271957   2.426   6.709  15.942 -0.1415  0.3165 -0.2300
16848TIP3   OH271958   1.266   1.724   5.580  0.9301  0.4985 -0.0058
16848TIP3    H171959   1.324   1.662   5.537 -0.6374  0.2272 -1.9106
16848TIP3    H271960   1.280   1.806   5.532 -0.2016  0.4217 -0.5081
16849TIP3   OH271961   2.506   4.795  14.965  0.1225 -0.1965 -0.4070
16849TIP3    H171962   2.488   4.773  14.874  0.7509  1.1391 -0.8936
16849TIP3    H271963   2.596   4.766  14.979  0.7262  1.3649 -0.8544
16850TIP3   OH271964   6.210   3.341   5.836 -0.3757 -0.7697  0.0907
16850TIP3    H171965   6.142   3.407   5.845  0.0491 -0.5043  1.9120
16850TIP3    H271966   6.291   3.388   5.856  0.3381 -1.1413 -1.7541
16851TIP3   OH271967   6.683   3.805   5.560  0.5160 -0.3781 -0.6533
16851TIP3    H171968   6.655   3.756   5.482 -0.8588 -0.5123 -0.1138
16851TIP3    H271969   6.733   3.878   5.526 -0.1074 -0.4066 -1.6809
16852TIP3   OH271970   4.213   6.529  15.673  0.1831  0.2305 -0.0397
16852TIP3    H171971   4.199   6.565  15.761 -0.3008 -0.6239  0.2432
16852TIP3    H271972   4.306   6.508  15.669  1.0353  3.5755 -1.0177
16853TIP3   OH271973   5.921   2.024  14.313  0.1905  0.3512  0.0338
16853TIP3    H171974   5.896   1.947  14.365  0.5892  0.1539 -0.0647
16853TIP3    H271975   5.930   1.990  14.224  1.7406  0.2173  0.2252
16854TIP3   OH271976   4.405   4.973  14.766 -0.3742  0.0833  0.0967
16854TIP3    H171977   4.367   4.885  14.771 -0.4774 -0.0106 -1.7584
16854TIP3    H271978   4.336   5.027  14.727  0.0358  0.7714  0.3114
16855TIP3   OH271979   3.995   0.056   2.228 -0.4399 -0.3678  0.1656
16855TIP3    H171980   3.945   0.077   2.306  1.8718 -1.1640  1.9835
16855TIP3    H271981   3.980  -0.038   2.214 -1.8660  0.0223 -1.1862
16856TIP3   OH271982   0.320   6.552  15.756  0.2293  0.5659  0.6489
16856TIP3    H171983   0.307   6.526  15.847 -1.2849  1.4958  0.7194
16856TIP3    H271984   0.271   6.633  15.747  1.0400  0.9241 -0.7943
16857TIP3   OH271985   0.583   0.601  15.361 -0.2401 -0.0594 -0.3841
16857TIP3    H171986   0.609   0.515  15.393 -0.7317 -0.1958 -0.3321
16857TIP3    H271987   0.646   0.622  15.292 -1.0693 -1.1960 -1.5389
16858TIP3   OH271988   3.305   3.164  12.988  0.7762 -0.0555 -0.0386
16858TIP3    H171989   3.363   3.150  12.913 -0.9441 -0.8542 -1.2884
16858TIP3    H271990   3.280   3.075  13.015 -0.2135  0.2760  0.1633
16859TIP3   OH271991   0.104   1.974  11.114  0.4089 -0.0625 -0.2968
16859TIP3    H171992   0.012   1.955  11.092  0.7125 -1.0386 -0.8018
16859TIP3    H271993   0.154   1.915  11.057  1.3893  1.1985 -0.7623
16860TIP3   OH271994   0.741   3.787  16.649 -0.4612 -0.3459 -0.1417
16860TIP3    H171995   0.768   3.873  16.682 -3.2641  0.6273 -0.0752
16860TIP3    H271996   0.674   3.807  16.583 -2.0373 -2.4666  0.6971
16861TIP3   OH271997   5.789   2.122  15.310  0.0164  0.3500  1.0470
16861TIP3    H171998   5.844   2.097  15.236 -1.9936  2.9687 -1.6049
16861TIP3    H271999   5.726   2.050  15.317 -0.9900  0.8883 -1.2635
16862TIP3   OH272000   6.288   4.360   5.094 -0.0507 -0.2246 -0.0806
16862TIP3    H172001   6.270   4.284   5.150 -1.0384 -0.2117 -0.3551
16862TIP3    H272002   6.355   4.409   5.141 -0.6217 -0.3933  0.9389
16863TIP3   OH272003   5.084   6.129   3.170 -0.4395 -0.3212  0.2406
16863TIP3    H172004   5.148   6.189   3.133  0.7856 -0.1980  2.3880
16863TIP3    H272005   5.133   6.049   3.187 -1.1169 -0.6102  0.8895
16864TIP3   OH272006   5.616   5.281  10.845  0.3988 -0.6204 -0.1008
16864TIP3    H172007   5.590   5.228  10.921  0.4809  1.2638  1.3207
16864TIP3    H272008   5.548   5.264  10.780 -1.2784 -0.1842  1.4407
16865TIP3   OH272009   5.766   6.368  14.275 -1.1789  0.4283 -0.2013
16865TIP3    H172010   5.753   6.275  14.293  1.7115 -0.2492 -1.0654
16865TIP3    H272011   5.751   6.377  14.181  1.0552  0.2288 -0.6278
16866TIP3   OH272012   5.176   6.581  14.263 -0.7957 -0.3350  0.4858
16866TIP3    H172013   5.248   6.598  14.325 -0.6267  0.7623  0.0063
16866TIP3    H272014   5.170   6.661  14.211 -0.9624 -1.2192 -0.8964
16867TIP3   OH272015   1.964   4.988   3.923  0.1250  0.3902 -0.2131
16867TIP3    H172016   1.936   4.917   3.980 -0.5812  0.7780 -0.0568
16867TIP3    H272017   1.938   5.068   3.970 -0.6909  0.7064 -1.1724
16868TIP3   OH272018   0.248   0.187   5.155  0.1724 -0.2083 -0.0584
16868TIP3    H172019   0.244   0.273   5.113 -1.1185 -0.5501 -0.6894
16868TIP3    H272020   0.329   0.148   5.123 -0.4335 -0.1732 -1.7172
16869TIP3   OH272021   5.584   0.457  14.276 -0.1506 -0.4994 -0.3937
16869TIP3    H172022   5.581   0.515  14.200 -1.7564  0.3730  0.2957
16869TIP3    H272023   5.672   0.468  14.311  0.1047  0.2340 -1.2396
16870TIP3   OH272024   1.793   1.158  12.103  0.0872  0.3480 -0.4645
16870TIP3    H172025   1.834   1.112  12.177  2.9500  1.4949 -1.1907
16870TIP3    H272026   1.817   1.106  12.026 -0.8277  0.4651 -0.8434
16871TIP3   OH272027   5.694   0.312  16.346  0.3533 -0.3804 -0.4655
16871TIP3    H172028   5.687   0.402  16.378 -0.3907 -0.4648 -0.3697
16871TIP3    H272029   5.783   0.306  16.311  0.5796  0.2380 -0.0176
16872TIP3   OH272030   2.588   0.784   3.151 -0.3982  0.7857  0.6900
16872TIP3    H172031   2.646   0.768   3.076 -0.2677  0.4870  0.8531
16872TIP3    H272032   2.640   0.759   3.227 -1.5408 -1.7802  0.7091
16873TIP3   OH272033   6.569   2.795   4.094  0.3560 -0.2370  0.1398
16873TIP3    H172034   6.613   2.827   4.172  0.6334 -0.5694  0.1205
16873TIP3    H272035   6.605   2.848   4.023  1.5786 -1.2654 -0.0363
16874TIP3   OH272036   0.770   5.670   5.384  0.7716  0.2739 -0.2299
16874TIP3    H172037   0.764   5.611   5.459  0.4976 -0.9590 -1.1962
16874TIP3    H272038   0.791   5.755   5.423 -2.8030  0.4960  1.6035
16875TIP3   OH272039   2.335   1.226   3.302  0.3228 -0.3097  0.4131
16875TIP3    H172040   2.348   1.139   3.264  0.0321 -0.4361  0.6047
16875TIP3    H272041   2.311   1.281   3.227 -0.0261 -0.5083  0.3779
16876TIP3   OH272042   3.559   6.248   0.532  0.3412 -0.0272 -0.2415
16876TIP3    H172043   3.561   6.205   0.617 -2.7554 -2.7155 -1.3118
16876TIP3    H272044   3.624   6.199   0.480  2.7683  2.0768  0.5828
16877TIP3   OH272045   4.038   0.216  11.411  0.0284  0.3279  0.3616
16877TIP3    H172046   4.088   0.298  11.421 -0.4165  0.4190  2.3026
16877TIP3    H272047   4.087   0.152  11.463 -0.5562 -0.1845  0.2857
16878TIP3   OH272048   4.669   1.849   4.726  0.2770  0.1182 -0.6591
16878TIP3    H172049   4.663   1.884   4.815  2.1594 -0.1769 -0.3687
16878TIP3    H272050   4.579   1.844   4.696 -0.2508  2.8058  0.2105
16879TIP3   OH272051   3.898   0.421  15.564 -0.0236  0.5020  0.9472
16879TIP3    H172052   3.877   0.466  15.482  1.1694  0.3274  0.5352
16879TIP3    H272053   3.812   0.398  15.601 -0.6485  2.4083  0.7867
16880TIP3   OH272054   4.432   1.745  12.295  0.2203 -0.4422  0.1131
16880TIP3    H172055   4.471   1.832  12.284 -0.9847 -0.0175 -1.0896
16880TIP3    H272056   4.494   1.686  12.253  0.3285  0.0294 -0.4149
16881TIP3   OH272057   4.849   1.985   1.740  0.6180  0.0699 -0.5735
16881TIP3    H172058   4.934   1.985   1.783  0.1113  0.9109  0.5053
16881TIP3    H272059   4.868   1.993   1.647  1.7119  0.2671 -0.3433
16882TIP3   OH272060   6.458   6.524   0.259 -0.1656  0.1159  0.7093
16882TIP3    H172061   6.495   6.515   0.347 -2.0401 -1.3692  1.3999
16882TIP3    H272062   6.478   6.615   0.235  0.4026  0.5700  2.6594
16883TIP3   OH272063   0.397   4.038   1.922 -0.1636  0.3545  1.3232
16883TIP3    H172064   0.444   4.014   1.842 -1.1580  1.8015  0.2495
16883TIP3    H272065   0.430   4.125   1.943  0.6344 -0.3060  2.9573
16884TIP3   OH272066   6.744   0.536   3.198 -0.2197 -0.5528 -0.1365
16884TIP3    H172067   6.660   0.524   3.243 -0.6448 -0.8517 -0.9755
16884TIP3    H272068   6.766   0.449   3.165  0.5643 -0.5288  0.3069
16885TIP3   OH272069   6.032   0.019  12.973  0.1188  0.2427  0.4993
16885TIP3    H172070   6.064   0.055  13.055 -0.1666 -2.8885  2.1157
16885TIP3    H272071   6.111  -0.007  12.926  0.2082 -1.2857  1.4529
16886TIP3   OH272072   4.627   6.001  10.693  0.2258  0.3727  0.3206
16886TIP3    H172073   4.571   6.076  10.675 -0.7301 -0.6948 -1.4595
16886TIP3    H272074   4.714   6.029  10.666 -0.3879  0.4028 -1.8925
16887TIP3   OH272075   4.376   3.480  13.156 -0.8618 -0.1611 -0.0603
16887TIP3    H172076   4.314   3.543  13.120 -2.3071 -0.7826  1.2020
16887TIP3    H272077   4.394   3.419  13.085 -1.5643  0.1480 -0.5116
16888TIP3   OH272078   6.755   2.499   5.157 -1.1643 -0.0462  0.6425
16888TIP3    H172079   6.823   2.489   5.090 -1.9395 -0.6516 -0.0737
16888TIP3    H272080   6.788   2.447   5.231 -0.4559  0.3575  0.6190
16889TIP3   OH272081   2.978   0.050   0.766 -0.3734 -0.3292 -0.2905
16889TIP3    H172082   2.974  -0.025   0.706  1.7772 -1.3564  0.7544
16889TIP3    H272083   2.917   0.028   0.836 -2.4641  0.6131 -1.7318
16890TIP3   OH272084   4.342   1.568  11.859 -0.0887  0.1297 -0.0071
16890TIP3    H172085   4.401   1.618  11.915  1.5593  1.5114 -2.7607
16890TIP3    H272086   4.263   1.622  11.855  0.3529  0.7843 -0.1662
16891TIP3   OH272087   2.556   6.419  11.330 -0.2140 -0.6051  0.5326
16891TIP3    H172088   2.590   6.460  11.251  0.8804  0.9777  1.7669
16891TIP3    H272089   2.626   6.361  11.359 -0.1328 -0.2794  0.9888
16892TIP3   OH272090   3.724   4.036  14.714 -0.3104 -0.0964 -0.3651
16892TIP3    H172091   3.629   4.025  14.714 -0.6162  2.1722 -0.8034
16892TIP3    H272092   3.738   4.130  14.727  1.9125 -0.5119  0.8909
16893TIP3   OH272093   4.476   4.013  16.119  0.7824  0.2691  0.2326
16893TIP3    H172094   4.450   4.102  16.098  0.6055  0.4864  1.2931
16893TIP3    H272095   4.400   3.960  16.097 -0.3248  0.7921  2.4773
16894TIP3   OH272096   6.176   1.058   4.072  0.6882  0.1158 -0.2123
16894TIP3    H172097   6.141   1.143   4.045 -0.6670 -1.0382 -2.2896
16894TIP3    H272098   6.103   0.998   4.063  1.8654 -1.4728  0.3463
16895TIP3   OH272099   5.679   4.670   1.964  0.8003 -0.4616  0.8620
16895TIP3    H172100   5.667   4.699   1.874  0.1617 -1.8724  0.4746
16895TIP3    H272101   5.762   4.709   1.990 -0.3499  2.3613  0.6764
16896TIP3   OH272102   3.821   3.704   1.953  0.5345  0.1783 -0.0462
16896TIP3    H172103   3.915   3.711   1.966  0.8398 -0.4433 -1.7028
16896TIP3    H272104   3.810   3.630   1.894 -1.0324  0.0194  0.3856
16897TIP3   OH272105   4.177   2.144  15.142 -0.6745 -0.0841  0.2859
16897TIP3    H172106   4.211   2.218  15.193  1.1260  0.1293 -1.1302
16897TIP3    H272107   4.083   2.142  15.163 -0.8460  2.7370  0.2129
16898TIP3   OH272108   1.745   5.446  11.046 -0.3319 -0.3012 -0.2447
16898TIP3    H172109   1.736   5.486  11.132 -1.2447  0.5836 -0.7262
16898TIP3    H272110   1.688   5.370  11.048 -0.9646  0.1684 -0.3230
16899TIP3   OH272111   3.349   2.261  13.247 -0.1086 -0.2394 -0.3315
16899TIP3    H172112   3.441   2.262  13.221 -0.3335  1.5737 -1.2806
16899TIP3    H272113   3.343   2.327  13.317 -1.0679  1.5980 -2.0354
16900TIP3   OH272114   5.099   2.326  13.347  0.5325 -0.0794  0.1397
16900TIP3    H172115   5.162   2.310  13.277  0.1910 -0.9044 -0.0028
16900TIP3    H272116   5.148   2.372  13.414  1.3648 -0.9287  0.1405
16901TIP3   OH272117   2.253   4.906  15.892  0.5468 -0.0388 -0.0887
16901TIP3    H172118   2.329   4.848  15.888  0.7883  0.3251 -1.0065
16901TIP3    H272119   2.199   4.870  15.963  2.1515  0.4526  1.4405
16902TIP3   OH272120   0.332   3.606  16.684 -0.4464  0.2321 -0.4060
16902TIP3    H172121   0.418   3.638  16.655  0.6950 -1.2866  1.1278
16902TIP3    H272122   0.270   3.662  16.637  1.3606  2.8549  0.0587
16903TIP3   OH272123   2.829   5.680   0.853  0.1716  0.1979 -0.2861
16903TIP3    H172124   2.750   5.627   0.841 -1.3785  1.7163  2.3693
16903TIP3    H272125   2.831   5.738   0.777 -1.8652  0.7863  0.0620
16904TIP3   OH272126   2.567   3.818  15.578 -0.1421 -0.1448  0.7194
16904TIP3    H172127   2.559   3.795  15.671 -2.8564 -0.0180  0.6025
16904TIP3    H272128   2.505   3.760  15.534  0.2899  0.5701 -0.8899
16905TIP3   OH272129   1.901   3.744  10.835  0.1114 -0.2855 -0.0466
16905TIP3    H172130   1.990   3.735  10.870 -0.4132 -0.2783  1.3506
16905TIP3    H272131   1.913   3.790  10.752  1.2008  2.6432  1.5731
16906TIP3   OH272132   6.288   2.562   6.822 -0.4781  0.5852 -0.3396
16906TIP3    H172133   6.234   2.622   6.874 -1.7357  0.3490 -1.3155
16906TIP3    H272134   6.313   2.613   6.745  0.8048  0.7157  0.1355
16907TIP3   OH272135   4.727   3.422  11.732 -0.0312 -0.4209  0.3598
16907TIP3    H172136   4.814   3.385  11.748 -0.0728 -0.2067  1.1426
16907TIP3    H272137   4.685   3.359  11.674 -0.1617 -1.7351  1.7856
16908TIP3   OH272138   5.357   3.201  14.614 -0.7091 -0.0480 -0.3503
16908TIP3    H172139   5.330   3.138  14.681 -0.0307 -1.3530 -1.2555
16908TIP3    H272140   5.285   3.202  14.551 -1.8338  1.9826  0.8668
16909TIP3   OH272141   6.014   1.402  14.720  0.0956  0.0688  0.2663
16909TIP3    H172142   5.995   1.491  14.691 -0.0091 -0.0986 -0.1822
16909TIP3    H272143   6.019   1.350  14.640 -0.9376 -0.5448  0.5761
16910TIP3   OH272144   3.148   3.472   0.527  0.4601 -0.4669 -0.1461
16910TIP3    H172145   3.177   3.404   0.466  0.0277  0.4257 -1.3721
16910TIP3    H272146   3.139   3.551   0.474  0.6954  0.5095  1.1981
16911TIP3   OH272147   0.312   2.506   6.699 -0.3460  0.0840  0.0979
16911TIP3    H172148   0.286   2.431   6.753  1.8921 -0.4672  0.5112
16911TIP3    H272149   0.247   2.508   6.628 -1.1047 -1.5634  0.6874
16912TIP3   OH272150   1.440   6.770  13.074  0.4269 -0.6021  0.0496
16912TIP3    H172151   1.451   6.679  13.044 -1.5567 -1.2624  1.1306
16912TIP3    H272152   1.346   6.787  13.065  1.1124  2.4051 -2.8323
16913TIP3   OH272153   4.369   5.600  14.641 -0.4059 -0.2349 -0.2822
16913TIP3    H172154   4.379   5.618  14.548  1.5401  0.4465  0.0209
16913TIP3    H272155   4.346   5.684  14.680 -0.5575 -0.3811 -0.0446
16914TIP3   OH272156   3.740   6.062  14.915  0.2169  0.1941 -0.8464
16914TIP3    H172157   3.829   6.037  14.939 -0.3721  1.3126  3.1509
16914TIP3    H272158   3.752   6.139  14.859  1.7880  0.3989 -0.2887
16915TIP3   OH272159   2.082   2.340   3.815  0.3419 -0.0498 -0.7188
16915TIP3    H172160   2.148   2.292   3.764  0.3411  0.0585 -0.8220
16915TIP3    H272161   2.001   2.290   3.804  0.4069 -0.1840 -0.5909
16916TIP3   OH272162   5.985   1.403  10.723  0.2758  0.2202  0.3613
16916TIP3    H172163   5.957   1.442  10.806  0.3072 -0.3946  0.6729
16916TIP3    H272164   5.933   1.447  10.657 -0.6491 -0.1295  0.8305
16917TIP3   OH272165   1.294   3.348  15.702 -0.2978 -0.1646  0.0367
16917TIP3    H172166   1.288   3.257  15.673 -3.1576 -0.1804  0.3965
16917TIP3    H272167   1.365   3.348  15.766  1.1985 -1.6517 -1.5021
16918TIP3   OH272168   4.849   6.112   0.072  0.1562 -0.4519 -0.2586
16918TIP3    H172169   4.925   6.076   0.118  0.1474 -0.0959  0.0379
16918TIP3    H272170   4.774   6.084   0.123  0.0643 -1.0554 -0.7185
16919TIP3   OH272171   4.938   2.051  14.836  0.3087  0.2025  0.5235
16919TIP3    H172172   4.874   2.013  14.896 -1.5644  1.2162 -0.7311
16919TIP3    H272173   4.918   2.010  14.752 -0.3900  2.3448 -0.4144
16920TIP3   OH272174   3.244   4.566  12.491  0.0811 -0.3225  0.0917
16920TIP3    H172175   3.177   4.607  12.545  0.1646 -0.2822  0.1635
16920TIP3    H272176   3.228   4.472  12.501 -0.3340 -0.3046 -0.3525
16921TIP3   OH272177   5.697   0.454   0.866  0.5031 -0.2149 -0.6834
16921TIP3    H172178   5.772   0.494   0.911  0.5845 -0.9310 -0.1782
16921TIP3    H272179   5.623   0.511   0.887  0.3872 -0.9124  0.9751
16922TIP3   OH272180   2.440   3.153   0.054  0.0869 -0.4838 -0.4230
16922TIP3    H172181   2.465   3.092   0.124 -1.4475 -0.5600  0.1099
16922TIP3    H272182   2.344   3.159   0.061  0.0682  0.8581 -1.4167
16923TIP3   OH272183   5.614   4.444  15.760 -0.0864  0.5506  0.6564
16923TIP3    H172184   5.626   4.487  15.845 -0.0663 -0.0515  0.9619
16923TIP3    H272185   5.540   4.490  15.721 -0.3989  0.5271  1.2031
16924TIP3   OH272186   6.430   4.985  11.706 -0.0323  0.2515 -0.2112
16924TIP3    H172187   6.397   5.022  11.624 -1.5178  2.5425  1.2896
16924TIP3    H272188   6.351   4.970  11.758  0.8189 -1.9430  0.5609
16925TIP3   OH272189   4.415   1.769   3.405 -0.4608 -0.0241  0.1690
16925TIP3    H172190   4.508   1.789   3.394 -0.4086 -0.1840  0.3158
16925TIP3    H272191   4.414   1.679   3.436 -0.7174 -0.4976 -1.1534
16926TIP3   OH272192   0.617   2.850  14.474  0.4721  0.7905  0.1346
16926TIP3    H172193   0.553   2.885  14.536  1.6690  0.5142  1.5852
16926TIP3    H272194   0.666   2.927  14.444  0.2034  0.8661 -0.1172
16927TIP3   OH272195   4.948   5.304   2.559  0.0352 -0.2344  0.4625
16927TIP3    H172196   4.943   5.375   2.496  0.4792 -0.9654 -0.4216
16927TIP3    H272197   4.913   5.341   2.640 -1.6092  0.3896 -0.4885
16928TIP3   OH272198   2.494   6.059  15.583  0.0004 -0.6411 -0.2156
16928TIP3    H172199   2.414   6.072  15.633 -1.3763  0.0687 -2.4587
16928TIP3    H272200   2.498   6.135  15.524  2.1325 -0.8621 -0.4374
16929TIP3   OH272201   5.878   1.912  17.067 -0.5136  0.7187  0.1998
16929TIP3    H172202   5.946   1.859  17.108 -1.5168 -0.2944  0.5980
16929TIP3    H272203   5.830   1.951  17.140 -1.9666 -0.6600  0.0479
16930TIP3   OH272204   0.057   6.605   4.129 -0.4912  0.1624 -0.2663
16930TIP3    H172205   0.106   6.603   4.211 -1.3659  0.4053  0.2740
16930TIP3    H272206   0.114   6.560   4.066 -0.6624 -1.8044  0.9360
16931TIP3   OH272207   6.436   3.298  11.784  0.8547  0.6403  0.5288
16931TIP3    H172208   6.428   3.380  11.736 -1.1033 -0.3897 -1.0573
16931TIP3    H272209   6.503   3.249  11.735 -0.0974  0.1635 -0.3274
16932TIP3   OH272210   4.885   0.083  12.535 -0.0853  0.1049 -0.8113
16932TIP3    H172211   4.815   0.019  12.519  0.2451  0.0979 -2.4004
16932TIP3    H272212   4.864   0.120  12.621 -1.1081 -1.0754 -0.5134
16933TIP3   OH272213   6.767   0.898  16.132 -0.1846 -0.5792  0.3331
16933TIP3    H172214   6.830   0.963  16.164  0.3249 -0.6577 -0.4834
16933TIP3    H272215   6.819   0.836  16.082 -0.7952 -1.1393  0.3680
16934TIP3   OH272216   0.036   4.912   1.921 -0.4769  0.4268 -0.2280
16934TIP3    H172217   0.034   4.849   1.848  0.1361  1.5707 -1.2674
16934TIP3    H272218  -0.016   4.870   1.990  2.9305 -2.9668  0.5928
16935TIP3   OH272219   0.489   0.926   0.552  0.4937  0.5592 -0.0195
16935TIP3    H172220   0.581   0.921   0.581  0.7992  2.3687 -0.5522
16935TIP3    H272221   0.493   0.912   0.457  0.2610  0.9285 -0.0850
16936TIP3   OH272222   2.360   1.056  11.272 -0.0213 -0.7163  0.2159
16936TIP3    H172223   2.378   0.980  11.216  0.0185  0.1216 -0.9529
16936TIP3    H272224   2.360   1.130  11.211 -1.2404  0.0730  1.1438
16937TIP3   OH272225   5.670   6.639  13.974 -0.4033  0.1147 -0.0599
16937TIP3    H172226   5.592   6.645  14.027 -0.0612 -0.3823  0.5087
16937TIP3    H272227   5.641   6.659  13.885 -0.9611  1.0170  0.3206
16938TIP3   OH272228   3.740   0.534  10.861 -0.7794 -0.6060  0.6956
16938TIP3    H172229   3.819   0.484  10.845  0.7208  1.6553  0.5614
16938TIP3    H272230   3.679   0.471  10.901  1.3343 -2.2437  1.5309
16939TIP3   OH272231   5.245   2.073  11.142  0.3220  0.4355 -0.6372
16939TIP3    H172232   5.220   2.162  11.117 -0.7408 -0.0885 -1.5558
16939TIP3    H272233   5.163   2.033  11.174  1.0497  0.1688  0.9872
16940TIP3   OH272234   2.334   0.496  15.577 -0.2041  0.0467  0.1323
16940TIP3    H172235   2.365   0.436  15.645  0.1022 -1.1040 -0.9880
16940TIP3    H272236   2.376   0.466  15.497 -1.4034  0.6964 -0.7829
16941TIP3   OH272237   5.829   3.680   4.677  0.0794 -0.1420 -0.1397
16941TIP3    H172238   5.876   3.756   4.642 -1.6109  1.1410  0.2302
16941TIP3    H272239   5.782   3.714   4.753 -0.6237 -1.6042  0.1107
16942TIP3   OH272240   4.004   4.559   0.959  0.1674  0.0235  0.4268
16942TIP3    H172241   4.050   4.605   1.029 -0.6142  0.0715  0.9312
16942TIP3    H272242   3.993   4.625   0.890  0.0724  0.2632  0.6710
16943TIP3   OH272243   3.760   0.688   1.019  0.3492  0.6857 -0.6259
16943TIP3    H172244   3.775   0.596   0.997  0.1409  0.0696  1.4820
16943TIP3    H272245   3.761   0.689   1.115  0.7860  2.9765 -0.6050
16944TIP3   OH272246   1.697   3.748   6.219  0.3215 -0.2002  0.3601
16944TIP3    H172247   1.694   3.794   6.303 -0.5424  1.8129 -0.6928
16944TIP3    H272248   1.629   3.790   6.166  0.8259 -1.4158 -1.3435
16945TIP3   OH272249   4.167   4.429  17.086  0.2897 -0.3965  0.2786
16945TIP3    H172250   4.190   4.337  17.074 -0.1947 -0.5084  0.1746
16945TIP3    H272251   4.185   4.469  17.001  2.1079 -0.0346  0.8111
16946TIP3   OH272252   4.773   3.272  13.257 -0.6931 -0.3250 -0.3804
16946TIP3    H172253   4.847   3.213  13.269 -0.1811  0.4639  0.4728
16946TIP3    H272254   4.797   3.351  13.306 -0.7565  1.1264 -2.5686
16947TIP3   OH272255   3.985   4.528  10.581  0.5491 -0.6038  0.3260
16947TIP3    H172256   4.041   4.606  10.574  0.8617 -0.7370  1.2216
16947TIP3    H272257   3.911   4.557  10.634 -0.3233 -0.3956 -0.9500
16948TIP3   OH272258   4.189   2.839   1.449  0.7671  0.0630 -0.0035
16948TIP3    H172259   4.147   2.786   1.381  0.1669 -0.7637  0.9811
16948TIP3    H272260   4.139   2.921   1.449 -0.3748 -0.6068  0.6154
16949TIP3   OH272261   2.492   1.901   0.369  0.1041  0.6686  0.4182
16949TIP3    H172262   2.508   1.811   0.341  0.4381 -0.0778  2.7689
16949TIP3    H272263   2.540   1.954   0.305  0.8786 -0.8659 -0.3463
16950TIP3   OH272264   2.541   3.092   5.259 -0.1652  0.5128  0.1581
16950TIP3    H172265   2.514   3.000   5.256 -2.8372  1.2423 -0.7477
16950TIP3    H272266   2.541   3.115   5.352 -0.6114 -0.1129  0.3171
16951TIP3   OH272267   4.239   0.222  11.872 -0.3936 -0.2219  0.9597
16951TIP3    H172268   4.279   0.202  11.788  0.4178 -0.4931  1.4011
16951TIP3    H272269   4.308   0.206  11.936 -1.6282 -2.1891  1.8999
16952TIP3   OH272270   0.428   3.820  15.740  0.6160  0.8038  0.2434
16952TIP3    H172271   0.380   3.764  15.802 -0.6109  0.9241 -0.5699
16952TIP3    H272272   0.502   3.767  15.713 -0.2216 -0.2258 -0.0875
16953TIP3   OH272273   3.003   2.639  12.232  0.3247  0.0765 -0.0578
16953TIP3    H172274   3.014   2.561  12.286 -1.0911  0.9138  1.5179
16953TIP3    H272275   2.909   2.656  12.233  0.7355  2.6104  0.8441
16954TIP3   OH272276   6.766   3.483   5.109  0.2920 -0.1333 -0.1585
16954TIP3    H172277   6.693   3.482   5.171 -1.1091 -1.6660 -1.7476
16954TIP3    H272278   6.842   3.507   5.163 -0.9389 -0.9182  2.0532
16955TIP3   OH272279   5.983   2.039  12.845  0.2567 -0.3603  0.2182
16955TIP3    H172280   5.988   2.019  12.938  0.6153  1.0425  0.5252
16955TIP3    H272281   6.017   2.128  12.838  0.5823 -0.5804 -1.3091
16956TIP3   OH272282   2.100   4.387   4.185 -0.6842 -0.1297  0.1129
16956TIP3    H172283   2.137   4.376   4.098  0.4945 -1.5134  0.7471
16956TIP3    H272284   2.174   4.415   4.239 -1.2179 -0.0418  0.8079
16957TIP3   OH272285   5.254   5.241  16.404  0.5038  0.1828 -0.4101
16957TIP3    H172286   5.278   5.197  16.486  3.6254 -1.5100 -2.0474
16957TIP3    H272287   5.158   5.239  16.403  0.2620  1.2234  3.6019
16958TIP3   OH272288   0.172   6.298   1.720  0.1333 -0.4030 -0.2811
16958TIP3    H172289   0.206   6.285   1.809 -1.4676 -1.6258  0.1989
16958TIP3    H272290   0.157   6.393   1.714  0.0627 -0.3252  0.8373
16959TIP3   OH272291   1.479   6.653  15.353  0.7907  0.3836  0.0368
16959TIP3    H172292   1.473   6.691  15.265 -2.1834 -2.0653 -0.9985
16959TIP3    H272293   1.397   6.679  15.395  0.2550 -1.8764  0.5052
16960TIP3   OH272294   0.581   4.900  11.410  0.3502  0.5877  0.4115
16960TIP3    H172295   0.670   4.921  11.382 -0.0625  0.2231 -1.3185
16960TIP3    H272296   0.529   4.975  11.381 -0.0214  0.4664  0.7507
16961TIP3   OH272297   2.117   3.926   0.336 -0.0640  0.1358  0.4722
16961TIP3    H172298   2.132   3.973   0.253 -1.0602 -0.5539 -0.1243
16961TIP3    H272299   2.155   3.983   0.403  0.1202  1.0587 -0.3869
16962TIP3   OH272300   5.931   6.329  17.277 -0.8869  0.3062 -0.4301
16962TIP3    H172301   6.019   6.365  17.288 -0.7458 -0.4597  1.3926
16962TIP3    H272302   5.873   6.399  17.308 -0.7901  0.1065  0.2200
16963TIP3   OH272303   6.666   5.314   1.572 -0.2635  0.7529  0.3756
16963TIP3    H172304   6.651   5.400   1.533  1.4350  0.8760 -0.0793
16963TIP3    H272305   6.733   5.273   1.517  0.9977  0.2659  2.1777
16964TIP3   OH272306   5.899   3.533   2.673  0.3655  0.5686 -0.0756
16964TIP3    H172307   5.994   3.524   2.669  0.4290  0.4140  1.2415
16964TIP3    H272308   5.881   3.562   2.762 -0.7314  2.0660 -0.7469
16965TIP3   OH272309   5.822   6.453  16.833 -0.1964 -0.1579 -0.0475
16965TIP3    H172310   5.874   6.402  16.771 -0.6551 -1.0131  0.2469
16965TIP3    H272311   5.749   6.395  16.856  0.8925 -0.6389  2.6706
16966TIP3   OH272312   4.693   4.831  12.841  0.2599  0.4070 -0.1448
16966TIP3    H172313   4.716   4.745  12.806  0.1216  0.3281 -0.0462
16966TIP3    H272314   4.610   4.853  12.797  0.3029  0.4966 -0.1802
16967TIP3   OH272315   4.956   2.319  13.736 -0.2642  0.3547 -0.4795
16967TIP3    H172316   4.880   2.295  13.788  0.7336 -2.4752 -0.1152
16967TIP3    H272317   5.017   2.357  13.798  0.0378 -0.9231  0.0482
16968TIP3   OH272318   6.477   2.950   2.526 -0.3056 -0.2789  0.3242
16968TIP3    H172319   6.474   2.962   2.621 -1.2928 -1.9439  0.5264
16968TIP3    H272320   6.387   2.960   2.497 -0.5737 -2.9574  0.0221
16969TIP3   OH272321   3.473   3.346  14.239  0.1090 -0.4653  0.7623
16969TIP3    H172322   3.565   3.332  14.215 -0.6971 -2.7341 -1.4230
16969TIP3    H272323   3.459   3.288  14.314 -0.2458 -2.7559 -0.9494
16970TIP3   OH272324   4.953   3.442  17.132  0.2267 -0.3070 -0.1487
16970TIP3    H172325   4.973   3.511  17.195 -0.0838 -1.4715  1.2695
16970TIP3    H272326   5.018   3.374  17.148  0.5019 -0.3979 -1.5012
16971TIP3   OH272327   5.091   4.563  16.732  0.0629 -0.1415  0.1217
16971TIP3    H172328   5.061   4.515  16.809  1.9794  0.3969  1.2747
16971TIP3    H272329   5.080   4.655  16.755 -0.4153  0.0284 -0.7251
16972TIP3   OH272330   3.035   2.836  16.524  0.0437 -0.1143  0.1022
16972TIP3    H172331   3.003   2.878  16.604  1.4831  2.1889 -0.4241
16972TIP3    H272332   2.978   2.869  16.455  0.6674  0.3335 -0.2097
16973TIP3   OH272333   4.517   2.711  13.568 -0.0216 -0.0698 -0.4547
16973TIP3    H172334   4.611   2.728  13.560  0.1124  0.0329  1.1328
16973TIP3    H272335   4.503   2.630  13.519  0.7692  0.2613 -1.2556
16974TIP3   OH272336   4.540   5.647  11.886  0.4776 -0.1110  0.3116
16974TIP3    H172337   4.570   5.557  11.877  1.8806  0.3887 -0.2760
16974TIP3    H272338   4.451   5.639  11.921  0.2012 -1.7454 -0.6617
16975TIP3   OH272339   0.773   2.677   4.534 -0.3413 -0.0107  0.0746
16975TIP3    H172340   0.818   2.745   4.585  2.6836  0.0566 -2.3589
16975TIP3    H272341   0.704   2.724   4.487 -1.4232  0.3939  1.9766
16976TIP3   OH272342   2.342   4.667  14.480 -0.1086 -0.0262 -0.2870
16976TIP3    H172343   2.392   4.668  14.399  0.3408 -0.1847 -0.0157
16976TIP3    H272344   2.270   4.728  14.465  0.3185  0.4095 -0.5941
16977TIP3   OH272345   3.010   4.400   1.867 -0.2296  0.2621  0.1312
16977TIP3    H172346   3.087   4.382   1.813 -1.7127 -3.1071 -1.1589
16977TIP3    H272347   2.939   4.413   1.804 -1.4466 -0.8642  1.2090
16978TIP3   OH272348   3.206   5.490  13.885 -0.0971 -0.2610  0.6347
16978TIP3    H172349   3.193   5.585  13.888  0.1507 -0.2338  0.8543
16978TIP3    H272350   3.220   5.471  13.792 -1.1600 -0.2239  0.4584
16979TIP3   OH272351   2.042   2.543   5.903  1.5107 -0.8356  0.2890
16979TIP3    H172352   2.059   2.599   5.827 -1.0287  0.7193  0.7674
16979TIP3    H272353   2.075   2.593   5.977  1.4081 -1.0636  0.4878
16980TIP3   OH272354   5.835   4.067  13.810 -0.2543  0.1844  0.0237
16980TIP3    H172355   5.897   4.111  13.869 -1.0204 -0.2463  1.1847
16980TIP3    H272356   5.888   4.002  13.764  0.6725  1.5513 -0.9304
16981TIP3   OH272357   3.225   3.992  12.406 -0.2263  0.1056 -0.2919
16981TIP3    H172358   3.136   3.983  12.442  0.8509 -0.4021  2.4751
16981TIP3    H272359   3.213   3.981  12.312 -3.1274  0.3009 -0.0643
16982TIP3   OH272360   0.696   1.966  12.603 -0.4151 -0.3547 -0.0467
16982TIP3    H172361   0.677   1.872  12.609  0.5427 -0.5677 -0.1771
16982TIP3    H272362   0.612   2.006  12.581 -0.6017 -1.3109 -1.1603
16983TIP3   OH272363   0.295   4.774   0.441 -0.0002  0.1155 -0.4508
16983TIP3    H172364   0.353   4.803   0.370 -0.3733 -0.0501 -0.8296
16983TIP3    H272365   0.310   4.837   0.512  1.9114 -0.9106  0.1076
16984TIP3   OH272366   2.292   1.594   2.816 -0.2868  0.3120  0.5500
16984TIP3    H172367   2.223   1.641   2.863 -0.9736  0.4599 -0.5661
16984TIP3    H272368   2.346   1.663   2.777 -0.1502  0.1875  0.5170
16985TIP3   OH272369   5.864   6.281  15.336  0.3011 -0.6169 -0.0312
16985TIP3    H172370   5.916   6.339  15.280  0.7256  0.0100  0.9734
16985TIP3    H272371   5.908   6.196  15.330 -0.6837 -1.0537 -1.9998
16986TIP3   OH272372   1.246   1.456   4.037  0.3779 -0.3855 -0.3614
16986TIP3    H172373   1.339   1.443   4.055  0.8167  2.3167 -0.3067
16986TIP3    H272374   1.243   1.530   3.976 -1.7880  0.4138  0.6127
16987TIP3   OH272375   1.256   0.900  14.556 -0.3756  0.4344  0.3059
16987TIP3    H172376   1.233   0.859  14.473 -0.1333  2.4985 -0.8616
16987TIP3    H272377   1.352   0.907  14.554 -0.2918 -0.2425  1.1651
16988TIP3   OH272378   1.454   4.043  12.115 -0.0581  0.3698 -0.4611
16988TIP3    H172379   1.491   4.125  12.083 -1.1865  0.6478 -1.1227
16988TIP3    H272380   1.359   4.059  12.118 -0.4113 -1.2299 -1.6322
16989TIP3   OH272381   6.646   1.520  11.754 -0.4047 -0.3217  0.1445
16989TIP3    H172382   6.661   1.559  11.667 -2.1793  0.5462  0.1877
16989TIP3    H272383   6.685   1.433  11.748 -0.3065 -0.1966 -1.4680
16990TIP3   OH272384   0.083   3.123   6.403 -0.0809  0.2316 -0.0020
16990TIP3    H172385   0.144   3.155   6.336 -1.7528  1.2327 -1.1461
16990TIP3    H272386   0.124   3.145   6.486  1.4680  0.1403 -0.7169
16991TIP3   OH272387   5.252   5.274   3.669 -0.1063  0.5484  0.0221
16991TIP3    H172388   5.300   5.193   3.686 -2.4368 -1.4356 -1.9889
16991TIP3    H272389   5.300   5.317   3.599  1.7007  1.5190  1.7665
16992TIP3   OH272390   2.284   2.900  16.796  0.1583 -0.3854 -0.6533
16992TIP3    H172391   2.252   2.940  16.715 -0.7403 -0.1559 -0.1950
16992TIP3    H272392   2.312   2.812  16.770  2.5859  0.6144 -1.7684
16993TIP3   OH272393   1.126   4.959   5.557 -0.5653 -0.4226 -0.2866
16993TIP3    H172394   1.115   4.983   5.649 -0.1578 -0.4458 -0.2309
16993TIP3    H272395   1.220   4.971   5.540 -0.4062 -1.6534 -0.3516
16994TIP3   OH272396   4.907   2.423  12.494  0.1932  0.3805  0.6258
16994TIP3    H172397   4.880   2.481  12.565 -0.7740  1.9829 -0.9710
16994TIP3    H272398   4.827   2.407  12.444  1.2547  1.2738 -1.4787
16995TIP3   OH272399   4.822   5.377  17.355 -0.0118  0.3853 -0.5142
16995TIP3    H172400   4.878   5.443  17.395 -1.5960  1.4461  0.0331
16995TIP3    H272401   4.766   5.426  17.295 -2.1410 -0.2101  0.8817
16996TIP3   OH272402   3.784   5.728  13.411  0.3523 -1.1215 -0.0132
16996TIP3    H172403   3.832   5.707  13.491  0.3566 -0.8526  0.0557
16996TIP3    H272404   3.852   5.756  13.349  0.1415  1.1292  0.6769
16997TIP3   OH272405   2.276   1.523  15.613 -0.0414  0.0147  0.5590
16997TIP3    H172406   2.187   1.557  15.619  1.0145  3.1218  0.7772
16997TIP3    H272407   2.314   1.567  15.537  1.0345 -2.0601 -0.1833
16998TIP3   OH272408   6.551   2.750  12.088 -0.2267  0.6346  0.0885
16998TIP3    H172409   6.597   2.736  12.006  0.5354 -1.2519  0.7766
16998TIP3    H272410   6.575   2.839  12.114  1.1264  0.5452 -0.7560
16999TIP3   OH272411   4.673   3.274  11.445  0.4812  0.0539  0.6746
16999TIP3    H172412   4.666   3.178  11.445  0.1671  0.0505 -0.8193
16999TIP3    H272413   4.590   3.304  11.408  0.4661  0.9324  1.3832
17000TIP3   OH272414   1.944   2.469   3.294  0.2510  0.4500  0.1805
17000TIP3    H172415   1.924   2.464   3.388  1.1208  2.2745  0.5079
17000TIP3    H272416   1.985   2.386   3.274 -3.4233 -1.6609  0.4687
17001TIP3   OH272417   5.895   6.675   0.844  0.7188 -0.5384 -0.6631
17001TIP3    H172418   5.885   6.767   0.870  1.3430  0.0340 -2.3672
17001TIP3    H272419   5.981   6.671   0.802  0.6710 -1.9059 -0.6634
17002TIP3   OH272420   5.937   4.544  14.273  0.0704 -0.4125  0.1507
17002TIP3    H172421   5.868   4.603  14.243  0.3344 -0.4138 -0.4879
17002TIP3    H272422   5.900   4.457  14.264  1.0660 -0.6439 -2.9368
17003TIP3   OH272423   3.326   4.963  17.255  0.2934 -0.2953  0.0685
17003TIP3    H172424   3.311   5.007  17.338 -0.2990  0.7485 -0.5622
17003TIP3    H272425   3.304   5.029  17.189  0.6501 -1.1299 -0.9134
17004TIP3   OH272426   6.575   1.962  11.392  0.4352  0.3715  0.4835
17004TIP3    H172427   6.525   1.886  11.363 -0.5878  1.4126 -0.5945
17004TIP3    H272428   6.656   1.958  11.340 -0.5064  1.1031 -1.1306
17005TIP3   OH272429   2.679   0.692   5.966 -0.0349  0.2744  0.2363
17005TIP3    H172430   2.599   0.677   5.916 -0.5192  1.9732  0.4232
17005TIP3    H272431   2.745   0.637   5.925 -0.5759  1.1138 -1.8571
17006TIP3   OH272432   6.500   0.506  17.250  0.0579 -0.4140 -0.2340
17006TIP3    H172433   6.470   0.525  17.338 -0.9838  0.2176 -0.7061
17006TIP3    H272434   6.587   0.545  17.245  0.1946 -0.6099  0.5641
17007TIP3   OH272435   0.256   6.070   0.994 -0.2171  0.0032 -0.6321
17007TIP3    H172436   0.351   6.085   0.987  0.1651 -0.4580  2.2495
17007TIP3    H272437   0.222   6.151   1.031 -0.6585 -0.4291 -0.0776
17008TIP3   OH272438   1.502   6.534   2.868 -0.8299 -0.1443 -0.0601
17008TIP3    H172439   1.521   6.574   2.783 -1.1618  1.1415  0.4533
17008TIP3    H272440   1.587   6.526   2.911 -0.8795  1.0978  0.2914
17009TIP3   OH272441   5.084   2.346   4.418 -0.2082  0.7383  0.0708
17009TIP3    H172442   5.080   2.408   4.345  0.3581  0.7243  0.0189
17009TIP3    H272443   5.073   2.400   4.496 -0.1178  0.8479  0.0079
17010TIP3   OH272444   2.085   0.345  10.940 -0.1936 -0.0126 -0.1776
17010TIP3    H172445   2.114   0.422  10.989 -2.3793  1.4146 -0.9766
17010TIP3    H272446   2.082   0.275  11.005  0.4693  0.9274  0.9058
17011TIP3   OH272447   2.339   3.063  17.155  0.0022  0.7054 -0.0773
17011TIP3    H172448   2.406   3.062  17.086  1.0559  0.0895  0.9362
17011TIP3    H272449   2.256   3.050  17.108  0.8277 -1.2160 -1.0984
17012TIP3   OH272450   0.730   6.567   2.492  0.0946 -0.1859 -0.7412
17012TIP3    H172451   0.739   6.514   2.571  1.2985  1.1395  0.0676
17012TIP3    H272452   0.719   6.657   2.525  0.4979  0.3753 -2.0641
17013TIP3   OH272453   6.081   0.923  15.111  0.0762 -0.3941  0.1468
17013TIP3    H172454   6.044   1.010  15.127  2.5283  1.1512 -1.8185
17013TIP3    H272455   6.052   0.900  15.022  0.7078 -0.8708  0.0540
17014TIP3   OH272456   4.235   0.136   3.445  0.1986  0.1304 -0.2066
17014TIP3    H172457   4.257   0.057   3.396  1.3938 -0.6172  1.4433
17014TIP3    H272458   4.144   0.154   3.420  0.6410 -0.3687 -2.4004
17015TIP3   OH272459   4.262   2.292   2.092 -0.4151  0.2478  0.1712
17015TIP3    H172460   4.200   2.341   2.146 -1.0796 -0.3527 -0.0357
17015TIP3    H272461   4.289   2.354   2.024 -2.3558 -0.0702 -0.9547
17016TIP3   OH272462   5.024   2.577  13.183 -0.1916 -0.0181  0.4976
17016TIP3    H172463   5.051   2.550  13.271 -0.0804  0.4313  0.6034
17016TIP3    H272464   5.096   2.548  13.127 -0.5102 -0.7886  0.4757
17017TIP3   OH272465   5.196   3.838   4.002  0.3997  0.4178  0.0995
17017TIP3    H172466   5.119   3.891   3.982  0.2428  0.1237 -0.1078
17017TIP3    H272467   5.233   3.818   3.916  0.0014 -0.4612  0.1183
17018TIP3   OH272468   5.899   5.753   4.817 -0.6067 -0.2672 -0.4965
17018TIP3    H172469   5.859   5.768   4.731 -0.9948 -1.8148 -0.6133
17018TIP3    H272470   5.870   5.666   4.842  1.1433 -0.6623  0.3058
17019TIP3   OH272471   3.517   6.338  15.943  0.2083 -0.0045 -0.0476
17019TIP3    H172472   3.492   6.391  16.019  0.6693  1.4227 -0.8641
17019TIP3    H272473   3.602   6.302  15.966  0.1821  0.1188  0.2541
17020TIP3   OH272474   6.564   3.170  12.757 -0.0405  0.5729  0.4103
17020TIP3    H172475   6.625   3.168  12.684 -1.7124  0.9762 -1.0684
17020TIP3    H272476   6.618   3.152  12.834  1.8095  0.3235 -0.8805
17021TIP3   OH272477   3.082   0.229  14.856  0.2591 -0.0086  0.0702
17021TIP3    H172478   3.005   0.184  14.822  0.0775  0.6475 -0.4006
17021TIP3    H272479   3.148   0.160  14.863 -0.7970 -0.8962  1.9478
17022TIP3   OH272480   3.077   4.622  13.119  0.1717 -0.1994  0.7935
17022TIP3    H172481   3.130   4.679  13.064 -1.2237  0.2803 -0.1108
17022TIP3    H272482   3.044   4.679  13.188 -1.8573  0.3536 -0.5462
17023TIP3   OH272483   5.920   2.497  15.342  0.2882 -0.3073  0.6101
17023TIP3    H172484   5.932   2.562  15.411  1.1341  0.1241  0.0711
17023TIP3    H272485   6.008   2.476  15.312 -0.0748  1.2366 -1.8932
17024TIP3   OH272486   1.098   2.786  12.497  0.0505  0.0291 -0.2124
17024TIP3    H172487   1.043   2.813  12.423  0.9907  0.7881 -0.6659
17024TIP3    H272488   1.168   2.735  12.457  0.9169  0.9758  0.0539
17025TIP3   OH272489   1.766   4.408   5.533 -0.2133 -0.4315  0.0322
17025TIP3    H172490   1.754   4.448   5.448  1.2207 -0.5619 -0.2532
17025TIP3    H272491   1.723   4.467   5.594  2.2077  1.8562 -0.3112
17026TIP3   OH272492   4.378   0.285  15.414 -0.3714 -0.6033  0.0192
17026TIP3    H172493   4.455   0.300  15.468  0.2032  2.1955 -1.3661
17026TIP3    H272494   4.324   0.363  15.426 -0.9159 -0.5495 -2.2313
17027TIP3   OH272495   4.824   6.245   2.007  0.4194 -0.1332 -0.0276
17027TIP3    H172496   4.838   6.182   1.936  1.2728  0.3904 -0.3269
17027TIP3    H272497   4.806   6.328   1.963  2.8504  0.6347  0.3173
17028TIP3   OH272498   1.631   6.385   4.617 -0.5686 -0.2244 -0.4762
17028TIP3    H172499   1.698   6.318   4.603 -1.0888 -1.1794  1.3100
17028TIP3    H272500   1.670   6.465   4.582  1.3419 -0.8460  0.1207
17029TIP3   OH272501   5.939   1.442  14.266 -0.2641  0.6333 -0.3296
17029TIP3    H172502   5.862   1.458  14.321 -1.0331 -0.4323 -1.0696
17029TIP3    H272503   5.961   1.528  14.231 -0.7367  1.0529  0.3753
17030TIP3   OH272504   2.292   5.985   3.111  0.0421  0.2734  0.3708
17030TIP3    H172505   2.292   6.045   3.036 -1.9433 -1.7143 -1.3702
17030TIP3    H272506   2.346   5.911   3.081  1.4557  0.5739  2.0148
17031TIP3   OH272507   4.676   0.971   0.111 -0.2091  0.3563 -0.0118
17031TIP3    H172508   4.743   0.997   0.047  0.2992  0.5693  0.6021
17031TIP3    H272509   4.596   1.012   0.079  0.1561  0.9239 -0.2134
17032TIP3   OH272510   6.692   0.666  15.358  0.3148  0.2124  0.2649
17032TIP3    H172511   6.633   0.738  15.333 -1.3683 -0.8610  0.9547
17032TIP3    H272512   6.652   0.630  15.437  1.7962 -0.7334  0.6096
17033TIP3   OH272513   1.311   3.026   2.352 -0.2227 -0.2409 -0.0195
17033TIP3    H172514   1.218   3.034   2.371 -0.4951  0.0741 -1.3847
17033TIP3    H272515   1.322   2.935   2.322 -0.2360 -0.0540 -0.5961
17034TIP3   OH272516   1.814   0.714  13.785 -0.2272 -0.2729  0.5541
17034TIP3    H172517   1.870   0.741  13.858  0.5039 -0.6018  0.1307
17034TIP3    H272518   1.726   0.710  13.822 -0.2168  1.7009  0.8708
17035TIP3   OH272519   4.170   4.757   5.248  0.1862 -0.9542  0.1899
17035TIP3    H172520   4.078   4.780   5.246 -0.2330 -2.4723  0.6686
17035TIP3    H272521   4.195   4.765   5.340  1.0371  1.1530 -0.1553
17036TIP3   OH272522   5.798   5.676  12.635 -0.0454 -0.2750 -0.0233
17036TIP3    H172523   5.779   5.592  12.594 -0.1266 -0.0187 -0.5223
17036TIP3    H272524   5.756   5.671  12.721 -0.7314 -0.4450 -0.3604
17037TIP3   OH272525   6.341   2.966  14.710 -0.4342  0.1920  0.0149
17037TIP3    H172526   6.412   2.925  14.660  0.6272  0.4574  1.2556
17037TIP3    H272527   6.383   3.038  14.758 -1.4857  0.1924  0.9914
17038TIP3   OH272528   4.672   6.085   5.202 -0.3127 -0.5890 -0.0618
17038TIP3    H172529   4.631   5.999   5.189  1.0788 -1.3756  0.5902
17038TIP3    H272530   4.687   6.090   5.296 -0.7425  0.5706 -0.0355
17039TIP3   OH272531   3.535   0.340  13.266 -0.2450 -0.0627  0.8136
17039TIP3    H172532   3.584   0.365  13.187 -2.7732  1.0913 -0.4912
17039TIP3    H272533   3.601   0.300  13.323  2.1020  0.9794 -0.9978
17040TIP3   OH272534   5.791   4.304  15.026 -0.2144 -0.0966 -0.0484
17040TIP3    H172535   5.868   4.255  15.055 -0.4859 -0.5175 -0.0455
17040TIP3    H272536   5.828   4.378  14.976  0.2011 -0.1238  0.2139
17041TIP3   OH272537   6.255   2.383   5.642 -0.3534 -0.2379 -0.2899
17041TIP3    H172538   6.206   2.407   5.563 -1.3429  0.0044  0.3795
17041TIP3    H272539   6.188   2.373   5.710  0.6679  2.7480  1.3282
17042TIP3   OH272540   4.367   1.242   1.045  0.1212  0.1168  0.0690
17042TIP3    H172541   4.458   1.212   1.035  0.3963  1.0826 -0.4334
17042TIP3    H272542   4.360   1.318   0.987 -1.0362  0.0118  0.0381
17043TIP3   OH272543   1.362   2.161  14.414 -0.3039 -0.3391  0.1017
17043TIP3    H172544   1.339   2.068  14.417  1.2517 -0.7667  2.9818
17043TIP3    H272545   1.298   2.204  14.471  0.3274 -0.0472  0.6120
17044TIP3   OH272546   3.417   1.972  13.100 -0.4882 -0.1196  0.2211
17044TIP3    H172547   3.475   2.040  13.065  0.3903 -1.3916 -0.9131
17044TIP3    H272548   3.341   2.020  13.132 -1.8234  1.2272 -4.2650
17045TIP3   OH272549   6.771   1.706  14.752  0.3811  0.3634 -0.3215
17045TIP3    H172550   6.696   1.764  14.767  0.8597  1.1488 -0.9051
17045TIP3    H272551   6.779   1.701  14.657  1.1197  0.3525 -0.2629
17046TIP3   OH272552   5.541   3.728   3.580 -0.1190 -0.5925  0.2961
17046TIP3    H172553   5.478   3.706   3.511 -0.8053  1.1950  0.2866
17046TIP3    H272554   5.524   3.820   3.599  2.2686 -0.1452  0.5714
17047TIP3   OH272555   1.775   1.717  13.998  0.7377 -0.7128 -0.1170
17047TIP3    H172556   1.730   1.782  13.943  1.2504  0.3422  0.6830
17047TIP3    H272557   1.799   1.647  13.937  0.2870 -0.0920 -1.0280
17048TIP3   OH272558   2.528   3.653  12.032 -0.0400 -0.4051  0.2586
17048TIP3    H172559   2.445   3.608  12.047 -0.6287  0.3635 -0.5995
17048TIP3    H272560   2.506   3.746  12.038  1.0550 -0.2027  1.4944
17049TIP3   OH272561   2.318   2.217  15.118 -0.0815 -0.0600 -0.0130
17049TIP3    H172562   2.320   2.264  15.201 -0.7635 -0.1856  0.0808
17049TIP3    H272563   2.226   2.196  15.105  0.2672 -1.9468  0.2744
17050TIP3   OH272564   1.481   0.610   0.763  0.5946 -0.1755 -0.0514
17050TIP3    H172565   1.429   0.654   0.696 -1.0858  1.1366  1.9822
17050TIP3    H272566   1.440   0.523   0.771 -0.4733  0.3610  0.5814
17051TIP3   OH272567   1.081   2.943   5.927 -0.1912 -0.5864 -0.1052
17051TIP3    H172568   0.990   2.943   5.955  0.0809 -0.5230  0.8036
17051TIP3    H272569   1.110   2.853   5.942  0.2934 -0.2653  0.9688
17052TIP3   OH272570   1.790   0.843  13.023 -0.2165  0.6669  0.0409
17052TIP3    H172571   1.827   0.812  13.105 -0.8240 -3.1994 -0.9648
17052TIP3    H272572   1.708   0.886  13.048  0.2546  0.7569  1.4996
17053TIP3   OH272573   3.231   6.391   6.360 -0.0937 -0.4046  0.1258
17053TIP3    H172574   3.296   6.325   6.388  0.2604 -0.2873 -0.4159
17053TIP3    H272575   3.255   6.470   6.409  0.0422 -0.4193  0.0824
17054TIP3   OH272576   2.216   6.048   4.151  0.1964 -0.2553  0.4996
17054TIP3    H172577   2.201   6.120   4.091 -0.6929  1.6353  2.8245
17054TIP3    H272578   2.304   6.016   4.130 -0.1943  0.0882 -1.9271
17055TIP3   OH272579   2.116   2.957   0.805  0.3397 -0.2891 -0.0347
17055TIP3    H172580   2.076   3.026   0.751 -2.1656 -1.4440  0.1790
17055TIP3    H272581   2.133   2.998   0.889  0.2633  0.4584 -0.3816
17056TIP3   OH272582   0.466   0.337  14.005  0.0225  0.0447  0.1906
17056TIP3    H172583   0.472   0.243  13.988 -1.2831  0.0786 -0.5228
17056TIP3    H272584   0.463   0.378  13.919 -4.0352  0.3845  0.3062
17057TIP3   OH272585   5.710   0.367  14.628 -0.1609  0.5843 -0.1799
17057TIP3    H172586   5.736   0.277  14.606 -0.0840  0.5155  0.1787
17057TIP3    H272587   5.788   0.419  14.610  0.0055  0.4816  0.2224
17058TIP3   OH272588   5.297   0.205  12.487 -0.1799  0.0498 -0.0220
17058TIP3    H172589   5.294   0.191  12.582  0.2204 -0.0167 -0.0177
17058TIP3    H272590   5.214   0.169  12.455  0.1287 -0.8605  0.1848
17059TIP3   OH272591   3.865   5.051   1.420  0.5230  0.0263  0.7134
17059TIP3    H172592   3.837   4.964   1.450  0.4651 -0.2945 -0.2570
17059TIP3    H272593   3.818   5.112   1.477  0.5888 -0.5712  1.4280
17060TIP3   OH272594   0.115   5.260  12.346 -0.1014  0.3124 -0.4752
17060TIP3    H172595   0.090   5.346  12.380  1.2265  0.7385 -0.5357
17060TIP3    H272596   0.207   5.270  12.321  0.1129 -1.1697 -0.3468
17061TIP3   OH272597   3.571   2.610  10.770  0.0340  0.4588 -0.2127
17061TIP3    H172598   3.645   2.572  10.723  0.4307  1.7567 -0.6651
17061TIP3    H272599   3.501   2.545  10.760  0.8562 -0.4168 -0.4561
17062TIP3   OH272600   5.908   1.860   3.540  0.0134 -0.1450  0.2992
17062TIP3    H172601   5.932   1.900   3.624  1.0426 -2.9977  1.4927
17062TIP3    H272602   5.981   1.880   3.483  0.7573 -0.7210  1.0268
17063TIP3   OH272603   5.221   4.942   6.647 -0.6704 -0.7503 -0.0915
17063TIP3    H172604   5.140   4.892   6.655 -1.7578  0.7986 -1.0145
17063TIP3    H272605   5.201   5.013   6.586  0.9215  0.5883  0.8297
17064TIP3   OH272606   4.226   0.996   5.918 -0.5302 -0.2197  0.4741
17064TIP3    H172607   4.212   1.074   5.864 -0.5390  0.1259  0.9700
17064TIP3    H272608   4.144   0.947   5.911 -0.2078 -0.6540 -0.5718
17065TIP3   OH272609   4.912   1.135   3.156  0.0100  1.0419  0.1426
17065TIP3    H172610   4.836   1.077   3.167 -0.3332  1.4804  0.1276
17065TIP3    H272611   4.874   1.222   3.145  0.4676  1.0883 -1.2636
17066TIP3   OH272612   1.271   5.974  13.837  0.8301 -0.3370  0.0414
17066TIP3    H172613   1.299   5.967  13.745  0.0207  0.6586 -0.2993
17066TIP3    H272614   1.211   6.049  13.838  0.4592 -0.6329  1.3012
17067TIP3   OH272615   4.983   4.881  14.223 -0.3927  0.2595  0.0296
17067TIP3    H172616   5.074   4.866  14.196 -0.6582 -1.5647  0.0271
17067TIP3    H272617   4.956   4.958  14.173  1.0732  0.7060 -0.1387
17068TIP3   OH272618   0.927   5.480   2.066 -0.6038 -0.7702  0.2135
17068TIP3    H172619   0.934   5.390   2.098  0.4048 -0.7833  0.0019
17068TIP3    H272620   0.855   5.518   2.116 -0.4904 -1.4396  0.9059
17069TIP3   OH272621   3.948   5.385  15.758  0.0906  0.2533  0.0379
17069TIP3    H172622   3.987   5.397  15.671 -1.2302  0.9397 -0.4940
17069TIP3    H272623   3.871   5.330  15.742  0.7985 -1.1054  1.0683
17070TIP3   OH272624   4.957   3.359  15.116 -0.2484 -0.1021 -0.9560
17070TIP3    H172625   5.040   3.367  15.162 -2.1739 -1.3216  3.2090
17070TIP3    H272626   4.943   3.265  15.108 -1.2714  0.0786 -1.4756
17071TIP3   OH272627   5.739   4.402   4.049  0.6490 -0.1905  0.1942
17071TIP3    H172628   5.746   4.310   4.024 -1.3629 -0.2919 -0.1715
17071TIP3    H272629   5.738   4.449   3.966 -1.3040 -0.1253  0.2161
17072TIP3   OH272630   6.066   6.194   2.967  0.3114  0.3553  0.5194
17072TIP3    H172631   6.006   6.217   3.039 -0.0191 -1.4345  0.8533
17072TIP3    H272632   6.096   6.106   2.988  2.6531  0.9781  0.0562
17073TIP3   OH272633   4.890   3.560  14.931 -0.0921  0.7018  0.0763
17073TIP3    H172634   4.802   3.552  14.896  0.4034 -0.1024 -1.0303
17073TIP3    H272635   4.900   3.485  14.989 -0.2655  1.0203  0.5277
17074TIP3   OH272636   3.510   0.840  14.393  0.4592  0.1863  0.4585
17074TIP3    H172637   3.491   0.889  14.473  0.7265  0.9932  0.0405
17074TIP3    H272638   3.605   0.840  14.387  0.4327  0.6146 -0.1381
17075TIP3   OH272639   3.023   1.847   6.007  0.9544  0.1508 -0.1129
17075TIP3    H172640   3.039   1.920   6.067 -1.4971 -0.6242  1.6289
17075TIP3    H272641   2.975   1.783   6.059 -2.8656  0.1197 -3.2360
17076TIP3   OH272642   5.176   4.269  11.549 -0.0136  0.3416  0.0099
17076TIP3    H172643   5.206   4.271  11.640 -0.7823  0.4714  0.2699
17076TIP3    H272644   5.239   4.322  11.501  0.5483  0.0473  0.4196
17077TIP3   OH272645   1.724   0.080   3.862 -0.0005 -0.0664  0.5628
17077TIP3    H172646   1.679   0.012   3.813  0.1641  0.0347  0.2701
17077TIP3    H272647   1.688   0.162   3.828  1.3117  0.0638 -0.5876
17078TIP3   OH272648   0.949   3.642   4.500  0.0497 -0.0323 -0.4823
17078TIP3    H172649   0.984   3.616   4.585 -1.2473 -1.7010 -0.4132
17078TIP3    H272650   0.892   3.569   4.474 -2.2140  1.9103 -1.2463
17079TIP3   OH272651   4.386   4.187   3.917  0.1404  0.1400  0.0305
17079TIP3    H172652   4.480   4.169   3.923  0.5233  1.9670  0.2963
17079TIP3    H272653   4.360   4.152   3.832  0.6770 -1.7975  0.6123
17080TIP3   OH272654   6.150   4.862   3.940  0.3541  0.7556  0.2265
17080TIP3    H172655   6.178   4.890   4.027  1.9851  0.6197 -0.2308
17080TIP3    H272656   6.151   4.766   3.944 -0.4920  0.7356  0.3153
17081TIP3   OH272657   2.946   3.726  16.725 -0.2648 -0.5267  0.4943
17081TIP3    H172658   2.969   3.785  16.653  1.5929 -1.9860 -0.2092
17081TIP3    H272659   2.891   3.659  16.685  0.6240 -1.2432  0.4307
17082TIP3   OH272660   1.251   1.018  17.345  0.2324 -0.3072  0.2889
17082TIP3    H172661   1.165   1.045  17.377  0.5952  1.3270 -0.0303
17082TIP3    H272662   1.245   1.024  17.250 -0.0478 -2.6887  0.0821
17083TIP3   OH272663   5.566   5.702  13.534 -0.1660 -0.2181 -0.8343
17083TIP3    H172664   5.641   5.690  13.592  0.2918  1.3165 -1.0477
17083TIP3    H272665   5.490   5.701  13.593  0.1777 -0.0276 -0.3836
17084TIP3   OH272666   5.804   3.352   2.436 -0.1664 -0.0078  0.1976
17084TIP3    H172667   5.821   3.404   2.514  1.4940 -0.5303  0.2202
17084TIP3    H272668   5.754   3.277   2.467 -0.7783  0.5178  0.5023
17085TIP3   OH272669   1.584   0.095   1.900  0.1650  0.1088 -0.2149
17085TIP3    H172670   1.493   0.114   1.921 -0.5812 -1.0640 -2.1314
17085TIP3    H272671   1.604   0.017   1.952  0.1465  0.4757  0.3491
17086TIP3   OH272672   1.152   3.618   6.713  0.3311 -0.0018 -0.2465
17086TIP3    H172673   1.076   3.583   6.758  0.1745 -0.8886 -1.1630
17086TIP3    H272674   1.128   3.709   6.694  1.0453  0.9366  2.8209
17087TIP3   OH272675   1.456   3.220   0.541 -0.2886 -0.2374 -0.0132
17087TIP3    H172676   1.527   3.278   0.570 -1.2586 -0.1178  2.2856
17087TIP3    H272677   1.389   3.227   0.609 -2.4655 -0.5109 -1.9868
17088TIP3   OH272678   0.107   6.133   1.948 -0.3471  0.0212 -0.4974
17088TIP3    H172679   0.028   6.186   1.936  1.2653  2.5156 -0.8630
17088TIP3    H272680   0.127   6.101   1.860 -0.3434  0.3602 -0.6242
17089TIP3   OH272681   1.539   5.567   3.533  0.0408  0.1140 -0.6636
17089TIP3    H172682   1.498   5.592   3.616 -0.2269  0.3787 -0.8736
17089TIP3    H272683   1.562   5.650   3.491  0.7150 -0.0309 -0.5913
17090TIP3   OH272684   0.907   0.943  11.244  0.7948  0.0253  0.1793
17090TIP3    H172685   0.813   0.953  11.227  0.4605  0.9140  2.1984
17090TIP3    H272686   0.949   0.961  11.160 -0.8644 -1.3359 -0.9927
17091TIP3   OH272687   0.308   6.773   1.626 -0.4598  0.2580  0.3120
17091TIP3    H172688   0.231   6.792   1.572  0.6433  2.0115 -0.7595
17091TIP3    H272689   0.290   6.816   1.709 -0.9183  0.0978  0.2974
17092TIP3   OH272690   1.718   0.467   0.713 -0.2366 -0.1987 -0.8752
17092TIP3    H172691   1.641   0.521   0.732 -0.0594 -0.1428 -0.3061
17092TIP3    H272692   1.746   0.434   0.798  0.9670  0.5812 -0.9376
17093TIP3   OH272693   6.112   2.161  16.452 -1.0255 -0.3795 -0.5694
17093TIP3    H172694   6.118   2.254  16.475 -2.4109 -0.1909 -0.8430
17093TIP3    H272695   6.078   2.161  16.363 -1.8747 -1.1358 -0.2670
17094TIP3   OH272696   1.831   0.581   3.379  0.1915 -0.2049  0.8003
17094TIP3    H172697   1.855   0.610   3.291  1.0852 -1.1633  0.7058
17094TIP3    H272698   1.797   0.660   3.422 -0.5300  0.2185 -0.4780
17095TIP3   OH272699   4.779   5.621  16.263 -0.9760  0.0682  0.6494
17095TIP3    H172700   4.702   5.624  16.319 -2.2630 -1.1081 -0.9466
17095TIP3    H272701   4.756   5.673  16.186  0.1791  0.4454  0.5306
17096TIP3   OH272702   0.330   4.060   5.444 -0.5171  0.4976  0.3865
17096TIP3    H172703   0.362   4.147   5.423 -0.6353  0.4068 -0.1771
17096TIP3    H272704   0.346   4.050   5.538  3.3170 -0.4507 -0.2195
17097TIP3   OH272705   1.023   3.151   2.988  0.2786  0.0098 -0.5884
17097TIP3    H172706   1.093   3.179   2.929  0.9010  0.1642  0.2077
17097TIP3    H272707   1.017   3.057   2.975  0.2297  0.0764 -1.0825
17098TIP3   OH272708   2.308   2.227  13.410  0.4527  0.0891  0.2896
17098TIP3    H172709   2.353   2.147  13.385  0.5422  0.5468 -1.0744
17098TIP3    H272710   2.300   2.277  13.329 -2.2072  0.1902  0.5470
17099TIP3   OH272711   3.139   0.847   0.170 -0.2659 -0.1082  0.4237
17099TIP3    H172712   3.119   0.904   0.244 -1.9728 -0.3473  0.1927
17099TIP3    H272713   3.066   0.861   0.109  0.2692 -1.1271 -0.4767
17100TIP3   OH272714   3.844   0.406  12.356 -0.1996  0.0794 -0.3743
17100TIP3    H172715   3.837   0.312  12.369  0.3093 -0.0033 -0.6672
17100TIP3    H272716   3.830   0.419  12.263 -2.8119  0.5698  0.0166
17101TIP3   OH272717   2.568   3.758   2.068 -0.0663  0.9940  1.1038
17101TIP3    H172718   2.661   3.779   2.063  0.0242  0.3279 -0.5396
17101TIP3    H272719   2.563   3.664   2.050 -1.1438  1.2569 -0.1380
17102TIP3   OH272720   6.428   1.958   3.559 -0.3218  0.3860  0.2266
17102TIP3    H172721   6.432   2.041   3.606 -1.7620  0.9943 -0.6593
17102TIP3    H272722   6.439   1.892   3.628  1.4200  1.2811  0.8631
17103TIP3   OH272723   2.598   4.320   5.027  0.2428 -0.4774 -0.2919
17103TIP3    H172724   2.541   4.391   4.996 -1.8626 -0.2125  3.5956
17103TIP3    H272725   2.540   4.245   5.037  1.4112 -1.3411  0.2344
17104TIP3   OH272726   1.146   5.362  14.910  1.3279 -0.3131  0.3474
17104TIP3    H172727   1.055   5.368  14.939  1.2321  0.5044 -0.0995
17104TIP3    H272728   1.186   5.443  14.940  1.2411  0.5440 -1.6709
17105TIP3   OH272729   1.557   1.646  15.689 -0.1579  0.0976 -0.1016
17105TIP3    H172730   1.573   1.637  15.595  0.2429 -0.5534  0.0211
17105TIP3    H272731   1.643   1.664  15.727 -0.1051 -0.8760  0.2701
17106TIP3   OH272732   5.222   0.396   2.566 -0.2756  0.2856  0.2309
17106TIP3    H172733   5.155   0.406   2.634 -0.8063 -1.9786  0.1122
17106TIP3    H272734   5.207   0.308   2.530  1.4240  0.5566 -1.2717
17107TIP3   OH272735   2.518   1.856   3.008 -0.3972 -0.1033  0.6830
17107TIP3    H172736   2.446   1.881   2.950 -1.1576 -2.1985  0.6576
17107TIP3    H272737   2.591   1.913   2.981 -1.2737  0.2790 -1.0308
17108TIP3   OH272738   1.949   5.962   4.086 -0.3572  0.5845 -0.2873
17108TIP3    H172739   2.037   5.957   4.125 -0.1090  0.9104 -0.8028
17108TIP3    H272740   1.965   5.974   3.993 -0.9550 -0.1303 -0.4877
17109TIP3   OH272741   2.190   6.114   2.321  0.0716  0.2557  0.1575
17109TIP3    H172742   2.279   6.102   2.287  0.4023  1.4351  0.5641
17109TIP3    H272743   2.134   6.068   2.258  0.9579 -0.5310 -0.0906
17110TIP3   OH272744   1.099   3.831  17.274 -0.4983  0.2137 -0.1554
17110TIP3    H172745   1.054   3.774  17.337  1.2862 -0.3607  0.6401
17110TIP3    H272746   1.191   3.827  17.299 -0.1547  2.5324 -0.8010
17111TIP3   OH272747   1.892   5.566  16.269  0.1347 -0.3556 -0.4140
17111TIP3    H172748   1.833   5.491  16.277  0.4003 -0.4527  0.6803
17111TIP3    H272749   1.947   5.563  16.347  0.2989  0.8531 -0.4564
17112TIP3   OH272750   5.215   0.499  14.126 -0.0699 -0.2919  0.4213
17112TIP3    H172751   5.123   0.518  14.107 -0.2312 -1.1742  0.2596
17112TIP3    H272752   5.252   0.583  14.153 -0.3416  0.5865 -1.7374
17113TIP3   OH272753   3.923   3.986  14.909 -0.5336  0.2554  0.4680
17113TIP3    H172754   3.853   4.000  14.845 -1.0454  0.7923  1.1331
17113TIP3    H272755   3.983   4.059  14.895 -0.7591  0.4935  0.7532
17114TIP3   OH272756   0.335   1.904   5.586 -0.2818  0.3891  0.1967
17114TIP3    H172757   0.317   1.988   5.629 -1.2279 -0.2546  1.1028
17114TIP3    H272758   0.422   1.879   5.619  0.6135  1.6072 -1.0998
17115TIP3   OH272759   6.036   4.883  16.536  0.0153  0.0232  0.1380
17115TIP3    H172760   6.116   4.895  16.588 -0.2770 -0.6628  0.7488
17115TIP3    H272761   6.067   4.848  16.453  0.2956 -0.9053  0.6265
17116TIP3   OH272762   2.953   2.360  14.495 -0.0123 -0.7302 -0.0091
17116TIP3    H172763   2.956   2.283  14.552 -0.8670 -0.8783 -0.1505
17116TIP3    H272764   3.043   2.394  14.496  0.1704 -1.2107  0.7584
17117TIP3   OH272765   5.518   3.809  16.728 -0.5034 -1.1600 -0.0104
17117TIP3    H172766   5.581   3.737  16.728  0.7695 -0.2384  3.3846
17117TIP3    H272767   5.484   3.812  16.818 -2.6634  0.7174 -0.7708
17118TIP3   OH272768   2.833   0.300  15.826 -0.3250 -0.1893  0.0466
17118TIP3    H172769   2.763   0.282  15.764  0.1825 -0.6130 -0.4045
17118TIP3    H272770   2.792   0.356  15.893 -1.1405 -0.6064 -0.1012
17119TIP3   OH272771   3.433   4.467  16.915 -0.1825  0.1048  0.9434
17119TIP3    H172772   3.498   4.423  16.971 -1.7710 -0.9552  2.0360
17119TIP3    H272773   3.453   4.437  16.827  0.7261 -0.2979  1.2672
17120TIP3   OH272774   6.319   5.657   5.044  0.3512 -0.0461 -0.0764
17120TIP3    H172775   6.389   5.669   4.980  1.0611 -2.4559  0.1509
17120TIP3    H272776   6.328   5.567   5.073 -2.8582 -0.4525  0.0087
17121TIP3   OH272777   1.505   5.566   4.133 -0.1154 -0.1366 -0.7256
17121TIP3    H172778   1.578   5.623   4.110  0.6024 -0.7405 -0.0141
17121TIP3    H272779   1.544   5.498   4.189 -1.5157  0.5821  1.2657
17122TIP3   OH272780   1.423   3.251   2.249 -0.4183 -0.2599  0.1920
17122TIP3    H172781   1.379   3.171   2.278 -0.4312 -0.7405 -1.1128
17122TIP3    H272782   1.514   3.224   2.232 -0.9324 -0.5673 -2.4201
17123TIP3   OH272783   1.665   4.916  17.228 -0.2137  0.9402  0.2614
17123TIP3    H172784   1.703   4.989  17.180  1.3159  0.3158  0.4880
17123TIP3    H272785   1.646   4.953  17.315  1.4991  0.8473  0.7100
17124TIP3   OH272786   1.003   5.731  17.114 -0.9880 -0.3297 -0.1639
17124TIP3    H172787   1.072   5.671  17.143  0.6121  1.0610 -0.9203
17124TIP3    H272788   0.999   5.720  17.019  1.5683  2.8008 -0.8337
17125TIP3   OH272789   3.690   2.641   2.117 -0.7085  0.1637 -0.1785
17125TIP3    H172790   3.689   2.670   2.025  0.7243 -1.0327 -0.6219
17125TIP3    H272791   3.780   2.611   2.131 -1.0008 -0.0136  1.5313
17126TIP3   OH272792   0.658   4.421   2.188 -1.1122 -0.0346 -0.6563
17126TIP3    H172793   0.672   4.405   2.281 -1.6775  2.1581 -0.1434
17126TIP3    H272794   0.589   4.358   2.163 -1.2141 -0.3895  0.4836
17127TIP3   OH272795   0.960   1.990  11.059  0.6145  0.2177  0.7892
17127TIP3    H172796   0.902   2.004  10.984  1.0132 -0.9622  0.2318
17127TIP3    H272797   0.904   2.002  11.135 -0.1620 -0.0414  0.2689
17128TIP3   OH272798   1.808   1.192  16.543  0.5499  0.1501  0.2990
17128TIP3    H172799   1.853   1.224  16.465  2.6121  2.7551  2.3494
17128TIP3    H272800   1.861   1.118  16.572  1.4930  0.9682  0.7285
17129TIP3   OH272801   2.957   2.096  12.138 -0.1020  0.1079  0.4290
17129TIP3    H172802   2.926   2.007  12.119  0.6605 -0.3699  1.3303
17129TIP3    H272803   2.961   2.100  12.234  0.7698  0.8002  0.3714
17130TIP3   OH272804   5.288   4.523   2.524 -0.2082 -0.1581  0.0132
17130TIP3    H172805   5.223   4.459   2.553 -0.0150 -0.7250 -0.7516
17130TIP3    H272806   5.243   4.573   2.456 -0.5264  0.8845  0.9609
17131TIP3   OH272807   4.692   5.069  11.504 -0.0404  0.0208 -0.2553
17131TIP3    H172808   4.739   5.148  11.532 -0.9581  0.5641 -0.2202
17131TIP3    H272809   4.755   5.024  11.447  1.8552 -1.0983  2.5454
17132TIP3   OH272810   1.216   2.767   2.423  0.6551 -0.6493 -0.0247
17132TIP3    H172811   1.187   2.682   2.457  0.1243 -0.5022 -0.0980
17132TIP3    H272812   1.217   2.757   2.328  1.8293 -0.9610  0.0112
17133TIP3   OH272813   0.112   5.358   1.856 -0.1727 -0.0376 -0.1607
17133TIP3    H172814   0.112   5.439   1.906  3.3494  0.4370 -0.7028
17133TIP3    H272815   0.148   5.293   1.916 -1.6182 -0.9359 -0.2082
17134TIP3   OH272816   0.319   6.692   5.927 -0.1233 -0.3181 -0.4860
17134TIP3    H172817   0.248   6.707   5.990  1.1563  2.5777  0.4594
17134TIP3    H272818   0.298   6.751   5.853  0.3273 -0.8650 -1.0602
17135TIP3   OH272819   0.456   5.928   5.868  0.5288  0.1369  0.4949
17135TIP3    H172820   0.460   6.013   5.911  0.4411 -0.4738  1.7521
17135TIP3    H272821   0.422   5.947   5.780  1.4924  1.5063  0.3942
17136TIP3   OH272822   5.020   5.799  16.383  0.2228 -0.0528  0.0972
17136TIP3    H172823   5.044   5.710  16.407  0.0328 -0.0633  0.2414
17136TIP3    H272824   4.931   5.792  16.349  1.2282 -0.4198 -2.7563
17137TIP3   OH272825   6.015   0.014   3.956 -0.3275  0.3940  0.1509
17137TIP3    H172826   6.052   0.071   3.888 -0.8067 -0.2913 -0.7043
17137TIP3    H272827   6.035  -0.075   3.927  1.3450  0.0832  1.9950
17138TIP3   OH272828   3.115   2.398  14.194  0.2094 -0.9073  0.3923
17138TIP3    H172829   3.053   2.334  14.227 -0.5475 -0.3534  0.0743
17138TIP3    H272830   3.147   2.360  14.112  0.2609 -1.1740  0.5343
17139TIP3   OH272831   5.142   0.339  16.391 -0.4181  0.4843 -0.1537
17139TIP3    H172832   5.124   0.325  16.484 -0.7846 -1.1543 -0.4468
17139TIP3    H272833   5.059   0.323  16.347  0.4731 -2.2003 -1.0485
17140TIP3   OH272834   1.634   3.589  15.207 -0.0923  0.1005 -0.4094
17140TIP3    H172835   1.541   3.587  15.227 -0.3690 -1.2174 -1.6376
17140TIP3    H272836   1.639   3.625  15.118  0.4784 -0.7422 -0.7291
17141TIP3   OH272837   0.836   4.701   2.941 -0.1405 -0.5642  0.1552
17141TIP3    H172838   0.794   4.631   2.991 -0.3946  0.0280  0.7806
17141TIP3    H272839   0.913   4.725   2.993  0.7347 -1.3024 -0.7390
17142TIP3   OH272840   6.150   0.290   4.730  0.0893 -0.6063  0.1620
17142TIP3    H172841   6.219   0.273   4.794 -0.7266  0.5170  1.3924
17142TIP3    H272842   6.172   0.375   4.693 -0.8096 -0.0632  0.8370
17143TIP3   OH272843   5.782   5.190  17.194 -0.4744 -0.3449 -0.3097
17143TIP3    H172844   5.731   5.120  17.153 -0.5903  0.0633 -0.8799
17143TIP3    H272845   5.870   5.182  17.155 -0.6089  0.0993 -0.7214
17144TIP3   OH272846   2.892   2.135  11.799  0.8813 -0.3057  0.8287
17144TIP3    H172847   2.813   2.153  11.748  2.0358  1.2077 -0.5062
17144TIP3    H272848   2.948   2.085  11.741  1.0409 -1.1756  1.6971
17145TIP3   OH272849   2.712   3.000  16.096  0.5761  0.0862 -0.0236
17145TIP3    H172850   2.750   2.947  16.026 -0.2147 -0.5426  0.0121
17145TIP3    H272851   2.647   3.055  16.052 -1.1721 -1.5266  0.4045
17146TIP3   OH272852   5.323   2.617   4.885  0.0118  0.2748 -0.3072
17146TIP3    H172853   5.231   2.619   4.911 -0.2660  1.1402 -1.2460
17146TIP3    H272854   5.321   2.629   4.790  0.9811 -2.3925 -0.7415
17147TIP3   OH272855   1.093   1.199   2.258 -0.2888  0.1802  0.5980
17147TIP3    H172856   1.156   1.210   2.330  0.0185 -0.5695  0.4535
17147TIP3    H272857   1.136   1.137   2.199 -0.5265  0.8163 -0.2524
17148TIP3   OH272858   1.390   4.375   2.999  0.0127 -0.7579 -0.6071
17148TIP3    H172859   1.461   4.359   3.060 -0.2437 -1.1745 -0.4127
17148TIP3    H272860   1.433   4.394   2.916  0.3856  0.7393 -0.1095
17149TIP3   OH272861   4.656   5.803  10.942 -0.2668  0.3335  0.1953
17149TIP3    H172862   4.649   5.834  10.852  0.6379 -0.5352 -0.1910
17149TIP3    H272863   4.585   5.739  10.951 -1.3381  1.5259  0.6056
17150TIP3   OH272864   5.689   0.688  11.196  0.2396 -0.1012  0.3802
17150TIP3    H172865   5.624   0.756  11.178 -0.2670 -0.0614  2.1165
17150TIP3    H272866   5.771   0.735  11.206  0.3203 -0.0123 -0.6056
17151TIP3   OH272867   0.161   5.392  14.447 -0.3659 -0.8200  0.2911
17151TIP3    H172868   0.112   5.317  14.413  0.0225 -0.9181 -0.0621
17151TIP3    H272869   0.101   5.466  14.438 -0.5383 -0.9843  0.0889
17152TIP3   OH272870   4.520   1.041   0.359 -0.8288  0.3687  0.8433
17152TIP3    H172871   4.539   1.006   0.272  1.0677  1.3235  0.8036
17152TIP3    H272872   4.560   0.978   0.419  0.1948  1.0275  0.8806
17153TIP3   OH272873   1.102   4.438   5.627 -0.3696  0.1105 -0.3205
17153TIP3    H172874   1.098   4.518   5.679 -1.0238 -0.4429  0.5134
17153TIP3    H272875   1.025   4.388   5.654  1.5077 -2.0954  1.3166
17154TIP3   OH272876   0.751   3.876   6.044  0.0302 -0.0785 -1.0057
17154TIP3    H172877   0.707   3.941   6.098 -0.3553 -1.5047  0.4894
17154TIP3    H272878   0.681   3.816   6.016  0.8459 -2.1682  1.1004
17155TIP3   OH272879   6.461   2.291  14.140 -0.4174  0.1458  0.1928
17155TIP3    H172880   6.488   2.261  14.053 -2.4204  0.8006 -0.6937
17155TIP3    H272881   6.529   2.354  14.165  0.3888 -0.3380 -0.7094
17156TIP3   OH272882   2.356   0.414  11.957 -0.3053 -0.6303  0.3139
17156TIP3    H172883   2.268   0.445  11.979 -0.7600 -0.9203 -1.0049
17156TIP3    H272884   2.363   0.428  11.863  1.9983  1.7493  0.7039
17157TIP3   OH272885   1.638   4.644   0.483  0.0168 -0.0012 -0.1590
17157TIP3    H172886   1.638   4.586   0.559  0.5703 -1.2605 -1.0942
17157TIP3    H272887   1.549   4.639   0.449 -0.3768  0.9642  0.6748
17158TIP3   OH272888   1.284   3.399   3.908  0.4187 -0.0127  0.1781
17158TIP3    H172889   1.198   3.358   3.919  0.3950  0.3572  1.6692
17158TIP3    H272890   1.271   3.467   3.842 -0.5617  0.3651  0.7485
17159TIP3   OH272891   4.413   4.205  15.441 -0.3384 -0.3015  0.1067
17159TIP3    H172892   4.395   4.113  15.423  0.1786  0.1384 -3.3165
17159TIP3    H272893   4.508   4.210  15.448 -0.2713  0.1122 -0.9345
17160TIP3   OH272894   5.103   6.333  14.837 -0.4074 -0.5080  0.4373
17160TIP3    H172895   5.157   6.348  14.759  0.7418 -3.1546  0.6369
17160TIP3    H272896   5.115   6.412  14.890 -0.6321  1.0292 -1.6936
17161TIP3   OH272897   0.407   1.167  14.212 -0.5621 -0.8743 -0.4144
17161TIP3    H172898   0.336   1.206  14.161 -0.0791 -0.6186 -0.8945
17161TIP3    H272899   0.366   1.143  14.295 -1.5219 -1.8795 -1.1472
17162TIP3   OH272900   1.443   5.965  17.144  0.3450  0.1796 -0.0984
17162TIP3    H172901   1.455   6.043  17.197 -1.5501 -0.7141  1.7644
17162TIP3    H272902   1.498   5.899  17.185  0.4099 -0.0067 -0.4741
17163TIP3   OH272903   2.010   0.295   4.437  0.3883  0.3272  0.2495
17163TIP3    H172904   1.976   0.233   4.502  1.1782  1.1679  1.5004
17163TIP3    H272905   1.981   0.259   4.353 -0.6770 -0.7863  1.0488
17164TIP3   OH272906   3.754   2.318  14.002 -0.5149  0.3500  0.3646
17164TIP3    H172907   3.760   2.330  14.097  0.2872  1.6788  0.1687
17164TIP3    H272908   3.700   2.240  13.991  0.5383 -0.6706  1.9520
17165TIP3   OH272909   4.120   4.852   6.040 -0.2287  0.0202  0.6010
17165TIP3    H172910   4.177   4.791   5.994 -0.4761  1.1595 -1.3404
17165TIP3    H272911   4.134   4.833   6.132  1.7823 -1.0808  0.1350
17166TIP3   OH272912   2.013   4.874   5.512  0.1448 -0.3627 -0.4947
17166TIP3    H172913   1.937   4.857   5.458  1.3594 -2.8397 -1.5486
17166TIP3    H272914   2.079   4.908   5.451  0.6237 -0.4469 -0.0308
17167TIP3   OH272915   2.840   2.624   6.184 -0.1569 -0.9301 -0.9930
17167TIP3    H172916   2.809   2.545   6.229  0.2797 -2.2308 -2.8445
17167TIP3    H272917   2.887   2.673   6.252 -2.6191 -0.9239  0.8453
17168TIP3   OH272918   1.157   1.748   2.993  0.4921 -0.3857 -0.3968
17168TIP3    H172919   1.187   1.725   2.905 -0.5515 -2.3763 -0.2828
17168TIP3    H272920   1.067   1.779   2.980  0.3266 -0.7142 -0.0180
17169TIP3   OH272921   1.369   3.767  12.314  0.1718  0.2197  0.3366
17169TIP3    H172922   1.282   3.789  12.351  0.0327 -0.2856  0.3091
17169TIP3    H272923   1.413   3.852  12.306 -0.3486  0.4898  0.2804
17170TIP3   OH272924   2.361   5.491   1.955 -0.4459  0.7475  0.0165
17170TIP3    H172925   2.451   5.459   1.959 -0.7977 -0.3098 -0.2930
17170TIP3    H272926   2.337   5.506   2.047 -0.6721 -1.0726  0.2826
17171TIP3   OH272927   3.236   4.218   4.981  0.6600 -0.3162  0.2882
17171TIP3    H172928   3.185   4.143   4.950  0.5354 -0.3469  0.5656
17171TIP3    H272929   3.180   4.294   4.963  1.8107  0.0127 -2.3614
17172TIP3   OH272930   6.219   6.471   4.066 -0.3229  0.3854 -0.3201
17172TIP3    H172931   6.137   6.478   4.016  0.6041  0.3521 -1.9148
17172TIP3    H272932   6.193   6.489   4.156 -2.0710  0.4842 -0.7936
17173TIP3   OH272933   0.689   5.537   4.083  0.1377  0.7834 -0.5577
17173TIP3    H172934   0.698   5.475   4.155  0.6912  1.4786 -0.0102
17173TIP3    H272935   0.721   5.489   4.006 -0.2369  0.1149 -0.3009
17174TIP3   OH272936   5.733   4.943  13.397  0.2502  0.0062 -0.4205
17174TIP3    H172937   5.754   4.853  13.419  0.7305  0.4734  1.1954
17174TIP3    H272938   5.816   4.990  13.403 -0.3684  0.9991  1.3626
17175TIP3   OH272939   3.167   5.090  13.866  0.1828  0.4488 -0.2652
17175TIP3    H172940   3.211   5.013  13.902  0.8696 -1.0328 -3.7807
17175TIP3    H272941   3.130   5.135  13.942  2.3214 -1.6978  2.2484
17176TIP3   OH272942   3.993   3.339   0.925  0.4458  0.6972 -0.5788
17176TIP3    H172943   3.910   3.295   0.945  1.1023  0.3120  1.5814
17176TIP3    H272944   3.983   3.369   0.835 -0.8867 -1.9192 -1.4066
17177TIP3   OH272945   3.983   1.756  12.183 -0.6164 -0.1731 -0.9427
17177TIP3    H172946   3.951   1.846  12.189  0.9526  0.3483  0.5035
17177TIP3    H272947   4.078   1.763  12.194 -0.7233 -2.2671  4.4321
17178TIP3   OH272948   6.094   3.119   1.279  0.0082  0.6955  0.3120
17178TIP3    H172949   6.160   3.169   1.328 -1.1805  2.0764  0.5764
17178TIP3    H272950   6.047   3.069   1.346 -0.3852  1.1236  0.3614
17179TIP3   OH272951   4.721   1.409   0.812 -0.8810  0.5160 -0.2012
17179TIP3    H172952   4.799   1.421   0.757  0.4095  0.4635  1.5576
17179TIP3    H272953   4.660   1.361   0.755  0.4103  0.4103 -1.5775
17180TIP3   OH272954   5.805   3.804   2.539  0.7337 -0.0934 -0.1270
17180TIP3    H172955   5.792   3.889   2.581 -1.0748 -0.7388  0.7067
17180TIP3    H272956   5.789   3.740   2.609  1.9286 -1.1382 -0.7744
17181TIP3   OH272957   6.610   4.203  14.172  1.0896 -0.1951  0.2466
17181TIP3    H172958   6.557   4.182  14.249  1.8655 -0.1978  0.7980
17181TIP3    H272959   6.606   4.299  14.166 -0.1768 -0.2778 -0.6099
17182TIP3   OH272960   5.610   0.872  16.605  0.3183 -0.3754 -0.7597
17182TIP3    H172961   5.539   0.838  16.659  0.7957 -2.7427 -1.4792
17182TIP3    H272962   5.584   0.850  16.515  1.8254 -1.0839 -1.0561
17183TIP3   OH272963   6.727   5.219  16.062 -0.0401 -0.1212 -0.0678
17183TIP3    H172964   6.691   5.305  16.042 -0.7407  0.1110  1.9961
17183TIP3    H272965   6.660   5.178  16.117  1.0109 -1.3481  0.3316
17184TIP3   OH272966   4.312   3.046   3.159  0.3501  0.4512 -0.3714
17184TIP3    H172967   4.396   3.056   3.205  0.2340  1.7156 -0.4110
17184TIP3    H272968   4.325   3.092   3.076  0.0100 -0.4050 -0.9154
17185TIP3   OH272969   3.683   3.560  11.343  0.5441 -0.3768 -0.0890
17185TIP3    H172970   3.626   3.637  11.339  2.3419  1.1674  1.7455
17185TIP3    H272971   3.624   3.487  11.357 -1.3678  0.3841 -3.2737
17186TIP3   OH272972   2.649   4.859   2.487 -0.5344 -0.3591  0.5864
17186TIP3    H172973   2.596   4.849   2.408  1.5164  0.3432 -0.9944
17186TIP3    H272974   2.703   4.780   2.490 -0.7043 -0.4512  1.3972
17187TIP3   OH272975   3.410   2.912  15.233 -0.4120  0.1489 -0.7579
17187TIP3    H172976   3.391   2.976  15.300  0.3985 -0.6907  0.3118
17187TIP3    H272977   3.378   2.829  15.269 -0.9699 -0.1467 -1.8879
17188TIP3   OH272978   3.564   1.805  16.451  0.4164  0.3072 -0.3060
17188TIP3    H172979   3.526   1.725  16.416  0.9609 -0.4595  0.7947
17188TIP3    H272980   3.561   1.867  16.378 -1.5249 -0.1842 -0.6932
17189TIP3   OH272981   2.243   2.977  12.567  0.0676 -0.1309 -0.2556
17189TIP3    H172982   2.217   2.897  12.522 -1.3765 -0.7200  1.5176
17189TIP3    H272983   2.164   3.031  12.568 -0.1252 -0.3591  1.9641
17190TIP3   OH272984   0.601   3.760  13.304  0.2044  0.0620  0.7472
17190TIP3    H172985   0.660   3.756  13.229  0.0774  0.3062  0.6332
17190TIP3    H272986   0.532   3.696  13.284  0.2507  0.0192  0.7259
17191TIP3   OH272987   4.247   2.734   0.390 -0.0172  0.0878 -0.1107
17191TIP3    H172988   4.253   2.818   0.346 -1.1237 -0.0786 -0.6115
17191TIP3    H272989   4.173   2.690   0.348 -2.2765  0.5837  2.9923
17192TIP3   OH272990   5.527   6.046   4.306 -0.6297  0.0162 -0.0347
17192TIP3    H172991   5.449   6.046   4.250 -0.2328  0.7910 -0.6084
17192TIP3    H272992   5.496   6.077   4.391 -1.3681 -1.7869  0.3907
17193TIP3   OH272993   6.353   2.588  10.586  0.0136  0.1086 -0.2150
17193TIP3    H172994   6.312   2.547  10.661  0.4624  1.1698  0.6355
17193TIP3    H272995   6.446   2.593  10.608  0.2457 -0.0679 -1.0824
17194TIP3   OH272996   2.703   6.121  13.686 -0.6016  0.3573  0.0015
17194TIP3    H172997   2.778   6.091  13.737  0.2940 -0.6744 -1.7978
17194TIP3    H272998   2.639   6.149  13.751  0.0421 -1.8478  1.7168
17195TIP3   OH272999   3.635   4.796  12.848 -0.0401  0.6682  0.3668
17195TIP3    H173000   3.620   4.806  12.943 -0.1858  1.1521  0.2964
17195TIP3    H273001   3.559   4.838  12.808 -0.0059  0.4120  0.0312
17196TIP3   OH273002   6.594   4.971   3.908  0.0815  0.0364  0.5789
17196TIP3    H173003   6.685   4.947   3.924 -0.4046 -2.1654  0.3078
17196TIP3    H273004   6.552   4.967   3.993 -0.4909 -2.5204  0.2467
17197TIP3   OH273005   4.446   3.235   2.436 -0.4353  0.3049 -0.3525
17197TIP3    H173006   4.432   3.232   2.530  0.3837 -1.5047 -0.2479
17197TIP3    H273007   4.358   3.248   2.399 -0.8303  0.4898  0.6354
17198TIP3   OH273008   1.669   0.353  11.695 -0.3914 -0.6832  0.0522
17198TIP3    H173009   1.654   0.373  11.787 -0.3032 -2.7626  0.5685
17198TIP3    H273010   1.587   0.313  11.666  0.4596 -2.4695 -0.0052
17199TIP3   OH273011   4.717   3.164  16.617  0.4669  0.5382 -0.0620
17199TIP3    H173012   4.628   3.150  16.650 -0.0471 -0.2096 -1.6631
17199TIP3    H273013   4.772   3.112  16.676 -0.3457 -0.3177 -0.0166
17200TIP3   OH273014   3.541   0.479  12.438  0.2720 -0.0455  0.3222
17200TIP3    H173015   3.554   0.385  12.450  0.8952  0.1158  0.9832
17200TIP3    H273016   3.460   0.497  12.486  0.4309 -0.1609  0.6416
17201TIP3   OH273017   0.215   6.005  12.886  0.3537 -0.0147  0.0423
17201TIP3    H173018   0.162   5.948  12.830  0.6278 -1.5161  1.2299
17201TIP3    H273019   0.299   5.960  12.893  1.5694  1.9097 -1.1339
17202TIP3   OH273020   2.429   2.640  11.461 -0.3083 -0.4892  0.1957
17202TIP3    H173021   2.379   2.713  11.426 -2.5707 -1.9348  0.2404
17202TIP3    H273022   2.387   2.620  11.545  1.9896 -0.1638  1.5143
17203TIP3   OH273023   3.926   4.067  15.659  0.3902 -0.7859  0.5146
17203TIP3    H173024   3.945   4.047  15.567  0.8253  1.1108  0.1336
17203TIP3    H273025   4.011   4.073  15.701  0.6603  3.2583 -0.1693
17204TIP3   OH273026   2.850   4.000  16.294  0.5244 -0.0928 -0.0213
17204TIP3    H173027   2.819   4.058  16.223 -0.9530 -0.6527  0.1367
17204TIP3    H273028   2.882   4.060  16.361 -0.1591  0.5261 -0.2343
17205TIP3   OH273029   3.506   4.487  11.655 -0.7260  0.2228 -0.4270
17205TIP3    H173030   3.497   4.578  11.685 -1.8917 -0.4405  1.3980
17205TIP3    H273031   3.580   4.452  11.704  1.5259  0.8828 -3.1367
17206TIP3   OH273032   2.045   1.251   2.060  0.0260  0.1574  0.4530
17206TIP3    H173033   2.007   1.338   2.055 -0.4966 -0.0263  1.1850
17206TIP3    H273034   2.013   1.206   1.981  0.2328  0.5910  0.1185
17207TIP3   OH273035   5.569   1.267   3.404 -0.3158 -0.1014  0.2879
17207TIP3    H173036   5.638   1.212   3.367 -0.4491  1.3024 -2.2720
17207TIP3    H273037   5.575   1.349   3.355 -5.1093 -0.5864 -1.7535
17208TIP3   OH273038   3.515   6.365   4.641  0.1503 -0.3992 -0.0560
17208TIP3    H173039   3.551   6.278   4.656 -0.8054 -0.8491 -0.3093
17208TIP3    H273040   3.557   6.420   4.708  0.9194 -1.0011 -0.0358
17209TIP3   OH273041   2.742   1.987   5.404  0.0172  0.4146 -0.2489
17209TIP3    H173042   2.676   2.010   5.469 -0.9238  0.5001 -1.2018
17209TIP3    H273043   2.724   2.045   5.330  0.4697 -0.3160 -0.9495
17210TIP3   OH273044   4.262   1.584   6.554  0.1092  0.1865 -0.5930
17210TIP3    H173045   4.184   1.536   6.526  1.1220 -1.4097 -0.7492
17210TIP3    H273046   4.335   1.538   6.514  1.0868  2.8811 -2.2142
17211TIP3   OH273047   1.940   0.172   1.473  0.0875  0.4446 -0.5829
17211TIP3    H173048   1.918   0.171   1.566 -1.0666  1.4708 -0.8156
17211TIP3    H273049   1.995   0.249   1.462 -1.2047  1.3243 -1.0285
17212TIP3   OH273050   2.344   4.596   1.437  0.3902  0.3281 -0.5252
17212TIP3    H173051   2.393   4.522   1.474  3.1044  1.7976 -0.8703
17212TIP3    H273052   2.407   4.669   1.438 -2.8923  3.5321  2.4541
17213TIP3   OH273053   4.569   0.737  12.239 -0.2586 -0.0426 -0.6193
17213TIP3    H173054   4.581   0.832  12.231  0.5136 -0.1067 -0.2540
17213TIP3    H273055   4.641   0.708  12.296 -1.1521 -0.6853  0.2185
17214TIP3   OH273056   3.366   2.454  14.786 -0.1050  1.0411  0.3563
17214TIP3    H173057   3.450   2.454  14.741 -0.5440  0.7076 -0.5083
17214TIP3    H273058   3.379   2.507  14.864  0.9211  0.9294  0.2678
17215TIP3   OH273059   2.239   4.815   1.987  0.1671  0.2073  0.0283
17215TIP3    H173060   2.295   4.851   1.918 -1.0539  0.2646 -0.9663
17215TIP3    H273061   2.264   4.723   1.992  1.0996  0.4670  0.3628
17216TIP3   OH273062   0.865   4.525  11.851 -0.0904 -0.2681  0.3768
17216TIP3    H173063   0.932   4.469  11.811  1.4266  1.9198 -0.3750
17216TIP3    H273064   0.913   4.604  11.877 -2.2772  1.0995  0.4917
17217TIP3   OH273065   2.243   4.930  15.501  0.3978 -0.3617 -0.0279
17217TIP3    H173066   2.186   4.989  15.551  0.7927 -0.8439  1.0201
17217TIP3    H273067   2.190   4.903  15.426 -0.3046  0.1735  0.2674
17218TIP3   OH273068   0.926   3.668   3.314  0.3836  0.7585  0.3982
17218TIP3    H173069   0.995   3.611   3.281  0.6303  1.6092 -0.6097
17218TIP3    H273070   0.905   3.633   3.401  0.0107 -1.3058 -0.4583
17219TIP3   OH273071   6.721   5.124  15.102  0.1827  0.4677  0.3012
17219TIP3    H173072   6.790   5.067  15.066  0.1514 -0.1421  1.1760
17219TIP3    H273073   6.691   5.078  15.180 -2.3771 -0.0945 -0.9291
17220TIP3   OH273074   5.443   0.638  13.102 -0.4717  0.1454  0.5252
17220TIP3    H173075   5.384   0.705  13.135 -0.9453 -0.3780  0.7453
17220TIP3    H273076   5.458   0.580  13.176  1.0247  0.7451  0.7303
17221TIP3   OH273077   6.387   4.350   2.975 -0.2908  0.4513 -0.0058
17221TIP3    H173078   6.456   4.288   2.998 -0.5607 -0.4341 -1.4327
17221TIP3    H273079   6.350   4.377   3.059  2.0855  1.3545  0.8412
17222TIP3   OH273080   4.542   0.347   1.024  0.0690 -0.6567  0.0911
17222TIP3    H173081   4.447   0.354   1.038  0.1727  0.7144  0.2940
17222TIP3    H273082   4.551   0.286   0.951 -1.0099 -0.4138 -0.2741
17223TIP3   OH273083   5.043   5.768  16.792 -0.3269  0.1986  0.2137
17223TIP3    H173084   5.128   5.740  16.758 -0.1059 -0.6877  1.4432
17223TIP3    H273085   5.002   5.688  16.823 -1.1344  0.7796  0.6898
17224TIP3   OH273086   0.216   0.209   3.718  0.6776 -0.5300  0.2934
17224TIP3    H173087   0.281   0.262   3.671  0.0845  1.3276  1.4730
17224TIP3    H273088   0.138   0.213   3.664  0.5674 -0.0025  0.4899
17225TIP3   OH273089   3.279   5.053   2.116  0.0944  0.3794  0.1431
17225TIP3    H173090   3.306   5.003   2.039  2.3083  1.4332  0.1511
17225TIP3    H273091   3.344   5.031   2.183 -0.1608  1.5782  0.8179
17226TIP3   OH273092   1.677   5.932  11.722 -0.4466 -0.6014 -0.0702
17226TIP3    H173093   1.636   5.892  11.645 -1.4105 -0.5397  0.3975
17226TIP3    H273094   1.624   5.901  11.796  0.3140 -0.4539  0.5419
17227TIP3   OH273095   6.770   1.223   2.418 -0.2966 -0.1190  1.0873
17227TIP3    H173096   6.744   1.276   2.343  0.4504 -1.8195 -0.4306
17227TIP3    H273097   6.864   1.207   2.404 -0.8780 -3.5531  0.3051
17228TIP3   OH273098   1.129   0.227   4.652 -0.0682  0.0088  0.0161
17228TIP3    H173099   1.102   0.135   4.645  1.2466 -0.5699  1.7482
17228TIP3    H273100   1.074   0.273   4.588 -2.6499 -1.5713  0.9195
17229TIP3   OH273101   6.041   6.061   3.942 -0.1966 -0.4209 -0.6245
17229TIP3    H173102   6.112   6.027   3.887  2.6244  1.9517  1.2651
17229TIP3    H273103   6.043   6.005   4.020  1.0303  0.8541  0.2950
17230TIP3   OH273104   0.929   5.348   5.087 -0.1542 -0.0523 -0.4866
17230TIP3    H173105   0.934   5.444   5.089  0.6087 -0.0930  0.9575
17230TIP3    H273106   0.850   5.327   5.136 -0.5490 -0.1607 -1.1604
17231TIP3   OH273107   3.561   5.348   5.811 -0.3597  0.3600 -0.4579
17231TIP3    H173108   3.525   5.260   5.822  0.5489  0.2902  2.7330
17231TIP3    H273109   3.643   5.335   5.764  0.5536 -0.7333  1.3750
17232TIP3   OH273110   2.283   1.230  15.638 -0.4095 -0.7963 -0.0007
17232TIP3    H173111   2.307   1.316  15.605  0.5721 -0.9021  0.4174
17232TIP3    H273112   2.187   1.233  15.643 -0.3277  0.8003  1.4244
17233TIP3   OH273113   3.444   2.091   4.186 -0.2169  0.2867  0.5084
17233TIP3    H173114   3.455   1.999   4.162  2.5035  0.2976  1.3586
17233TIP3    H273115   3.404   2.088   4.273  0.0194 -0.1075  0.6085
17234TIP3   OH273116   4.367   5.583  12.136 -0.4597 -0.6375 -0.3703
17234TIP3    H173117   4.364   5.503  12.190 -2.4253  0.7428  1.8035
17234TIP3    H273118   4.399   5.651  12.196 -0.8614  0.6218 -1.5315
17235TIP3   OH273119   0.859   3.435  12.906 -0.2493  0.3017 -0.6857
17235TIP3    H173120   0.824   3.441  12.817  0.1307 -0.7789 -0.9213
17235TIP3    H273121   0.952   3.418  12.894  0.4359  3.1925 -0.0608
17236TIP3   OH273122   1.555   2.176   0.952 -0.4345 -0.2734 -0.5844
17236TIP3    H173123   1.598   2.132   0.879 -0.2010  0.4862 -0.9151
17236TIP3    H273124   1.618   2.242   0.981 -0.7302 -0.2251 -0.0318
17237TIP3   OH273125   5.486   3.217   4.425  0.3015 -0.0760 -0.0605
17237TIP3    H173126   5.456   3.129   4.449 -0.7926  0.6750  1.4698
17237TIP3    H273127   5.540   3.245   4.499  2.0989 -0.0728 -1.2902
17238TIP3   OH273128   6.332   0.622   0.425  0.2620 -0.2526  0.3657
17238TIP3    H173129   6.309   0.574   0.346  0.6300 -1.4792  0.9848
17238TIP3    H273130   6.249   0.634   0.471  0.3105 -1.2522  0.7247
17239TIP3   OH273131   5.854   2.754  17.165  0.1400 -0.0084  0.0463
17239TIP3    H173132   5.759   2.743  17.171  0.1826  0.2737  1.5821
17239TIP3    H273133   5.887   2.665  17.151 -0.3506 -0.0568 -0.9354
17240TIP3   OH273134   5.998   0.617   0.132 -0.2045 -0.3210  0.7137
17240TIP3    H173135   5.943   0.589   0.205 -1.0725 -0.2068  0.1237
17240TIP3    H273136   6.026   0.536   0.090 -1.5450 -0.3825 -0.1415
17241TIP3   OH273137   6.306   1.934  13.084  0.2661  0.2859 -0.3006
17241TIP3    H173138   6.362   2.007  13.057 -0.5992  2.0445  2.2817
17241TIP3    H273139   6.220   1.973  13.096  0.0214 -0.8384  2.3181
17242TIP3   OH273140   4.879   2.416  13.460 -0.5888  0.0745 -0.5903
17242TIP3    H173141   4.935   2.366  13.399 -0.3951  1.0249 -1.2051
17242TIP3    H273142   4.904   2.383  13.547  0.3046 -0.1349 -0.9152
17243TIP3   OH273143   5.390   3.452  13.108 -0.2646  0.0733  0.1939
17243TIP3    H173144   5.304   3.480  13.140  0.4379  1.8056  0.6568
17243TIP3    H273145   5.443   3.440  13.187  0.1969 -0.0811 -0.1304
17244TIP3   OH273146   1.987   0.797   5.711 -0.7937  0.2741 -0.7959
17244TIP3    H173147   1.932   0.870   5.681 -2.5747 -0.2108  1.0889
17244TIP3    H273148   2.006   0.818   5.802  0.0311 -0.8370 -0.7014
17245TIP3   OH273149   6.412   6.136  15.707 -0.0329  0.6975 -0.6602
17245TIP3    H173150   6.361   6.132  15.625 -0.9529 -0.7140 -0.0582
17245TIP3    H273151   6.490   6.187  15.684 -0.0378 -0.0627 -2.5586
17246TIP3   OH273152   3.492   0.598   0.298  0.0909  0.5950  0.1532
17246TIP3    H173153   3.396   0.599   0.302  0.0116  1.4860 -1.2297
17246TIP3    H273154   3.513   0.524   0.242  0.1525  0.9332 -0.2794
17247TIP3   OH273155   2.822   1.679   0.534  0.0799 -0.2072  0.3569
17247TIP3    H173156   2.795   1.699   0.624  0.6043  0.8122  0.2940
17247TIP3    H273157   2.842   1.585   0.536 -1.8696 -0.6604  0.7974
17248TIP3   OH273158   5.933   1.803  11.061 -0.3811 -0.4275  0.0941
17248TIP3    H173159   5.980   1.881  11.031 -0.0976  0.2195  2.0919
17248TIP3    H273160   5.870   1.784  10.991  1.9439 -0.5938 -2.1189
17249TIP3   OH273161   3.577   1.236   4.214  0.3437 -0.2492 -0.4285
17249TIP3    H173162   3.544   1.253   4.303 -0.9029  0.2648 -0.9728
17249TIP3    H273163   3.665   1.274   4.214  0.5153 -0.5958  0.7000
17250TIP3   OH273164   5.807   0.042   3.714 -0.1243 -0.5562  0.2478
17250TIP3    H173165   5.855   0.109   3.762 -0.3801  0.4570 -0.8683
17250TIP3    H273166   5.859  -0.038   3.725  2.0818  0.5697 -1.2541
17251TIP3   OH273167   3.740   4.970  16.205 -0.2627 -0.1794 -0.0817
17251TIP3    H173168   3.711   4.950  16.294  1.7963 -2.3475  0.1972
17251TIP3    H273169   3.759   5.064  16.207  0.1207 -0.2476  1.9124
17252TIP3   OH273170   3.203   1.544  11.164  0.3355 -0.4201  0.0025
17252TIP3    H173171   3.209   1.581  11.076 -1.1437  0.1034  0.0950
17252TIP3    H273172   3.118   1.500  11.166  0.2827 -0.2939  1.2177
17253TIP3   OH273173   4.279   0.862   6.620 -0.4093 -0.1316  0.4687
17253TIP3    H173174   4.204   0.811   6.589 -1.1710  2.2659 -1.9845
17253TIP3    H273175   4.352   0.832   6.566 -0.3166 -0.2228  0.6433
17254TIP3   OH273176   3.768   5.970  10.772 -0.2141 -0.4105 -0.1679
17254TIP3    H173177   3.687   6.017  10.751 -0.7047 -1.1928 -0.0607
17254TIP3    H273178   3.753   5.881  10.740  0.8500 -0.4083 -0.7202
17255TIP3   OH273179   2.173   0.282  17.230  0.0300 -0.4276  0.4874
17255TIP3    H173180   2.137   0.304  17.144  0.4988  1.4390  0.7171
17255TIP3    H273181   2.218   0.199  17.217  0.9532  0.2853 -1.3473
17256TIP3   OH273182   0.015   3.832   0.237 -0.2291 -0.6329 -0.1074
17256TIP3    H173183  -0.051   3.780   0.191 -0.4123 -1.8287  1.4465
17256TIP3    H273184  -0.028   3.861   0.317  0.7073 -0.2773  0.2858
17257TIP3   OH273185   0.090   6.601   4.391  0.4327  0.1784  0.1307
17257TIP3    H173186   0.060   6.684   4.430  0.6873  0.4376 -0.2167
17257TIP3    H273187   0.160   6.572   4.449  0.4446  0.2850  0.1712
17258TIP3   OH273188   0.181   2.166   4.836  0.3353 -0.6092  0.0684
17258TIP3    H173189   0.154   2.153   4.745  1.2250 -3.2078  0.0908
17258TIP3    H273190   0.126   2.238   4.867 -1.2683 -0.8443 -1.9920
17259TIP3   OH273191   0.637   5.980  15.696 -0.0995  0.2452 -0.3426
17259TIP3    H173192   0.701   5.921  15.736  1.3851  1.3459 -0.9893
17259TIP3    H273193   0.568   5.989  15.762  0.1375 -1.3725  0.1753
17260TIP3   OH273194   0.756   1.655  13.218  0.8922 -0.2024  0.5048
17260TIP3    H173195   0.726   1.620  13.302  1.4763 -0.9011  0.4338
17260TIP3    H273196   0.702   1.610  13.153  1.2252 -0.5327  0.4492
17261TIP3   OH273197   1.175   6.706   3.635  0.3901 -0.3386 -0.3303
17261TIP3    H173198   1.253   6.698   3.580  1.0207 -0.6690  0.5889
17261TIP3    H273199   1.174   6.626   3.687 -0.2852 -0.1047  0.0320
17262TIP3   OH273200   3.669   1.339  11.346 -0.0947 -0.1522 -0.2441
17262TIP3    H173201   3.705   1.301  11.426 -0.9774  2.1889  1.4086
17262TIP3    H273202   3.613   1.410  11.377  0.4922  1.6893 -2.9834
17263TIP3   OH273203   4.045   6.615   0.474  0.4799  0.1109  0.1291
17263TIP3    H173204   4.049   6.597   0.380  2.3623 -0.6467  0.3161
17263TIP3    H273205   4.040   6.529   0.515  0.3705  0.4081  0.7541
17264TIP3   OH273206   0.877   0.862  13.721  0.2298 -0.2007 -0.1755
17264TIP3    H173207   0.923   0.779  13.715 -0.6489 -0.6916 -0.3952
17264TIP3    H273208   0.914   0.916  13.651 -1.3737 -1.5433 -2.1878
17265TIP3   OH273209   2.024   4.722   3.533 -0.1399 -0.5253  0.4069
17265TIP3    H173210   1.962   4.787   3.566  0.0260 -1.3430  2.4790
17265TIP3    H273211   1.996   4.704   3.444 -1.3560  0.9501  0.4614
17266TIP3   OH273212   4.353   4.422  14.671  0.4853 -0.7595 -0.3634
17266TIP3    H173213   4.377   4.368  14.747  0.9979  1.9397  1.5430
17266TIP3    H273214   4.268   4.458  14.694  1.5586  1.7301 -0.0300
17267TIP3   OH273215   2.145   4.668   0.479 -0.9378 -0.0114  0.3751
17267TIP3    H173216   2.120   4.697   0.567 -1.1125 -2.0777  1.0445
17267TIP3    H273217   2.067   4.624   0.446 -0.8311  0.6467 -0.7867
17268TIP3   OH273218   3.889   5.699  12.029  0.1483 -0.4501  0.6607
17268TIP3    H173219   3.810   5.664  11.987  0.7021  0.4976 -1.3401
17268TIP3    H273220   3.878   5.680  12.122 -1.8622 -1.4146  0.2805
17269TIP3   OH273221   2.207   2.080  13.780  0.4916 -0.3314  0.4558
17269TIP3    H173222   2.185   1.996  13.820 -0.6831 -0.8738 -1.2493
17269TIP3    H273223   2.129   2.133  13.792 -0.1603 -0.7384 -1.6440
17270TIP3   OH273224   2.702   6.252  17.067  0.1045 -0.4145 -0.5983
17270TIP3    H173225   2.690   6.165  17.104 -2.4214  0.8411  1.9756
17270TIP3    H273226   2.747   6.302  17.135  1.3510  0.4046 -1.9501
17271TIP3   OH273227   6.515   2.266   5.561 -0.0481  0.0224  0.3724
17271TIP3    H173228   6.447   2.243   5.624 -0.7668 -0.2586 -0.4947
17271TIP3    H273229   6.468   2.288   5.481  0.9134 -1.5090 -0.6666
17272TIP3   OH273230   6.219   5.376  10.842 -0.2642 -0.0963 -0.4308
17272TIP3    H173231   6.189   5.288  10.819  2.5598 -1.0926 -0.7564
17272TIP3    H273232   6.247   5.414  10.759  2.0108 -0.4182  0.1078
17273TIP3   OH273233   2.619   3.474  16.935 -0.3024  0.3931 -0.1977
17273TIP3    H173234   2.623   3.540  17.004 -0.4665 -0.0716  0.2565
17273TIP3    H273235   2.623   3.525  16.854 -0.8194  0.9963  0.1411
17274TIP3   OH273236   1.871   5.719   5.070  0.4839  0.4892 -0.1304
17274TIP3    H173237   1.910   5.782   5.009  1.5423  0.9124  0.9388
17274TIP3    H273238   1.944   5.662   5.096 -0.7343 -2.2563 -2.2613
17275TIP3   OH273239   3.217   4.336   1.671  0.6547 -0.2312 -0.7209
17275TIP3    H173240   3.196   4.247   1.641  0.6894 -0.0053 -1.4251
17275TIP3    H273241   3.302   4.327   1.715  1.4016 -0.2888 -2.1201
17276TIP3   OH273242   3.625   6.215   4.224 -0.1859 -0.3046  0.2798
17276TIP3    H173243   3.545   6.235   4.272  1.5386 -0.9721  3.7506
17276TIP3    H273244   3.604   6.235   4.133 -2.9713  3.4593  1.5102
17277TIP3   OH273245   3.086   6.339  11.025 -0.3469 -0.4358  0.2403
17277TIP3    H173246   3.030   6.385  11.087 -0.8456 -0.4626 -0.1807
17277TIP3    H273247   3.025   6.295  10.966  0.1072  0.0645 -0.6251
17278TIP3   OH273248   0.419   6.307  11.869  0.9285 -0.4963  1.1229
17278TIP3    H173249   0.335   6.264  11.888  0.2727 -0.6471 -1.7156
17278TIP3    H273250   0.410   6.394  11.910 -1.5457  0.2951 -0.8258
17279TIP3   OH273251   1.754   6.286  14.405  0.2762 -0.2198 -0.3218
17279TIP3    H173252   1.828   6.338  14.374  0.2862  0.8589  1.3723
17279TIP3    H273253   1.678   6.322  14.361  0.1391  2.0204  1.5764
17280TIP3   OH273254   2.774   1.666   1.336 -0.4712  0.0410  0.0221
17280TIP3    H173255   2.751   1.660   1.429 -0.5937 -0.3936 -0.0345
17280TIP3    H273256   2.737   1.750   1.308  3.5278  2.5489  1.4443
17281TIP3   OH273257   4.897   2.743   6.212  0.4388  0.0554 -0.2356
17281TIP3    H173258   4.823   2.785   6.169  1.7194  1.4810 -1.1413
17281TIP3    H273259   4.867   2.726   6.302 -1.1525  0.0518 -0.7395
17282TIP3   OH273260   1.306   1.317  11.482  0.7524 -0.0893  0.8999
17282TIP3    H173261   1.401   1.311  11.475  0.6351 -1.2783 -0.0160
17282TIP3    H273262   1.287   1.410  11.467  1.6803 -0.0938 -0.5478
17283TIP3   OH273263   4.169   6.239   2.796  0.3165 -0.0826 -0.6125
17283TIP3    H173264   4.076   6.261   2.790  0.1090 -0.6542  0.2588
17283TIP3    H273265   4.178   6.160   2.742 -0.3194 -1.6990  1.4825
17284TIP3   OH273266   0.043   0.613  16.364  0.6029  0.2719 -0.5046
17284TIP3    H173267  -0.041   0.566  16.362  0.0880  1.1151  0.4724
17284TIP3    H273268   0.076   0.605  16.275 -1.7693  2.1086 -1.6880
17285TIP3   OH273269   1.681   5.643   2.105  0.0361 -0.5348  0.3294
17285TIP3    H173270   1.624   5.661   2.180 -1.5837 -2.6179 -0.3050
17285TIP3    H273271   1.674   5.721   2.050  0.5255  0.6418  1.8366
17286TIP3   OH273272   5.724   1.631  17.011  0.0847  0.3252 -0.6121
17286TIP3    H173273   5.668   1.611  17.086  1.1753  0.8635  0.3783
17286TIP3    H273274   5.733   1.726  17.011  0.1176  0.3357 -1.4209
17287TIP3   OH273275   4.434   6.472  14.718  0.0184 -0.1458 -0.6800
17287TIP3    H173276   4.518   6.449  14.758 -0.3850 -1.1777 -0.4102
17287TIP3    H273277   4.370   6.419  14.764 -0.9670  1.5226 -0.0592
17288TIP3   OH273278   1.432   0.558  14.940 -0.8255  0.2404  0.2990
17288TIP3    H173279   1.525   0.563  14.961 -0.6432 -2.1828  0.2961
17288TIP3    H273280   1.388   0.560  15.025 -0.7417  0.7092  0.3345
17289TIP3   OH273281   1.651   5.016   1.753 -0.2769 -0.3921  0.1688
17289TIP3    H173282   1.711   5.090   1.745 -0.5888 -0.1800 -0.2606
17289TIP3    H273283   1.570   5.054   1.789  0.0792 -0.8020  1.4503
17290TIP3   OH273284   2.323   1.524  16.383 -0.1750 -0.2491 -0.1616
17290TIP3    H173285   2.257   1.582  16.422  1.1447  2.1739 -1.2692
17290TIP3    H273286   2.273   1.469  16.323 -1.6771 -1.3318  1.9664
17291TIP3   OH273287   0.897   3.215   3.548 -0.2164  0.1282  0.4200
17291TIP3    H173288   0.886   3.281   3.479 -0.0517  0.3913  0.6412
17291TIP3    H273289   0.847   3.140   3.518  2.5999 -1.0904 -1.7088
17292TIP3   OH273290   1.757   3.459   2.160 -0.3041  0.8788  0.0356
17292TIP3    H173291   1.747   3.512   2.081  2.4646 -0.1388 -1.0860
17292TIP3    H273292   1.850   3.465   2.182 -0.2946 -1.7860  1.0993
17293TIP3   OH273293   5.039   0.566  16.080 -0.3472  0.2118 -0.5209
17293TIP3    H173294   4.969   0.587  16.018 -0.7979 -1.2742 -0.5526
17293TIP3    H273295   5.113   0.540  16.026  0.3990  2.0860 -0.4985
17294TIP3   OH273296   3.161   6.107   2.469  0.1277  0.6201 -0.4530
17294TIP3    H173297   3.088   6.163   2.442  0.3573  0.9246 -0.4476
17294TIP3    H273298   3.234   6.135   2.414  0.3014  0.4723 -0.2974
17295TIP3   OH273299   0.595   0.920  13.250 -0.0105 -0.8299 -0.7206
17295TIP3    H173300   0.603   0.901  13.343 -0.1834  0.1737 -0.4854
17295TIP3    H273301   0.542   0.849  13.215 -1.7552 -0.1027  0.3549
17296TIP3   OH273302   6.194   4.786   5.002 -0.1101  0.2341 -0.2329
17296TIP3    H173303   6.135   4.851   4.966 -0.0331  0.0350 -0.7257
17296TIP3    H273304   6.160   4.702   4.970 -2.3327 -0.3894  3.1731
17297TIP3   OH273305   2.977   0.794  11.719 -0.3641 -0.7354 -0.5186
17297TIP3    H173306   3.072   0.786  11.733 -0.2629  1.1020  0.1056
17297TIP3    H273307   2.947   0.847  11.793 -2.0314 -1.9397 -0.2820
17298TIP3   OH273308   4.366   3.515  11.849 -0.0131  0.4612  0.0329
17298TIP3    H173309   4.441   3.520  11.909 -0.9803  0.0606  1.3297
17298TIP3    H273310   4.293   3.488  11.905 -0.8171 -0.6272 -1.4666
17299TIP3   OH273311   4.503   0.402  13.083  0.1688 -0.0241 -0.0342
17299TIP3    H173312   4.440   0.330  13.083 -1.0170  0.8652  3.0392
17299TIP3    H273313   4.553   0.391  13.164  1.4644  1.3977 -0.5911
17300TIP3   OH273314   1.630   4.184  11.200  0.4829 -0.0448 -0.3813
17300TIP3    H173315   1.540   4.151  11.191  1.4022 -2.4817 -1.6796
17300TIP3    H273316   1.631   4.266  11.150 -1.6293  1.5553  1.9710
17301TIP3   OH273317   5.559   1.094  12.034 -0.3004 -0.4429  0.0578
17301TIP3    H173318   5.576   1.116  12.126  0.5984 -0.7555 -0.0226
17301TIP3    H273319   5.643   1.061  12.002 -0.6442 -0.4506 -0.8452
17302TIP3   OH273320   1.724   3.652  14.180 -0.1294  0.1148 -0.1737
17302TIP3    H173321   1.631   3.646  14.162  0.0381 -1.2270 -0.6761
17302TIP3    H273322   1.730   3.704  14.261 -1.3328 -0.1864  0.1178
17303TIP3   OH273323   2.740   1.927  15.414 -0.4368  0.0360 -0.8483
17303TIP3    H173324   2.687   1.972  15.480  0.6167  0.2424 -0.1115
17303TIP3    H273325   2.825   1.970  15.419  0.4109 -1.6201 -0.5624
17304TIP3   OH273326   5.230   6.623  14.816 -0.3760 -0.4642  0.4137
17304TIP3    H173327   5.225   6.590  14.726 -0.5233 -2.5410  1.1295
17304TIP3    H273328   5.196   6.712  14.811  1.8727  0.3896 -1.9929
17305TIP3   OH273329   5.687   3.760  17.346 -0.6542 -0.5303  0.0559
17305TIP3    H173330   5.600   3.733  17.318 -1.0614  0.3829  0.4279
17305TIP3    H273331   5.675   3.847  17.382  0.5618 -0.0344 -0.6824
17306TIP3   OH273332   3.223   3.095   2.517  0.0868  0.0506  0.0577
17306TIP3    H173333   3.156   3.058   2.576  1.6709 -0.7794  1.4126
17306TIP3    H273334   3.247   3.023   2.460 -0.0249  0.2959 -0.3027
17307TIP3   OH273335   4.725   0.596   6.567 -0.2469 -0.5517  0.3129
17307TIP3    H173336   4.724   0.634   6.655 -1.2455  2.7090 -0.9825
17307TIP3    H273337   4.817   0.598   6.541 -0.2320  0.7916  0.4045
17308TIP3   OH273338   3.884   0.592  16.926  0.9322  0.5132  0.3110
17308TIP3    H173339   3.912   0.628  17.010 -1.0560  1.5612  0.5742
17308TIP3    H273340   3.793   0.564  16.941  0.6054  0.5375 -1.4365
17309TIP3   OH273341   5.167   1.447   2.573 -0.1890  0.5702  0.1575
17309TIP3    H173342   5.109   1.375   2.597  0.3452 -0.2633 -0.9192
17309TIP3    H273343   5.246   1.432   2.624  0.0656  0.1549 -0.3462
17310TIP3   OH273344   4.553   0.289  12.496 -0.7592 -0.2374  0.1196
17310TIP3    H173345   4.601   0.304  12.577 -2.1822  0.2749  0.9045
17310TIP3    H273346   4.580   0.359  12.438  0.0872 -0.4636  0.2309
17311TIP3   OH273347   3.269   5.773   1.634  0.0838  0.5159 -0.0825
17311TIP3    H173348   3.215   5.694   1.632 -0.2157  0.7310 -0.9998
17311TIP3    H273349   3.256   5.813   1.548  0.3102  1.5157  0.3349
17312TIP3   OH273350   2.435   0.182  12.570  0.3532  0.0494  0.6510
17312TIP3    H173351   2.491   0.243  12.523  0.7797 -1.8389 -1.4423
17312TIP3    H273352   2.347   0.200  12.538  0.3459  0.1624  0.7323
17313TIP3   OH273353   3.555   6.693   0.551 -0.1686  0.4827  0.4170
17313TIP3    H173354   3.639   6.654   0.575  0.6454  1.1886 -1.1498
17313TIP3    H273355   3.538   6.757   0.621 -1.2811 -2.1560  2.7388
17314TIP3   OH273356   4.475   6.503  15.563 -0.3483 -0.8865 -0.1514
17314TIP3    H173357   4.497   6.475  15.474  1.3637 -0.7643  0.1980
17314TIP3    H273358   4.470   6.421  15.613 -1.3630 -0.9594 -0.3361
17315TIP3   OH273359   1.003   3.123  13.501  0.4520 -0.4092  0.6532
17315TIP3    H173360   0.939   3.093  13.565 -0.3085  0.6402  0.4054
17315TIP3    H273361   1.075   3.060  13.508  0.0409 -0.7626  1.9703
17316TIP3   OH273362   0.459   4.376  15.515 -0.1522 -0.0728  0.1833
17316TIP3    H173363   0.480   4.469  15.513 -1.8976  0.3537 -1.6089
17316TIP3    H273364   0.421   4.361  15.601  0.1316  0.8746  0.4801
17317TIP3   OH273365   4.565   4.939   4.587 -0.1110 -0.1133  0.1406
17317TIP3    H173366   4.636   4.978   4.638 -0.7632  1.9743 -0.4495
17317TIP3    H273367   4.493   4.929   4.650 -0.0434 -0.0830  0.2226
17318TIP3   OH273368   0.734   4.546   2.609 -0.1832  0.1532 -0.4832
17318TIP3    H173369   0.755   4.618   2.668 -0.1858  0.4675 -0.8640
17318TIP3    H273370   0.671   4.492   2.658 -0.6055  0.7039 -0.4175
17319TIP3   OH273371   4.283   4.460  15.420 -0.8727  0.6425 -0.4419
17319TIP3    H173372   4.314   4.377  15.454 -0.6248  0.7330 -0.4443
17319TIP3    H273373   4.191   4.445  15.398 -0.3141 -0.2547 -2.4263
17320TIP3   OH273374   0.207   3.165   3.179  0.0797 -0.1067 -0.0314
17320TIP3    H173375   0.225   3.254   3.147 -0.2267 -0.7729 -2.2074
17320TIP3    H273376   0.292   3.131   3.207  0.4013  0.4156 -0.3719
17321TIP3   OH273377   2.158   3.450   4.396 -0.3481 -0.2611  0.2222
17321TIP3    H173378   2.114   3.388   4.453  0.0329 -0.5969  0.1593
17321TIP3    H273379   2.221   3.494   4.453 -0.1775 -0.3835  0.1307
17322TIP3   OH273380   1.773   1.864   4.686  0.5058  0.1812  0.4577
17322TIP3    H173381   1.704   1.850   4.620  1.8994  0.0729 -1.0382
17322TIP3    H273382   1.755   1.798   4.753 -1.5671  0.9702  0.7663
17323TIP3   OH273383   2.698   6.313  16.433  0.0186 -0.2571  0.7068
17323TIP3    H173384   2.662   6.397  16.404  0.8893 -0.2883 -0.5147
17323TIP3    H273385   2.643   6.289  16.508 -1.7941  0.2269 -0.3884
17324TIP3   OH273386   0.611   1.991  16.011  0.1422 -0.1129  0.3351
17324TIP3    H173387   0.692   1.946  15.986  0.7749  1.0851  0.1659
17324TIP3    H273388   0.545   1.922  16.011  1.2716 -1.2459  1.1059
17325TIP3   OH273389   2.948   3.026  15.940  0.3033 -0.0910 -0.2630
17325TIP3    H173390   2.990   2.994  15.860 -0.3992  1.7543 -1.4221
17325TIP3    H273391   3.017   3.072  15.987  0.0050  1.6545 -1.4451
17326TIP3   OH273392   1.362   6.159  14.486 -0.0075 -0.4226 -0.1974
17326TIP3    H173393   1.387   6.235  14.538 -1.4460 -0.0387  0.0000
17326TIP3    H273394   1.437   6.100  14.490  0.8118  0.6304  0.3365
17327TIP3   OH273395   6.008   4.163  15.777 -0.0578  0.2286  0.0956
17327TIP3    H173396   6.045   4.251  15.774  0.4136  0.0635  0.8965
17327TIP3    H273397   6.083   4.105  15.788 -0.3810 -0.2588 -0.2277
17328TIP3   OH273398   0.366   3.713  11.957 -0.0185  0.2106  0.2714
17328TIP3    H173399   0.301   3.709  11.886  0.8192 -1.0361 -0.4802
17328TIP3    H273400   0.441   3.758  11.918  0.8112 -1.3263  0.0170
17329TIP3   OH273401   4.399   6.645  13.568  0.0044  0.0625 -0.2419
17329TIP3    H173402   4.490   6.673  13.576  0.7515 -1.2045 -3.1620
17329TIP3    H273403   4.355   6.718  13.524  0.3418 -0.5176 -1.5705
17330TIP3   OH273404   2.406   4.706   0.479  0.1841 -0.4001  0.0620
17330TIP3    H173405   2.322   4.667   0.453  1.7951 -2.9975 -1.6613
17330TIP3    H273406   2.417   4.780   0.419 -0.2654 -0.8965 -0.6578
17331TIP3   OH273407   1.130   0.440  16.935 -0.2230 -0.2294 -0.2031
17331TIP3    H173408   1.054   0.493  16.911 -1.2675 -0.9789  1.2751
17331TIP3    H273409   1.101   0.391  17.013  1.1654 -1.8980 -0.6805
17332TIP3   OH273410   0.403   5.042  17.320  0.2622  0.5253 -0.8216
17332TIP3    H173411   0.367   5.035  17.408  0.8099 -1.1773 -0.6873
17332TIP3    H273412   0.361   5.119  17.282 -0.5616  0.8300  0.6593
17333TIP3   OH273413   5.865   2.914  11.775 -0.3227 -0.0230 -0.0850
17333TIP3    H173414   5.921   2.987  11.750  1.4574 -0.6879  1.7141
17333TIP3    H273415   5.843   2.930  11.867  0.7997 -2.1115  0.6091
17334TIP3   OH273416   5.271   1.653   2.908 -0.3446 -0.7900 -0.2411
17334TIP3    H173417   5.292   1.740   2.940 -0.9192 -0.3558 -1.0134
17334TIP3    H273418   5.196   1.666   2.850 -0.5222 -1.8158 -0.2610
17335TIP3   OH273419   3.180   6.340  16.127  0.3802 -0.2757 -0.1829
17335TIP3    H173420   3.100   6.378  16.163  0.5303  1.7336 -1.7978
17335TIP3    H273421   3.251   6.392  16.164  0.6911  0.1905 -1.3944
17336TIP3   OH273422   5.161   2.029   4.140 -0.2703 -0.6646  0.2252
17336TIP3    H173423   5.126   2.110   4.102  0.1196 -0.1372  0.9594
17336TIP3    H273424   5.097   2.006   4.208  0.5890  0.1039  1.3280
17337TIP3   OH273425   5.959   6.219   5.220  0.0483 -0.4547 -0.2749
17337TIP3    H173426   6.044   6.231   5.180  0.0369 -0.7120 -0.3758
17337TIP3    H273427   5.917   6.305   5.214  0.7125 -0.0313  0.7444
17338TIP3   OH273428   1.683   2.547  11.708  0.0053  0.1254  0.1950
17338TIP3    H173429   1.747   2.605  11.749  1.1434 -0.7485 -0.2986
17338TIP3    H273430   1.719   2.529  11.621 -0.2684 -1.3969  0.3630
17339TIP3   OH273431   1.276   0.730   3.750 -0.1553 -0.2933  0.2403
17339TIP3    H173432   1.194   0.720   3.799  0.6154 -0.9668  1.4320
17339TIP3    H273433   1.286   0.825   3.741 -0.5707 -0.1690  0.9701
17340TIP3   OH273434   0.967   2.411  13.030 -0.2085  0.1045 -0.3149
17340TIP3    H173435   1.062   2.403  13.036 -0.1668  0.9804  0.4047
17340TIP3    H273436   0.934   2.368  13.109 -0.3101  1.2355  0.2806
17341TIP3   OH273437   6.368   3.192  17.046  0.5134  0.0735 -0.2564
17341TIP3    H173438   6.298   3.132  17.020  0.3099  0.3229 -0.2779
17341TIP3    H273439   6.363   3.264  16.984 -1.3188  1.7245  1.6300
17342TIP3   OH273440   3.926   2.500   1.727 -0.8443  0.0557 -0.0710
17342TIP3    H173441   3.974   2.495   1.644 -1.4274 -0.6475 -0.3710
17342TIP3    H273442   3.978   2.449   1.788 -1.7324 -1.6338 -0.6688
17343TIP3   OH273443   3.556   0.182   0.713  0.1701 -0.2972  0.4958
17343TIP3    H173444   3.505   0.253   0.751  2.8319  1.9731  0.1590
17343TIP3    H273445   3.597   0.139   0.788 -1.4219 -1.5508  0.6974
17344TIP3   OH273446   0.652   1.838  13.952 -0.5120 -0.1226  0.1611
17344TIP3    H173447   0.614   1.767  14.004  1.2090 -0.8748  0.4460
17344TIP3    H273448   0.713   1.881  14.012  1.4344 -0.9434 -1.1581
17345TIP3   OH273449   0.289   4.189   4.398  0.1594 -0.3881  0.1869
17345TIP3    H173450   0.332   4.137   4.467  3.4248  2.1269  0.3180
17345TIP3    H273451   0.283   4.277   4.435 -2.5771  0.0340 -1.0408
17346TIP3   OH273452   5.994   1.831   4.592  0.9545  0.1404  0.2845
17346TIP3    H173453   5.968   1.921   4.610  0.4393  0.0632 -0.0481
17346TIP3    H273454   6.040   1.836   4.507 -1.3504 -0.2627 -1.0653
17347TIP3   OH273455   0.031   5.704  14.374 -0.3650 -0.0669 -0.5255
17347TIP3    H173456  -0.021   5.677  14.298 -1.5168 -0.8988  0.5227
17347TIP3    H273457  -0.030   5.702  14.447  0.5543  1.3711  0.3474
17348TIP3   OH273458   0.647   3.465  15.557  0.0035 -0.1630  0.0310
17348TIP3    H173459   0.680   3.379  15.582  2.0414  0.4461 -0.4010
17348TIP3    H273460   0.705   3.493  15.486 -0.4471  1.6867  0.3407
17349TIP3   OH273461   3.178   4.500  14.034 -0.4948  0.0415 -0.0712
17349TIP3    H173462   3.149   4.413  14.006 -0.5917  0.4846 -1.4262
17349TIP3    H273463   3.273   4.492  14.043 -0.4047 -0.0226 -0.9667
17350TIP3   OH273464   0.657   2.692   0.917  0.3696 -0.7270  0.7184
17350TIP3    H173465   0.716   2.678   0.991 -0.4714  0.0448  1.5662
17350TIP3    H273466   0.642   2.786   0.915 -0.3705 -0.8400  0.1580
17351TIP3   OH273467   0.437   6.482   1.881  0.3424 -0.8592 -0.1128
17351TIP3    H173468   0.480   6.397   1.879  1.1821 -0.4384 -1.1501
17351TIP3    H273469   0.439   6.512   1.790  1.0781  0.7542  0.3980
17352TIP3   OH273470   2.619   1.913  14.286  0.0953 -0.2920  0.1565
17352TIP3    H173471   2.540   1.924  14.339  0.1723 -1.1983  0.4868
17352TIP3    H273472   2.674   1.987  14.309 -1.0846  0.9512 -0.8777
17353TIP3   OH273473   0.430   5.667   0.637 -0.5422 -0.4062 -0.3228
17353TIP3    H173474   0.479   5.695   0.714 -2.0845  0.2991  0.4306
17353TIP3    H273475   0.485   5.694   0.563  0.3800  0.0145  0.4909
17354TIP3   OH273476   1.363   1.680  15.304 -0.1082  0.4596 -0.7805
17354TIP3    H173477   1.326   1.747  15.361  1.4160  0.0202  0.8310
17354TIP3    H273478   1.288   1.631  15.272 -1.0067  0.2094  1.5486
17355TIP3   OH273479   6.379   6.608   4.906 -0.1005 -0.2445  0.0255
17355TIP3    H173480   6.463   6.594   4.951  0.6843 -0.5514 -1.4663
17355TIP3    H273481   6.395   6.681   4.847 -0.1766 -1.6593 -1.8489
17356TIP3   OH273482   0.626   2.039   4.421  0.2533 -0.0921 -0.4626
17356TIP3    H173483   0.687   2.090   4.367  0.3219  0.8173  0.4307
17356TIP3    H273484   0.679   2.010   4.495  0.7270 -3.1854 -1.8769
17357TIP3   OH273485   0.972   1.483  13.897  0.3579  0.3248  0.2001
17357TIP3    H173486   0.882   1.469  13.867  0.7587 -0.0792 -0.8461
17357TIP3    H273487   0.970   1.462  13.990 -0.8303  1.2237  0.3942
17358TIP3   OH273488   5.503   1.356   1.079 -0.0825  0.6059 -0.4348
17358TIP3    H173489   5.410   1.339   1.064 -0.2610  1.9963 -1.0622
17358TIP3    H273490   5.505   1.405   1.162  0.1480  0.0745 -0.1235
17359TIP3   OH273491   6.220   1.980   6.005 -0.0978 -0.3253 -0.2847
17359TIP3    H173492   6.245   2.000   6.095  3.2371  1.2074 -1.3932
17359TIP3    H273493   6.127   2.002   6.000 -0.0225  0.9462  2.3852
17360TIP3   OH273494   1.958   3.382   5.313 -0.2146 -0.2644  1.2478
17360TIP3    H173495   1.903   3.347   5.243 -2.0842  3.0480  0.8584
17360TIP3    H273496   1.898   3.428   5.371  1.6974 -0.0362  3.1749
17361TIP3   OH273497   0.773   5.305   4.241  0.7562 -0.5445 -0.6680
17361TIP3    H173498   0.860   5.279   4.211  1.0532  0.3857 -0.6445
17361TIP3    H273499   0.713   5.252   4.190  1.3124 -0.4169 -1.4782
17362TIP3   OH273500   5.947   3.722   3.848 -0.2578  0.6287 -0.1478
17362TIP3    H173501   5.894   3.666   3.904  1.4474 -2.1663 -1.1248
17362TIP3    H273502   5.901   3.720   3.763 -0.1855  0.6767 -0.1881
17363TIP3   OH273503   3.833   1.315   4.638  0.2593 -0.1347 -0.4622
17363TIP3    H173504   3.805   1.325   4.729 -1.1435  1.5518 -1.0282
17363TIP3    H273505   3.772   1.252   4.601  0.3334 -0.2290 -0.4220
17364TIP3   OH273506   5.751   2.911  14.514  0.0645  0.1541 -0.0653
17364TIP3    H173507   5.734   2.853  14.588 -1.2682 -1.9646 -1.8954
17364TIP3    H273508   5.708   2.993  14.537 -0.6029 -0.5574  1.3508
17365TIP3   OH273509   1.876   4.851  10.679 -0.4759  0.0860 -0.2522
17365TIP3    H173510   1.788   4.834  10.711  0.0233  0.2065  1.2728
17365TIP3    H273511   1.888   4.945  10.689  0.3278 -0.1284  0.9456
17366TIP3   OH273512   3.519   2.515  11.624 -0.8475 -0.4384  0.0144
17366TIP3    H173513   3.570   2.593  11.647 -2.0745 -0.2031  2.2204
17366TIP3    H273514   3.583   2.445  11.615  0.0327  0.2125  1.0048
17367TIP3   OH273515   3.973   3.481  15.037  0.7889 -0.4854  0.1564
17367TIP3    H173516   3.972   3.576  15.054  0.1190 -0.4616  0.0166
17367TIP3    H273517   4.015   3.473  14.952 -0.0154 -0.2237 -0.2838
17368TIP3   OH273518   1.218   2.147  14.019  0.5354  0.2574 -0.0876
17368TIP3    H173519   1.214   2.209  13.946  0.3872 -1.1864 -1.3423
17368TIP3    H273520   1.306   2.157  14.053  0.0268  2.3000  0.8060
17369TIP3   OH273521   4.570   5.860   2.138  0.4607  0.0568  0.1935
17369TIP3    H173522   4.598   5.949   2.116 -1.3248  0.9036  1.1023
17369TIP3    H273523   4.483   5.852   2.099  1.4854 -2.1923 -1.8843
17370TIP3   OH273524   3.068   1.073   3.524 -0.6159 -0.4559  0.1341
17370TIP3    H173525   3.061   1.135   3.452 -1.2341  1.0450  1.4167
17370TIP3    H273526   3.155   1.034   3.515 -0.9373 -0.8311 -1.7885
17371TIP3   OH273527   4.217   5.604  15.012  0.3595  0.2056  0.2822
17371TIP3    H173528   4.183   5.687  15.045  0.7874 -0.2467  1.9938
17371TIP3    H273529   4.304   5.597  15.050  1.0246 -0.2340 -1.2621
17372TIP3   OH273530   2.867   3.023  11.966  0.5095 -0.3846  0.4353
17372TIP3    H173531   2.962   3.011  11.970  0.4874 -0.6974  0.0682
17372TIP3    H273532   2.845   3.011  11.873  0.3789  1.7372  0.1314
17373TIP3   OH273533   1.852   6.310  15.226  0.3006  0.4782 -0.3453
17373TIP3    H173534   1.866   6.327  15.319 -0.3621 -1.3469  0.1182
17373TIP3    H273535   1.767   6.352  15.207 -1.0935 -1.7270  0.6714
17374TIP3   OH273536   6.287   5.753  12.452 -0.7872 -0.7422 -0.0261
17374TIP3    H173537   6.197   5.734  12.480 -0.2213 -0.0980  2.4424
17374TIP3    H273538   6.278   5.825  12.390 -2.0054 -1.0690 -0.2536
17375TIP3   OH273539   5.254   6.691   5.901  0.1809 -0.1494 -0.4792
17375TIP3    H173540   5.335   6.730   5.869  0.5877  0.1333  0.8296
17375TIP3    H273541   5.268   6.597   5.894  1.3720 -0.1701  1.3696
17376TIP3   OH273542   6.245   4.885  12.833  0.2214  0.5290  0.8149
17376TIP3    H173543   6.333   4.849  12.819  0.1878  1.0179 -0.8511
17376TIP3    H273544   6.237   4.891  12.929  1.2878 -1.2152  1.0513
17377TIP3   OH273545   5.112   0.586   4.986  0.0288  0.1103 -0.5670
17377TIP3    H173546   5.143   0.567   4.897 -0.1367 -0.7522 -0.4472
17377TIP3    H273547   5.095   0.500   5.024  2.2815  0.3246  1.0895
17378TIP3   OH273548   0.503   4.753  12.179  0.2637  0.7228 -0.1901
17378TIP3    H173549   0.517   4.725  12.089  1.0000  0.7483 -0.0878
17378TIP3    H273550   0.551   4.689  12.232 -2.0607 -0.7135  0.3514
17379TIP3   OH273551   0.200   4.382   3.883  0.0621 -0.2259  0.1905
17379TIP3    H173552   0.191   4.360   3.976  0.7919 -0.7033  0.1580
17379TIP3    H273553   0.267   4.451   3.882 -0.1946  0.0190  0.0497
17380TIP3   OH273554   3.960   2.158  16.163  0.2061 -0.4968  0.1906
17380TIP3    H173555   3.917   2.224  16.217  1.3459  0.9355 -0.5791
17380TIP3    H273556   4.003   2.100  16.225  0.4916  0.4143  0.8519
17381TIP3   OH273557   2.136   1.089  16.178 -0.0179 -0.1890  0.1436
17381TIP3    H173558   2.198   1.019  16.203 -1.8662 -2.0476 -0.2160
17381TIP3    H273559   2.133   1.085  16.082  0.0681  0.6009  0.1034
17382TIP3   OH273560   4.601   6.742   0.352 -0.6364 -0.6886 -0.2122
17382TIP3    H173561   4.694   6.724   0.366 -0.0951  0.8184 -1.6742
17382TIP3    H273562   4.564   6.742   0.441  2.1463  5.8731  1.5130
17383TIP3   OH273563   3.549   0.937   5.465 -0.0700 -0.1192 -0.7554
17383TIP3    H173564   3.644   0.946   5.470  0.0797 -0.8664 -1.9099
17383TIP3    H273565   3.535   0.864   5.406 -1.3603 -0.9644  0.5365
17384TIP3   OH273566   5.876   1.659  11.473  0.2391  0.2245 -0.1062
17384TIP3    H173567   5.859   1.752  11.486  1.7416  0.3393  1.4175
17384TIP3    H273568   5.823   1.615  11.540 -1.2546 -0.1394 -1.4658
17385TIP3   OH273569   3.057   5.446   1.059 -0.2236 -0.1549 -0.3358
17385TIP3    H173570   3.007   5.524   1.081  0.4274  0.6083 -1.4710
17385TIP3    H273571   3.109   5.427   1.137 -1.1659 -0.0848  0.3151
17386TIP3   OH273572   5.867   5.924   6.094 -0.3131  0.1226 -1.0583
17386TIP3    H173573   5.920   5.846   6.076 -1.4280 -0.3158 -2.6792
17386TIP3    H273574   5.904   5.959   6.175 -1.5553 -3.6558  1.4115
17387TIP3   OH273575   1.294   1.233  16.662  0.5248 -0.8318  0.0561
17387TIP3    H173576   1.356   1.248  16.733  1.4466 -1.3477 -0.6205
17387TIP3    H273577   1.322   1.292  16.592 -0.9852  0.4205  0.4417
17388TIP3   OH273578   4.237   0.842   4.290  0.0601  0.0938 -0.2083
17388TIP3    H173579   4.313   0.886   4.329 -0.0232 -0.7813  0.9987
17388TIP3    H273580   4.175   0.912   4.271  1.7726  1.0757 -2.8188
17389TIP3   OH273581   3.843   3.529   4.964  0.3630 -0.1828  0.6146
17389TIP3    H173582   3.769   3.569   4.918  1.1975  0.8873  0.1413
17389TIP3    H273583   3.915   3.592   4.952  1.4740 -1.4036  0.6673
17390TIP3   OH273584   5.624   1.008  13.862  0.9346 -0.3280  0.1089
17390TIP3    H173585   5.562   0.978  13.795 -0.4732  0.2564  1.1087
17390TIP3    H273586   5.643   0.929  13.913  1.2297 -0.5637 -0.3588
17391TIP3   OH273587   0.023   3.660  10.905  0.1280  0.2992  0.4239
17391TIP3    H173588   0.045   3.567  10.898 -0.4186  0.0274  1.8848
17391TIP3    H273589  -0.004   3.685  10.817 -3.9270 -2.0257  0.7663
17392TIP3   OH273590   0.131   1.674   5.278 -0.5804 -0.5509 -0.2570
17392TIP3    H173591   0.197   1.653   5.344 -0.0640 -1.5063 -1.0473
17392TIP3    H273592   0.048   1.656   5.320 -0.2680 -0.9234  0.2071
17393TIP3   OH273593   1.591   4.122   5.096  0.0389  0.1480 -0.5272
17393TIP3    H173594   1.624   4.080   5.175  0.7823 -0.2396 -1.0333
17393TIP3    H273595   1.670   4.148   5.047 -0.3417 -1.2724 -2.0102
17394TIP3   OH273596   6.123   2.243  14.257 -0.0628  0.4494 -0.9076
17394TIP3    H173597   6.078   2.306  14.201 -0.1647  0.6823 -0.5665
17394TIP3    H273598   6.056   2.180  14.281 -1.0226  2.3465  1.9547
17395TIP3   OH273599   5.838   1.258   4.631 -0.5141 -0.2805 -0.8630
17395TIP3    H173600   5.885   1.318   4.573  0.8109 -1.8661 -1.5032
17395TIP3    H273601   5.813   1.185   4.575 -1.2584 -0.7826  0.0892
17396TIP3   OH273602   3.887   5.004   5.963  0.9920 -0.1683 -0.2613
17396TIP3    H173603   3.856   4.985   5.875 -0.8497 -0.5788  0.4147
17396TIP3    H273604   3.970   4.957   5.971  1.7574  0.7881 -2.1147
17397TIP3   OH273605   5.951   1.086  11.667  0.6086  0.1873  0.0803
17397TIP3    H173606   5.890   1.037  11.612  0.0303 -1.7232  2.2822
17397TIP3    H273607   5.904   1.167  11.687  0.3676  0.4000 -1.2527
17398TIP3   OH273608   1.084   0.062  13.376 -0.1787  0.0290  0.0392
17398TIP3    H173609   1.084   0.149  13.416  0.0609  0.0832 -0.0794
17398TIP3    H273610   1.136   0.008  13.436  1.1262  0.3670 -0.7529
17399TIP3   OH273611   1.018   1.293  17.213  0.3233  0.0779  0.0083
17399TIP3    H173612   1.110   1.306  17.193  0.7293  1.2951  2.3632
17399TIP3    H273613   0.972   1.362  17.165  0.8790  0.8130  0.5295
17400TIP3   OH273614   5.255   2.850   4.143  0.4117  0.2108 -0.5263
17400TIP3    H173615   5.209   2.797   4.078  0.0047 -1.0363  0.7132
17400TIP3    H273616   5.187   2.878   4.204  0.9802  0.0860  0.1880
17401TIP3   OH273617   6.712   6.229   0.921 -0.4576  0.3410 -0.1743
17401TIP3    H173618   6.675   6.165   0.981  2.0059 -2.1761 -1.1562
17401TIP3    H273619   6.783   6.271   0.970 -0.5953  0.6901 -0.2693
17402TIP3   OH273620   5.887   3.897  11.448  0.2098  0.4747  0.0806
17402TIP3    H173621   5.886   3.987  11.481  0.8479  1.5755 -2.6199
17402TIP3    H273622   5.861   3.905  11.356  0.4296 -2.0990 -0.2824
17403TIP3   OH273623   3.732   1.308   4.971  0.4978  0.2752  0.0791
17403TIP3    H173624   3.769   1.354   5.046 -3.0697 -1.5428  3.2370
17403TIP3    H273625   3.653   1.358   4.948 -0.4021 -1.1392 -0.0627
17404TIP3   OH273626   4.740   1.340  16.554  0.5429  0.3416  0.1039
17404TIP3    H173627   4.677   1.274  16.583 -0.5072  1.4174  0.2961
17404TIP3    H273628   4.817   1.288  16.530  0.0991 -0.8958  1.1601
17405TIP3   OH273629   2.346   3.988   4.059 -0.0504  0.6449 -0.7878
17405TIP3    H173630   2.296   4.056   4.105 -1.1125 -0.2160 -0.6249
17405TIP3    H273631   2.279   3.935   4.015  0.6770 -0.8788 -0.1030
17406TIP3   OH273632   1.316   2.430   2.967 -0.9311 -0.3017  0.0601
17406TIP3    H173633   1.409   2.449   2.981 -0.3607 -2.1375 -0.9030
17406TIP3    H273634   1.314   2.375   2.888 -2.8348 -0.2992  0.0610
17407TIP3   OH273635   6.494   3.517   3.415 -0.3842 -0.1235  0.5167
17407TIP3    H173636   6.525   3.607   3.417 -0.4485  0.0335 -2.1739
17407TIP3    H273637   6.571   3.465   3.394 -1.0632 -0.1527 -2.2727
17408TIP3   OH273638   2.941   6.240  16.345 -0.0070 -0.3176 -0.6014
17408TIP3    H173639   2.928   6.271  16.256  0.4577  2.1640  0.1173
17408TIP3    H273640   2.855   6.246  16.386  0.1072  0.2119 -0.4276
17409TIP3   OH273641   6.700   2.495  16.025  0.1439 -0.4334  1.0092
17409TIP3    H173642   6.731   2.432  16.089  2.2419 -1.2873 -0.7146
17409TIP3    H273643   6.734   2.463  15.941 -1.6776  1.1190 -0.4354
17410TIP3   OH273644   0.433   2.696  14.226 -0.0845 -0.5360 -0.0369
17410TIP3    H173645   0.507   2.755  14.241 -0.7364 -0.0775  1.5216
17410TIP3    H273646   0.461   2.613  14.265 -0.3971 -0.3547  0.5774
17411TIP3   OH273647   1.080   3.295  14.951  0.2717 -0.2230 -0.1114
17411TIP3    H173648   1.144   3.234  14.915 -0.8993 -0.2662 -2.3118
17411TIP3    H273649   0.995   3.258  14.928 -0.4959  1.3469  0.0012
17412TIP3   OH273650   5.328   5.908  12.795  0.1887  0.2042  0.2605
17412TIP3    H173651   5.326   5.815  12.769 -3.1503  0.0659  0.5574
17412TIP3    H273652   5.326   5.956  12.712  0.0966 -0.0411  0.1189
17413TIP3   OH273653   3.915   5.984  11.229  0.3207 -0.3668  0.4659
17413TIP3    H173654   3.910   6.078  11.244  2.2372 -0.2867  0.9019
17413TIP3    H273655   3.908   5.974  11.134  2.0506  0.4273  0.2156
17414TIP3   OH273656   2.374   3.018  13.425 -0.2725 -0.2482  0.3871
17414TIP3    H173657   2.305   3.006  13.359 -0.0323  1.0318 -0.1319
17414TIP3    H273658   2.446   2.963  13.395  0.1486  0.9559 -0.9204
17415TIP3   OH273659   5.052   2.981  16.104  0.4179 -0.4533 -0.3468
17415TIP3    H173660   5.107   3.042  16.055  0.4267 -1.1215 -1.1871
17415TIP3    H273661   4.962   3.008  16.085  0.4218 -0.6998 -0.7305
17416TIP3   OH273662   4.655   3.110  13.607  0.3988 -0.1033  0.4357
17416TIP3    H173663   4.573   3.158  13.611  0.9122  0.8248  0.2840
17416TIP3    H273664   4.651   3.063  13.524  0.1255  0.1371  0.3095
17417TIP3   OH273665   2.431   2.535  10.857 -0.0410 -0.2884 -0.4815
17417TIP3    H173666   2.507   2.504  10.808 -0.3787 -2.5565  0.3160
17417TIP3    H273667   2.450   2.516  10.948 -1.9770 -2.0428 -0.3552
17418TIP3   OH273668   6.055   4.918  17.136 -0.4140 -0.0347 -0.1424
17418TIP3    H173669   6.098   4.932  17.220 -0.3176  1.9051 -0.4552
17418TIP3    H273670   5.961   4.915  17.157 -0.5508  2.4571 -0.1027
17419TIP3   OH273671   5.105   6.427   3.101  0.5101  0.1591  0.0453
17419TIP3    H173672   5.178   6.428   3.163  0.7776  0.7836 -0.2750
17419TIP3    H273673   5.071   6.516   3.102 -1.3991 -0.5115  1.5233
17420TIP3   OH273674   5.418   3.262   2.612 -0.3317  0.1410 -0.2912
17420TIP3    H173675   5.463   3.341   2.640  0.2040  0.2409 -1.3805
17420TIP3    H273676   5.325   3.285   2.618 -0.1797  1.0475 -1.0776
17421TIP3   OH273677   3.051   5.295   5.460  0.0204 -0.0943  0.3368
17421TIP3    H173678   3.069   5.328   5.548 -0.6633  1.4939 -0.0834
17421TIP3    H273679   2.971   5.243   5.469 -0.4473  0.6442  0.5501
17422TIP3   OH273680   3.341   0.494   3.543 -0.5662  0.1944  0.2891
17422TIP3    H173681   3.430   0.527   3.548 -0.3580 -0.2712 -0.2275
17422TIP3    H273682   3.329   0.444   3.624 -0.6284  0.8907  0.7175
17423TIP3   OH273683   2.002   5.747  15.371  0.0142  0.4802  0.2755
17423TIP3    H173684   2.065   5.686  15.409  0.7496  0.2154 -1.2871
17423TIP3    H273685   1.919   5.699  15.373  0.5952 -0.6707 -1.0044
17424TIP3   OH273686   0.232   6.015  13.950 -0.0020 -0.1087 -0.0868
17424TIP3    H173687   0.250   5.946  14.014  2.2265  0.3416 -0.1426
17424TIP3    H273688   0.185   5.971  13.879  2.2634 -1.8425 -0.5919
17425TIP3   OH273689   6.075   5.941  15.952  0.1663 -0.8203  0.1985
17425TIP3    H173690   6.132   6.018  15.960  0.2530 -0.7321 -1.1037
17425TIP3    H273691   6.103   5.898  15.872 -1.0562 -1.2370 -0.0308
17426TIP3   OH273692   2.435   4.360   1.530  0.3092 -0.4915 -0.3172
17426TIP3    H173693   2.394   4.274   1.534 -0.2701 -0.1827  1.3453
17426TIP3    H273694   2.526   4.342   1.508  0.2153 -1.5425  0.0760
17427TIP3   OH273695   4.074   5.059   1.036  0.3492 -0.3108 -0.7966
17427TIP3    H173696   4.096   5.149   1.013  1.0610 -0.2414  0.0735
17427TIP3    H273697   3.982   5.063   1.064  0.4321  0.1817 -0.5803
17428TIP3   OH273698   2.249   6.476  12.524  0.2573 -0.6833  0.3364
17428TIP3    H173699   2.282   6.519  12.603 -0.9522 -1.8497  1.5352
17428TIP3    H273700   2.158   6.454  12.545 -0.4451 -0.1042 -1.7836
17429TIP3   OH273701   1.337   4.540   0.796 -0.3657 -0.4133 -0.0538
17429TIP3    H173702   1.338   4.561   0.703  1.2195 -2.2284 -0.4989
17429TIP3    H273703   1.352   4.446   0.800 -0.6415 -0.4164  2.0426
17430TIP3   OH273704   0.762   5.627  15.389 -0.3528  1.3806 -0.0170
17430TIP3    H173705   0.697   5.682  15.433  1.0741  1.3558  2.2714
17430TIP3    H273706   0.845   5.674  15.400  0.6789 -0.5362  0.7891
17431TIP3   OH273707   5.975   2.631  12.770  0.5697 -0.0528 -0.6134
17431TIP3    H173708   6.000   2.635  12.862  1.6894  2.6137 -0.9359
17431TIP3    H273709   6.047   2.673  12.723 -0.7489  0.2389 -2.5207
17432TIP3   OH273710   0.156   5.540   2.044  1.0801  0.1447 -0.8103
17432TIP3    H173711   0.220   5.543   2.115 -0.0317  0.3940  0.2134
17432TIP3    H273712   0.139   5.631   2.022 -0.6297  0.2146  0.5583
17433TIP3   OH273713   1.881   3.378  12.570 -0.1718  0.2355 -0.1392
17433TIP3    H173714   1.896   3.464  12.531  1.1971 -0.1008 -0.3984
17433TIP3    H273715   1.900   3.389  12.663 -0.2412  0.2739 -0.1296
17434TIP3   OH273716   5.319   0.538  16.369 -0.5108  0.1052 -0.2577
17434TIP3    H173717   5.262   0.460  16.372 -2.3130  1.3969  0.9405
17434TIP3    H273718   5.266   0.608  16.405  1.2899  1.8029 -0.7289
17435TIP3   OH273719   2.438   6.040  14.611 -0.3867  0.5256  0.8249
17435TIP3    H173720   2.360   5.985  14.610 -0.9918  1.3572 -0.3353
17435TIP3    H273721   2.511   5.980  14.594 -0.5265 -0.5436  3.6116
17436TIP3   OH273722   4.934   6.466  14.351  0.0431 -0.2510  0.0766
17436TIP3    H173723   4.912   6.410  14.276 -1.4720 -0.0614  0.3553
17436TIP3    H273724   5.018   6.505  14.327  0.3216 -1.3634 -0.8530
17437TIP3   OH273725   5.577   0.114   4.488  0.2742 -0.7208 -0.3531
17437TIP3    H173726   5.558   0.092   4.397 -1.6141 -1.9420  0.2593
17437TIP3    H273727   5.637   0.045   4.517 -0.9940 -1.7538 -0.0680
17438TIP3   OH273728   3.718   4.911  14.695 -0.2170  0.6731 -0.6193
17438TIP3    H173729   3.719   4.819  14.666  1.0003  0.3215  0.4775
17438TIP3    H273730   3.705   4.906  14.789 -0.4871  1.6695 -0.5945
17439TIP3   OH273731   2.109   1.263  13.635 -0.1270 -0.4121 -0.1751
17439TIP3    H173732   2.026   1.228  13.666  0.0667 -0.7108  0.0131
17439TIP3    H273733   2.125   1.340  13.690  1.3582 -2.2364  2.1380
17440TIP3   OH273734   6.396   5.059  14.382 -0.4336  0.0508 -0.3896
17440TIP3    H173735   6.477   5.107  14.365 -0.6429  1.0542  1.1588
17440TIP3    H273736   6.328   5.108  14.337 -0.8328  2.0634  2.1849
17441TIP3   OH273737   1.543   0.154   6.229 -0.1941 -0.4088 -0.1496
17441TIP3    H173738   1.456   0.149   6.269 -1.1596 -1.0623 -2.1884
17441TIP3    H273739   1.542   0.234   6.178  0.4570 -0.3806 -0.1355
17442TIP3   OH273740   6.484   6.582  14.790  0.0621  0.3408 -0.2961
17442TIP3    H173741   6.561   6.623  14.829  1.4159 -1.5456 -0.8858
17442TIP3    H273742   6.491   6.602  14.697 -0.7608  1.0379 -0.2254
17443TIP3   OH273743   2.886   2.545  11.077  0.9191  0.2151  0.1397
17443TIP3    H173744   2.918   2.601  11.006  0.3326  0.1470 -0.1926
17443TIP3    H273745   2.838   2.604  11.134 -0.0397  0.0082 -0.4214
17444TIP3   OH273746   1.992   0.214  14.815 -0.3137 -0.4428  0.1731
17444TIP3    H173747   1.908   0.168  14.825 -0.7941  0.1873 -0.8408
17444TIP3    H273748   2.051   0.167  14.874 -0.7167 -2.5506 -0.9784
17445TIP3   OH273749   4.303   1.344   6.730 -0.0710 -0.3658 -0.7741
17445TIP3    H173750   4.305   1.363   6.823  0.3787 -2.8605 -0.1982
17445TIP3    H273751   4.314   1.429   6.687 -0.7767  0.8871  1.4151
17446TIP3   OH273752   4.082   3.766   2.890 -0.2555  0.1843 -0.1011
17446TIP3    H173753   4.137   3.689   2.906  0.1145  0.6296  0.8147
17446TIP3    H273754   4.098   3.823   2.965  0.5000  1.7512 -1.3925
17447TIP3   OH273755   5.360   2.390  14.355  0.9565  0.0432  0.0551
17447TIP3    H173756   5.322   2.466  14.311  0.9505  0.3056  0.5123
17447TIP3    H273757   5.340   2.317  14.297  0.7337  0.3496 -0.2590
17448TIP3   OH273758   2.565   0.426  13.760 -0.1725  0.2205 -0.7883
17448TIP3    H173759   2.630   0.419  13.830  0.0653 -0.2907 -1.0565
17448TIP3    H273760   2.612   0.402  13.681 -0.8762 -0.9661 -0.8779
17449TIP3   OH273761   0.538   0.714   3.698 -0.4205 -0.0283 -0.0132
17449TIP3    H173762   0.492   0.686   3.777  2.0065  0.8162  1.8397
17449TIP3    H273763   0.518   0.807   3.691 -0.5426 -0.0791 -0.3189
17450TIP3   OH273764   6.224   0.679  12.405  0.0336 -0.3068  0.1329
17450TIP3    H173765   6.200   0.608  12.465  0.6493 -0.3705  0.3080
17450TIP3    H273766   6.215   0.639  12.318 -1.8809  0.0957  0.1094
17451TIP3   OH273767   2.560   2.086   3.991  0.2853  0.1569 -0.0481
17451TIP3    H173768   2.559   2.102   3.897 -0.1055 -1.2446 -0.3046
17451TIP3    H273769   2.518   2.164   4.029 -0.6256  0.2179 -1.1287
17452TIP3   OH273770   1.502   3.159  11.421  0.4823  0.0207 -0.5734
17452TIP3    H173771   1.543   3.212  11.490  2.0937 -0.6621 -0.9450
17452TIP3    H273772   1.576   3.119  11.374 -0.5756  0.0432 -2.3742
17453TIP3   OH273773   3.887   5.611  13.647  0.2015  0.3837  0.6248
17453TIP3    H173774   3.891   5.533  13.592 -1.3183  1.3641 -0.9855
17453TIP3    H273775   3.951   5.596  13.716  2.9982 -0.4949 -1.9788
17454TIP3   OH273776   1.488   0.455   5.018  0.2101 -0.1139 -0.6443
17454TIP3    H173777   1.473   0.403   5.097  0.6229 -0.1024 -0.5562
17454TIP3    H273778   1.446   0.539   5.036  2.4406  0.8314  0.6151
17455TIP3   OH273779   1.840   0.468   0.258  0.0177  0.0334  0.1859
17455TIP3    H173780   1.784   0.526   0.205 -1.6740 -0.5141  1.3033
17455TIP3    H273781   1.888   0.416   0.193 -1.2604  0.0634 -0.8325
17456TIP3   OH273782   1.720   4.332   0.650 -0.7624  0.4844 -0.1738
17456TIP3    H173783   1.723   4.262   0.715 -1.0131  0.0918 -0.5789
17456TIP3    H273784   1.643   4.312   0.597 -0.3745  0.6184 -0.7973
17457TIP3   OH273785   4.934   0.169   6.197  0.0660  0.2486  0.1090
17457TIP3    H173786   4.851   0.161   6.244  0.8588  0.1915  1.5554
17457TIP3    H273787   4.953   0.262   6.199  0.9147  0.0677  1.4044
17458TIP3   OH273788   3.518   4.762  16.191 -0.1019  0.6803  0.6294
17458TIP3    H173789   3.568   4.802  16.263 -0.7243  1.0848  0.8432
17458TIP3    H273790   3.565   4.788  16.112  1.3486 -0.8415  0.9292
17459TIP3   OH273791   3.793   4.318  14.703  0.0937  0.4886  0.6452
17459TIP3    H173792   3.774   4.310  14.796 -3.5843  1.8071  0.1753
17459TIP3    H273793   3.750   4.399  14.676 -1.3701 -1.1775 -2.6706
17460TIP3   OH273794   6.160   3.904  16.996  0.5281  0.6600  0.5214
17460TIP3    H173795   6.140   3.918  17.089 -0.1724  0.4720  0.4096
17460TIP3    H273796   6.150   3.991  16.956 -1.2170  0.3945  0.2820
17461TIP3   OH273797   0.896   1.448   0.042 -0.3943 -0.5320  0.0604
17461TIP3    H173798   0.951   1.401  -0.021 -0.6762  0.0645 -0.6515
17461TIP3    H273799   0.826   1.387   0.063 -0.4188 -0.6569 -0.3814
17462TIP3   OH273800   5.615   6.630  16.547 -0.1742  0.2701  0.1298
17462TIP3    H173801   5.536   6.603  16.595  0.3178 -1.1442  0.1815
17462TIP3    H273802   5.618   6.571  16.472  1.4910 -0.5621  0.7959
17463TIP3   OH273803   1.163   1.351   4.561 -0.2943 -0.6412 -0.5391
17463TIP3    H173804   1.134   1.323   4.474 -1.7905 -0.6827 -0.0638
17463TIP3    H273805   1.132   1.283   4.620 -0.6714  0.1463  0.2017
17464TIP3   OH273806   4.339   2.155  16.228 -0.5888  0.0384  0.4722
17464TIP3    H173807   4.374   2.223  16.286  3.0748  0.1641 -1.5626
17464TIP3    H273808   4.320   2.081  16.285  0.7248  0.9061  2.1300
17465TIP3   OH273809   6.265   2.341   1.583 -0.1923  0.4180  0.3997
17465TIP3    H173810   6.198   2.409   1.590 -0.8263 -0.1969  0.4305
17465TIP3    H273811   6.252   2.285   1.660 -1.3983 -1.2334 -0.9282
17466TIP3   OH273812   0.780   2.380   3.688 -0.7806  0.0475 -0.2906
17466TIP3    H173813   0.731   2.353   3.765  0.9186 -0.8131  0.5153
17466TIP3    H273814   0.871   2.359   3.707 -0.0242  1.7903 -1.6660
17467TIP3   OH273815   0.856   0.175   1.978 -0.1225 -0.6392 -0.0226
17467TIP3    H173816   0.916   0.248   1.961  0.8269 -1.7612 -2.0026
17467TIP3    H273817   0.912   0.097   1.970 -1.7237 -1.7191 -1.5461
17468TIP3   OH273818   5.919   0.292   3.479 -0.1499 -0.0663  0.2036
17468TIP3    H173819   5.873   0.244   3.410 -1.0817  0.7015  0.2714
17468TIP3    H273820   6.000   0.243   3.492 -0.5729 -0.9870 -0.4982
17469TIP3   OH273821   6.294   2.086  11.478  0.0079 -0.0396 -0.3208
17469TIP3    H173822   6.229   2.127  11.535 -0.1250  0.3576 -0.7537
17469TIP3    H273823   6.248   2.070  11.396  0.6026  0.7726 -0.8261
17470TIP3   OH273824   4.629   2.153   1.693  0.1465 -0.2470 -0.2273
17470TIP3    H173825   4.682   2.076   1.710 -0.5753 -0.3396  2.0489
17470TIP3    H273826   4.653   2.181   1.605  1.0320 -2.5545 -0.7866
17471TIP3   OH273827   1.047   4.391  11.697  0.2492  0.2154 -0.1233
17471TIP3    H173828   1.120   4.400  11.636  0.4209  0.5263  0.1235
17471TIP3    H273829   0.986   4.331  11.654  1.4778 -1.4856  0.4439
17472TIP3   OH273830   0.664   4.670   1.507  0.0493  0.2605  0.6887
17472TIP3    H173831   0.717   4.739   1.547  0.6829  0.5428 -0.5801
17472TIP3    H273832   0.719   4.592   1.512 -0.8688 -0.3142  2.5854
17473TIP3   OH273833   1.323   1.766  15.801  0.4376 -0.1704  0.0859
17473TIP3    H173834   1.372   1.760  15.884  1.9688 -0.0170 -0.7707
17473TIP3    H273835   1.390   1.759  15.733 -0.9493 -1.8525 -1.1972
17474TIP3   OH273836   5.668   4.265   0.435  0.2209  0.0175 -0.1637
17474TIP3    H173837   5.749   4.302   0.400  0.2357 -0.1054 -0.2589
17474TIP3    H273838   5.599   4.323   0.404  0.1952 -0.2947 -0.6968
17475TIP3   OH273839   0.438   6.725   3.982  0.4053  0.0055  0.0353
17475TIP3    H173840   0.461   6.728   3.889  3.0679 -0.7674  0.5785
17475TIP3    H273841   0.520   6.741   4.027 -0.4998 -1.1961  2.2713
17476TIP3   OH273842   2.312   3.434  11.984 -0.0183 -0.5654 -0.0467
17476TIP3    H173843   2.284   3.344  12.001  2.6626 -1.4826 -0.0854
17476TIP3    H273844   2.293   3.447  11.891 -0.0413 -1.2450 -0.1443
17477TIP3   OH273845   2.079   5.069  16.430 -0.0720  0.1689 -0.3595
17477TIP3    H173846   2.087   5.019  16.512 -1.1241 -0.6148 -0.7154
17477TIP3    H273847   2.163   5.054  16.386  0.6230  0.8227  0.6742
17478TIP3   OH273848   0.000   3.680  14.285 -0.3400 -0.6386  0.3489
17478TIP3    H173849   0.014   3.623  14.361  0.0714 -1.7971 -0.5620
17478TIP3    H273850   0.085   3.722  14.270  0.3084 -2.2627 -0.8897
17479TIP3   OH273851   3.255   2.685   3.644  0.2936 -0.3715  0.3579
17479TIP3    H173852   3.337   2.638   3.630  1.1991  0.2288  3.0736
17479TIP3    H273853   3.218   2.647   3.723 -1.5987  0.0209 -0.2842
17480TIP3   OH273854   6.589   2.221   1.444  0.5814  0.5937  0.1043
17480TIP3    H173855   6.511   2.207   1.391 -0.7957 -0.3439  2.2073
17480TIP3    H273856   6.560   2.202   1.534  3.9389 -2.9808  0.7141
17481TIP3   OH273857   5.596   1.489  15.771 -0.2829  0.6373  0.0635
17481TIP3    H173858   5.617   1.575  15.808 -0.3078  1.5554 -1.9347
17481TIP3    H273859   5.681   1.450  15.752 -0.1670  1.9375 -2.6484
17482TIP3   OH273860   3.101   3.932  14.145 -0.2578 -0.4755 -0.2961
17482TIP3    H173861   3.187   3.921  14.107 -0.7465 -0.0512 -1.5707
17482TIP3    H273862   3.089   3.855  14.202  1.1116 -0.3066  0.2479
17483TIP3   OH273863   1.662   6.347  17.036  0.5931 -0.1492 -0.5662
17483TIP3    H173864   1.602   6.353  17.111  0.4473 -2.5059 -0.4231
17483TIP3    H273865   1.731   6.288  17.065  2.0778  1.1079 -1.3654
17484TIP3   OH273866   6.119   3.705   0.934  0.0758  0.6369  0.1742
17484TIP3    H173867   6.160   3.717   1.020 -1.2707  0.3339  0.8902
17484TIP3    H273868   6.041   3.652   0.952  0.5650 -0.7327 -1.4491
17485TIP3   OH273869   5.500   5.052   5.545 -0.1254  0.4357  0.0985
17485TIP3    H173870   5.547   4.973   5.572 -0.7376 -0.4538 -1.3083
17485TIP3    H273871   5.429   5.061   5.608 -1.5692 -1.6355 -1.1069
17486TIP3   OH273872   2.382   4.535   0.130 -0.2304 -0.3715 -0.2088
17486TIP3    H173873   2.317   4.480   0.173 -0.0709  0.3841  1.0356
17486TIP3    H273874   2.359   4.531   0.037 -1.5911 -0.7215  0.1228
17487TIP3   OH273875   6.656   2.069  17.147  0.3808 -0.3646 -0.2635
17487TIP3    H173876   6.722   2.130  17.177 -0.3863 -0.4670  1.7750
17487TIP3    H273877   6.672   1.989  17.197  0.1342 -1.1774 -1.4288
17488TIP3   OH273878   0.845   1.242   4.565 -0.1509  0.6054 -0.0505
17488TIP3    H173879   0.756   1.273   4.546 -0.9634 -1.6525 -0.1638
17488TIP3    H273880   0.890   1.245   4.480 -0.3163  1.1270 -0.1234
17489TIP3   OH273881   3.874   6.414   1.024  0.4306 -0.1397 -0.3973
17489TIP3    H173882   3.880   6.319   1.012  0.6774 -0.1729 -0.0219
17489TIP3    H273883   3.847   6.426   1.115 -2.9518  0.0842 -1.3060
17490TIP3   OH273884   0.139   0.610  14.887 -0.3873 -0.1664 -0.3287
17490TIP3    H173885   0.077   0.582  14.954 -1.6612  0.6629 -1.1126
17490TIP3    H273886   0.189   0.680  14.929 -1.8894  1.0792 -0.5113
17491TIP3   OH273887   4.249   6.672   5.602  0.5606  0.3058  0.1537
17491TIP3    H173888   4.247   6.590   5.650  1.4466 -0.2065 -0.6444
17491TIP3    H273889   4.231   6.739   5.667  1.7770 -0.3626  1.2284
17492TIP3   OH273890   4.242   4.852  12.952 -0.2599  0.2209  0.1165
17492TIP3    H173891   4.156   4.886  12.926 -1.1202 -0.5523  1.7926
17492TIP3    H273892   4.277   4.917  13.013 -0.3608 -0.1885  0.6231
17493TIP3   OH273893   1.257   2.216   1.100  0.0583 -0.1195  0.3552
17493TIP3    H173894   1.269   2.198   1.193  0.6413 -0.4359  0.2228
17493TIP3    H273895   1.162   2.227   1.090  0.1355  1.8241  1.3173
17494TIP3   OH273896   1.257   6.221   3.564 -0.4282 -0.2341 -0.2310
17494TIP3    H173897   1.322   6.155   3.589  3.2061  2.7003 -1.0120
17494TIP3    H273898   1.276   6.240   3.472 -1.4797  1.7009 -0.0948
17495TIP3   OH273899   1.592   4.839   0.822 -0.0875  0.2733 -0.0924
17495TIP3    H173900   1.581   4.747   0.796  0.8614  0.5306 -1.5750
17495TIP3    H273901   1.643   4.877   0.750  1.0053  1.5479  1.3013
17496TIP3   OH273902   6.566   2.054  16.861  0.2538  0.4652 -0.1912
17496TIP3    H173903   6.474   2.035  16.881  0.4837 -0.7224 -0.1961
17496TIP3    H273904   6.608   2.061  16.947  0.6744 -1.7706 -0.1459
17497TIP3   OH273905   0.229   3.452  13.488  0.2883 -0.3720  0.3723
17497TIP3    H173906   0.185   3.483  13.568 -0.4472 -0.0143 -0.1607
17497TIP3    H273907   0.220   3.356  13.492  0.4553 -0.3699  0.8337
17498TIP3   OH273908   6.120   0.965   3.338  0.4656  0.2287  1.2126
17498TIP3    H173909   6.174   0.955   3.259 -2.8805  1.8434 -1.5674
17498TIP3    H273910   6.181   0.994   3.405  3.0961  2.0032 -1.6615
17499TIP3   OH273911   3.240   2.223  12.395  0.1406  0.4604  0.5210
17499TIP3    H173912   3.257   2.143  12.346  0.1783 -0.0032  1.2815
17499TIP3    H273913   3.238   2.292  12.328  2.0263  0.1235  0.0568
17500TIP3   OH273914   5.698   0.018  16.300 -0.8812 -0.6451  0.7061
17500TIP3    H173915   5.716   0.076  16.374  0.1985 -1.2199  0.9167
17500TIP3    H273916   5.739  -0.065  16.324 -1.1686 -1.0684 -0.2128
17501TIP3   OH273917   1.381   2.779  17.232 -0.4248 -0.5798  0.0623
17501TIP3    H173918   1.443   2.758  17.162  2.3666  1.9652  1.4873
17501TIP3    H273919   1.423   2.746  17.311 -2.3735 -1.3180  0.8516
17502TIP3   OH273920   5.875   0.999   1.963 -0.0742  0.3621  0.1139
17502TIP3    H173921   5.933   1.066   1.926  0.9844  1.0188  2.6946
17502TIP3    H273922   5.789   1.040   1.965 -0.1675  0.2911 -1.5412
17503TIP3   OH273923   6.384   5.904   1.429 -0.0026  0.1181  0.2539
17503TIP3    H173924   6.400   5.833   1.367  1.0949  0.3197  0.2853
17503TIP3    H273925   6.289   5.919   1.424  0.0334  0.0044 -1.2315
17504TIP3   OH273926   1.635   2.536   6.220 -0.3498  0.7720  0.1494
17504TIP3    H173927   1.663   2.480   6.148 -3.2731  0.3034 -0.7284
17504TIP3    H273928   1.648   2.625   6.189  2.4204  0.6940  0.7896
17505TIP3   OH273929   3.084   2.889  15.725 -0.2606  0.2053 -0.0953
17505TIP3    H173930   3.072   2.919  15.635 -0.5050  0.3159 -0.0277
17505TIP3    H273931   3.042   2.803  15.727 -1.1588  0.6372  0.1683
17506TIP3   OH273932   3.675   2.076  17.046  0.0102  0.0720 -0.4723
17506TIP3    H173933   3.585   2.109  17.053  0.5643  1.5356  0.1586
17506TIP3    H273934   3.665   1.982  17.028 -1.6628  0.6280 -3.0513
17507TIP3   OH273935   5.384   0.949  15.679 -0.4437  0.1298 -0.1612
17507TIP3    H173936   5.456   0.995  15.723 -1.8406  1.3708  0.9371
17507TIP3    H273937   5.341   0.899  15.748 -1.5930  0.6727 -0.4643
17508TIP3   OH273938   5.649   4.086   3.672  0.0185  0.3746  0.4351
17508TIP3    H173939   5.566   4.039   3.679  0.8058 -0.8638  2.0180
17508TIP3    H273940   5.624   4.179   3.674 -1.3230  0.0273  0.6675
17509TIP3   OH273941   4.370   4.527   5.654  0.0021 -0.1442  0.0435
17509TIP3    H173942   4.392   4.493   5.741  0.8186 -1.5268 -0.6515
17509TIP3    H273943   4.309   4.462   5.618  1.5910 -0.9952 -1.3225
17510TIP3   OH273944   5.008   4.386   5.334 -0.1851 -0.9866 -0.0329
17510TIP3    H173945   4.921   4.363   5.303 -0.5041  0.3748 -0.1858
17510TIP3    H273946   5.016   4.480   5.317  1.3546 -1.1078 -0.1329
17511TIP3   OH273947   0.380   2.188   4.406 -0.1177  0.1323 -0.1733
17511TIP3    H173948   0.433   2.266   4.390  0.1472  0.1157  0.5942
17511TIP3    H273949   0.444   2.118   4.419 -0.3548 -0.4771 -2.0175
17512TIP3   OH273950   6.223   4.619   0.685 -0.3090 -0.0447  0.2923
17512TIP3    H173951   6.258   4.592   0.770  0.9995  0.8211  0.0646
17512TIP3    H273952   6.294   4.671   0.646 -1.0806 -0.0156 -1.1152
17513TIP3   OH273953   5.257   3.844   4.682  0.4281  0.1671  0.7086
17513TIP3    H173954   5.304   3.796   4.613  0.8777 -0.6985  1.5882
17513TIP3    H273955   5.278   3.936   4.665  1.6029 -0.1258  0.4510
17514TIP3   OH273956   2.517   4.604  16.208 -0.2794 -0.1761  0.1978
17514TIP3    H173957   2.428   4.581  16.234 -0.7646 -0.3522 -1.5051
17514TIP3    H273958   2.509   4.692  16.170  0.7276  0.8686  2.2101
17515TIP3   OH273959   0.498   4.688  11.895  0.6330 -0.0446 -0.3618
17515TIP3    H173960   0.543   4.749  11.835 -0.3929 -0.0345 -1.1485
17515TIP3    H273961   0.535   4.603  11.874  1.4023  0.1709  0.0881
17516TIP3   OH273962   2.240   2.151   4.548 -0.0591 -0.0690  0.3241
17516TIP3    H173963   2.291   2.084   4.594  0.3505  0.0322  0.0271
17516TIP3    H273964   2.151   2.141   4.582  0.5159  1.0397  2.3380
17517TIP3   OH273965   0.907   3.750  17.095 -0.2367  0.0010  0.2620
17517TIP3    H173966   0.867   3.674  17.136  0.5158 -0.8516 -0.5320
17517TIP3    H273967   0.997   3.751  17.129 -0.0244  0.0921 -0.2854
17518TIP3   OH273968   3.415   5.217  11.643 -0.4224 -0.2148  0.4889
17518TIP3    H173969   3.381   5.168  11.718  2.4502 -0.2537  1.8924
17518TIP3    H273970   3.492   5.168  11.615  0.5353  1.6388 -0.2795
17519TIP3   OH273971   5.467   2.811  12.077 -0.3393  0.5236 -0.3810
17519TIP3    H173972   5.538   2.770  12.028 -0.3336  0.3017 -0.1905
17519TIP3    H273973   5.423   2.867  12.014  0.0433  0.7079 -0.4809
17520TIP3   OH273974   3.243   2.958  12.008  0.2470  0.4406  0.5323
17520TIP3    H173975   3.186   2.958  12.084  0.2539 -0.6496  0.5586
17520TIP3    H273976   3.242   2.867  11.977 -2.3468  1.3447 -2.6950
17521TIP3   OH273977   6.443   0.897  12.260  0.4199  0.0922  0.3483
17521TIP3    H173978   6.412   0.984  12.284  0.3310  0.0385  0.4305
17521TIP3    H273979   6.532   0.893  12.297  0.3763  0.1014  0.4547
17522TIP3   OH273980   1.518   0.999   2.418 -0.2173  0.0472  0.6436
17522TIP3    H173981   1.559   1.072   2.371  0.1037 -1.0048 -0.8198
17522TIP3    H273982   1.590   0.960   2.467  0.3370 -1.0371 -0.9330
17523TIP3   OH273983   2.574   4.067  13.264  0.0560  0.1558  0.3262
17523TIP3    H173984   2.553   4.052  13.356 -0.9508 -0.6634 -0.0155
17523TIP3    H273985   2.636   3.998  13.241 -1.9140 -1.5227 -0.3286
17524TIP3   OH273986   3.829   3.942   2.906  0.3018  0.3993 -0.3516
17524TIP3    H173987   3.924   3.932   2.913  0.9801  3.0303 -3.3507
17524TIP3    H273988   3.800   3.866   2.855  0.6948 -0.5926  0.8665
17525TIP3   OH273989   4.871   5.851  14.856 -0.2684 -0.4334 -0.3287
17525TIP3    H173990   4.891   5.932  14.809 -0.3836 -0.8353 -1.0993
17525TIP3    H273991   4.892   5.870  14.947 -3.8252  1.6959  0.2352
17526TIP3   OH273992   1.075   5.031   5.802 -0.2687  0.0010 -0.0992
17526TIP3    H173993   1.032   4.958   5.847  0.9136  0.0460  1.1750
17526TIP3    H273994   1.053   5.107   5.856 -1.9469  0.7315 -1.7178
17527TIP3   OH273995   2.303   1.456  11.512  0.2511  1.1240  0.5469
17527TIP3    H173996   2.252   1.460  11.432 -0.9967  0.6658  1.2854
17527TIP3    H273997   2.243   1.486  11.580  1.1302  1.0541  1.3747
17528TIP3   OH273998   1.805   0.138   0.276  0.0983  0.3406  0.2859
17528TIP3    H173999   1.893   0.175   0.273  0.4674 -0.4203  1.2164
17528TIP3    H274000   1.771   0.165   0.362  0.8211 -2.3688  1.5297
17529TIP3   OH274001   5.022   4.708  13.911 -0.0791  0.4251 -0.0238
17529TIP3    H174002   4.934   4.740  13.890 -0.4270 -0.4755  0.0453
17529TIP3    H274003   5.052   4.767  13.981 -0.7842  0.4885  0.2354
17530TIP3   OH274004   1.799   4.305  11.355 -0.5779 -0.1866  0.1877
17530TIP3    H174005   1.739   4.320  11.428 -0.4704 -1.4049  0.5361
17530TIP3    H274006   1.752   4.248  11.296  0.1069 -0.8885  0.3067
17531TIP3   OH274007   0.471   5.410  11.891 -0.7688  0.4841  0.0638
17531TIP3    H174008   0.484   5.325  11.848  0.0210  0.2676  0.7072
17531TIP3    H274009   0.504   5.397  11.980 -0.9120  1.3853  0.2565
17532TIP3   OH274010   0.054   2.964  16.678  0.2003  0.1577 -0.0984
17532TIP3    H174011   0.008   3.043  16.651  0.1760  0.0628 -0.3323
17532TIP3    H274012   0.146   2.989  16.680  0.0777  0.5822  1.1658
17533TIP3   OH274013   0.609   6.565   4.663 -0.2335 -0.3697  0.5419
17533TIP3    H174014   0.618   6.657   4.687 -0.5253 -0.4115  0.8111
17533TIP3    H274015   0.687   6.546   4.610 -0.6540  0.2930 -0.3369
17534TIP3   OH274016   2.364   1.220   5.038  0.0237  0.2281  0.1357
17534TIP3    H174017   2.345   1.208   5.131 -1.0451 -0.3429 -0.1413
17534TIP3    H274018   2.297   1.281   5.008  1.1178  1.4149 -0.0189
17535TIP3   OH274019   1.238   2.838   5.666  0.0547 -0.3749  0.1273
17535TIP3    H174020   1.183   2.793   5.730 -1.0354  1.1362  0.3192
17535TIP3    H274021   1.254   2.924   5.706 -1.7659  1.1241 -2.1237
17536TIP3   OH274022   2.548   5.251  12.931 -0.5880  0.7713  0.4964
17536TIP3    H174023   2.508   5.298  13.005 -3.1670 -0.1311 -0.1935
17536TIP3    H274024   2.475   5.203  12.892  1.2085 -0.8433 -1.0833
17537TIP3   OH274025   1.810   1.903   4.971 -0.0799  0.1948 -0.2471
17537TIP3    H174026   1.836   1.982   5.019  1.2791  0.2552 -1.0347
17537TIP3    H274027   1.792   1.934   4.882 -2.5059  0.0706  0.1248
17538TIP3   OH274028   3.463   0.414  16.969 -0.2297  0.4945  0.1575
17538TIP3    H174029   3.483   0.402  17.062  3.2773  2.7262 -0.0980
17538TIP3    H274030   3.470   0.327  16.931  1.1421 -0.0661  1.5940
17539TIP3   OH274031   4.141   3.573  13.822  0.2057 -0.6721  0.1235
17539TIP3    H174032   4.142   3.590  13.728  2.9740  0.6400  0.3003
17539TIP3    H274033   4.125   3.478  13.828  0.0669 -0.8040 -1.6555
17540TIP3   OH274034   0.377   1.579  12.568 -0.9084 -0.2978 -0.1286
17540TIP3    H174035   0.427   1.497  12.571  1.4189  1.0075 -0.1478
17540TIP3    H274036   0.375   1.601  12.475 -0.3469  0.2929 -0.0095
17541TIP3   OH274037   4.656   4.308   4.934 -1.0333  0.3603  0.4396
17541TIP3    H174038   4.566   4.276   4.943 -0.0596 -2.7515  0.3685
17541TIP3    H274039   4.692   4.257   4.861  0.8056  1.5269  0.4662
17542TIP3   OH274040   5.747   0.791  13.308 -0.5949 -0.4742  0.0983
17542TIP3    H174041   5.690   0.716  13.329 -1.4012  0.1832  0.3036
17542TIP3    H274042   5.809   0.794  13.381 -0.2960 -1.1945 -0.1207
17543TIP3   OH274043   4.827   2.388   0.590 -0.3752 -0.0066 -0.0130
17543TIP3    H174044   4.788   2.380   0.503 -0.7855 -0.7422  0.2333
17543TIP3    H274045   4.898   2.451   0.578 -0.0487 -0.5366 -1.0107
17544TIP3   OH274046   2.953   0.781  10.467 -0.4941  0.4199 -0.2227
17544TIP3    H174047   2.916   0.761  10.381 -0.9985  2.4506 -0.5153
17544TIP3    H274048   2.881   0.768  10.528 -0.9010  1.5674 -0.4448
17545TIP3   OH274049   4.350   2.245  13.052  0.3444 -0.1184 -0.1227
17545TIP3    H174050   4.364   2.164  13.003  0.0685  0.0101 -0.4211
17545TIP3    H274051   4.368   2.222  13.143  0.9151 -0.3457 -0.2916
17546TIP3   OH274052   4.096   1.372  14.679 -0.5776 -0.5486  0.0625
17546TIP3    H174053   4.048   1.324  14.748 -1.3974 -1.6173 -1.1952
17546TIP3    H274054   4.168   1.314  14.655 -0.4715 -0.3180 -0.1794
17547TIP3   OH274055   5.017   4.078  12.623  0.5031  0.3851  0.9957
17547TIP3    H174056   4.982   4.145  12.564  1.5956  0.8150  0.8094
17547TIP3    H274057   5.100   4.114  12.653  1.2466 -1.0006  0.6764
17548TIP3   OH274058   1.602   6.072  13.310 -0.3358 -0.7215 -1.0079
17548TIP3    H174059   1.621   6.029  13.393 -1.7326  3.5047  1.8347
17548TIP3    H274060   1.688   6.096  13.275  0.2563 -1.2337  0.0390
17549TIP3   OH274061   2.793   3.450   1.745  0.1346  0.4782  0.0485
17549TIP3    H174062   2.826   3.435   1.656  0.6041  0.9728  0.1258
17549TIP3    H274063   2.699   3.436   1.739  0.0373  1.3463 -0.7352
17550TIP3   OH274064   5.350   1.856   6.345 -0.7023 -0.4205  0.5023
17550TIP3    H174065   5.298   1.905   6.408 -0.0143  0.9636  0.0159
17550TIP3    H274066   5.428   1.909   6.329 -1.0438 -0.4840 -1.8442
17551TIP3   OH274067   4.964   0.785   5.103  0.1974 -0.0122  0.3934
17551TIP3    H174068   4.911   0.720   5.149 -3.9051  1.7505 -1.3914
17551TIP3    H274069   5.021   0.733   5.045 -2.5533 -2.1250 -0.6165
17552TIP3   OH274070   6.113   5.105   5.837  0.0144 -0.3154 -0.3258
17552TIP3    H174071   6.103   5.200   5.843  0.8424 -0.2078 -0.6447
17552TIP3    H274072   6.024   5.073   5.821 -0.7150  0.1860  2.3283
17553TIP3   OH274073   1.657   3.687   2.377  0.1426  0.3913 -0.2103
17553TIP3    H174074   1.743   3.708   2.341  1.5470 -3.2087  0.6257
17553TIP3    H274075   1.668   3.601   2.419 -4.2949 -1.2469 -1.7478
17554TIP3   OH274076   0.375   1.206   5.626 -0.4448 -0.0608  0.3974
17554TIP3    H174077   0.431   1.129   5.621 -0.8535 -0.3063 -0.7585
17554TIP3    H274078   0.364   1.222   5.719  0.0593 -1.0998  0.6437
17555TIP3   OH274079   5.342   6.230  17.215  0.1533  0.3862  0.3414
17555TIP3    H174080   5.397   6.223  17.292 -1.1630 -1.3730  1.2030
17555TIP3    H274081   5.340   6.324  17.195  2.0573  0.6663  1.2544
17556TIP3   OH274082   5.780   3.164   0.984  0.4605  0.6080  0.2302
17556TIP3    H174083   5.783   3.186   0.891  0.4641 -0.8637 -0.1469
17556TIP3    H274084   5.710   3.219   1.019  0.2339  0.9486 -0.7119
17557TIP3   OH274085   0.293   0.422   3.218  0.1135 -0.7395  0.7933
17557TIP3    H174086   0.354   0.461   3.282 -1.0033  0.0363  1.4160
17557TIP3    H274087   0.227   0.379   3.272 -1.5487  0.9862  0.2514
17558TIP3   OH274088   0.314   4.846  14.734 -0.0675 -0.2260 -0.2473
17558TIP3    H174089   0.359   4.787  14.795 -2.2276 -2.0636 -0.3026
17558TIP3    H274090   0.381   4.870  14.670  1.2326 -1.5244  0.5709
17559TIP3   OH274091   0.849   1.242   1.584  0.2994 -0.3514 -0.6066
17559TIP3    H174092   0.818   1.332   1.592 -0.3402 -0.6566  0.6643
17559TIP3    H274093   0.790   1.202   1.520 -0.7375 -0.3978  0.3465
17560TIP3   OH274094   3.845   5.668   5.066 -0.0894  0.0213 -0.0156
17560TIP3    H174095   3.837   5.583   5.107 -1.6145  0.1845  0.0887
17560TIP3    H274096   3.910   5.715   5.119  0.5969 -0.9808  0.0520
17561TIP3   OH274097   4.227   4.103  15.681  0.1863  0.1547 -0.0090
17561TIP3    H174098   4.283   4.029  15.703 -0.2198 -0.3370 -0.5852
17561TIP3    H274099   4.280   4.157  15.623  0.5883  0.4729  0.6500
17562TIP3   OH274100   1.107   6.310   5.242 -0.2878  0.3296 -0.0888
17562TIP3    H174101   1.093   6.375   5.173 -2.4592 -0.3274 -0.3407
17562TIP3    H274102   1.069   6.229   5.207  1.4613 -0.8683  0.6183
17563TIP3   OH274103   1.547   1.442  17.249  0.3535 -0.7397  0.2969
17563TIP3    H174104   1.622   1.407  17.200  1.0277  0.7645  0.1944
17563TIP3    H274105   1.530   1.376  17.316  1.3319 -1.4374 -0.1096
17564TIP3   OH274106   4.578   0.751   3.471 -0.2964 -0.3350 -0.8017
17564TIP3    H174107   4.485   0.774   3.473  0.0331  1.1056 -1.0671
17564TIP3    H274108   4.584   0.684   3.402 -1.3697 -1.7001  0.3645
17565TIP3   OH274109   5.006   5.332   1.141 -0.2829 -0.2455  0.0881
17565TIP3    H174110   4.962   5.272   1.082  0.4424 -0.6962 -0.0037
17565TIP3    H274111   5.056   5.276   1.201  2.5801  0.2344 -1.6482
17566TIP3   OH274112   1.298   6.590   1.879 -0.3888  0.2216 -0.2454
17566TIP3    H174113   1.342   6.624   1.801 -0.9660 -1.9282 -1.5915
17566TIP3    H274114   1.370   6.556   1.934 -0.0670  0.5873 -0.4365
17567TIP3   OH274115   1.032   2.358  11.944  0.3484 -0.5540 -0.7421
17567TIP3    H174116   1.005   2.358  11.853  1.5955  0.3605 -1.1380
17567TIP3    H274117   1.114   2.309  11.945  0.7595  0.1180 -0.2608
17568TIP3   OH274118   2.873   2.634   4.595  0.3265 -0.5838  0.2839
17568TIP3    H174119   2.816   2.700   4.557  0.4808 -1.3065 -1.2510
17568TIP3    H274120   2.828   2.608   4.676 -0.4633  0.3241  0.1624
17569TIP3   OH274121   5.612   2.728   3.365 -0.3814  0.1285  0.7733
17569TIP3    H174122   5.666   2.763   3.294  0.2919 -0.3199  1.0646
17569TIP3    H274123   5.529   2.705   3.322  0.6176 -1.8125 -0.2706
17570TIP3   OH274124   1.053   4.769  13.198  0.0097  0.1345 -0.1432
17570TIP3    H174125   1.036   4.813  13.281  1.0155  2.6872 -1.1997
17570TIP3    H274126   0.969   4.773  13.151 -0.3666 -0.6774  0.4363
17571TIP3   OH274127   6.674   6.157  14.293  0.0626  0.2461  1.0540
17571TIP3    H174128   6.699   6.190  14.207  1.7294  0.8259  1.7241
17571TIP3    H274129   6.593   6.204  14.314 -0.6500 -0.2826 -0.3818
17572TIP3   OH274130   3.101   1.979  11.625 -0.1112 -0.3015  0.0738
17572TIP3    H174131   3.120   1.886  11.614 -2.1968 -0.8506  0.6580
17572TIP3    H274132   3.145   2.022  11.552 -0.6801 -1.9667 -1.2890
17573TIP3   OH274133   2.436   3.956   3.088 -0.1640  0.0981 -0.6832
17573TIP3    H174134   2.514   3.919   3.128 -1.0453 -1.8493 -0.6699
17573TIP3    H274135   2.405   4.020   3.151 -0.1006 -1.0828  0.5746
17574TIP3   OH274136   2.887   4.039  15.016 -0.2997 -0.8045  0.0239
17574TIP3    H174137   2.797   4.038  15.048  0.3431  1.3574  2.1162
17574TIP3    H274138   2.878   4.048  14.921 -2.4236  3.0042  0.3748
17575TIP3   OH274139   0.974   5.698  12.114 -0.4408 -0.4011  0.0228
17575TIP3    H174140   1.054   5.699  12.061 -0.3158 -0.3852  0.2078
17575TIP3    H274141   0.904   5.722  12.054  0.1129  2.9783  0.5169
17576TIP3   OH274142   4.522   2.293  16.443 -0.1588 -0.0417  0.6057
17576TIP3    H174143   4.578   2.324  16.515  0.6618  1.2168 -0.5144
17576TIP3    H274144   4.521   2.366  16.381 -0.8892 -1.0711 -0.6460
17577TIP3   OH274145   0.596   3.942  15.214 -0.3215  0.4214 -0.1823
17577TIP3    H174146   0.649   3.863  15.225 -2.7567 -1.4519 -0.7238
17577TIP3    H274147   0.549   3.927  15.131 -1.5125  2.0307  0.1509
17578TIP3   OH274148   1.095   3.296   5.461  0.2915  0.1099 -0.0045
17578TIP3    H174149   1.019   3.322   5.409 -0.6894 -0.0441  1.2894
17578TIP3    H274150   1.146   3.377   5.471 -0.9087  0.7709  1.0258
17579TIP3   OH274151   0.167   6.689   2.371 -0.1391 -0.5619 -0.7441
17579TIP3    H174152   0.186   6.769   2.421 -3.6945 -1.0981  1.8388
17579TIP3    H274153   0.253   6.646   2.362  1.5658  2.4689 -0.3672
17580TIP3   OH274154   6.762   1.174  11.921  0.6879 -0.4480  0.1133
17580TIP3    H174155   6.721   1.230  11.988  0.5001 -0.7674  0.2678
17580TIP3    H274156   6.729   1.086  11.940  1.1017 -0.6373 -0.0367
17581TIP3   OH274157   1.606   3.814   0.693  0.0010 -0.5594  0.1978
17581TIP3    H174158   1.673   3.769   0.746 -0.9168 -2.2967 -0.0439
17581TIP3    H274159   1.524   3.796   0.739 -0.6500 -0.9608 -1.0949
17582TIP3   OH274160   1.268   1.371   3.482  0.3256  0.4563  0.2809
17582TIP3    H174161   1.307   1.458   3.496 -1.6436  1.7763 -1.7946
17582TIP3    H274162   1.250   1.339   3.570  0.8024  2.2992  1.1072
17583TIP3   OH274163   4.817   1.337  17.153 -0.0812  0.0443  0.2922
17583TIP3    H174164   4.898   1.382  17.176 -0.7403  1.8418 -0.6855
17583TIP3    H274165   4.824   1.322  17.058  0.5394 -2.9287  0.6902
17584TIP3   OH274166   0.497   1.864   3.587  0.4016  0.3160  0.1690
17584TIP3    H174167   0.534   1.946   3.619  0.5592 -0.8391  3.3195
17584TIP3    H274168   0.568   1.801   3.593 -0.1823 -0.4319 -0.5183
17585TIP3   OH274169   2.947   3.444  16.330 -0.1461 -0.0111 -0.0817
17585TIP3    H174170   2.919   3.361  16.291  0.2520  0.7826 -2.2535
17585TIP3    H274171   2.963   3.501  16.254  2.0555  1.2570  1.2308
17586TIP3   OH274172   5.018   4.069   5.598 -0.6131 -0.4842 -0.2544
17586TIP3    H174173   5.018   4.087   5.692 -0.5427 -1.7913  0.0156
17586TIP3    H274174   4.965   3.990   5.589  0.1554 -0.9163 -1.1958
17587TIP3   OH274175   3.639   1.075   1.317  0.3899 -0.5682  0.1162
17587TIP3    H174176   3.710   1.129   1.284 -0.8560  0.7381 -0.5538
17587TIP3    H274177   3.576   1.072   1.245  0.2806 -2.6886  0.2599
17588TIP3   OH274178   6.134   1.449   1.002  0.1765  0.0343 -0.1556
17588TIP3    H174179   6.165   1.373   0.952 -1.9924 -0.4590 -0.8624
17588TIP3    H274180   6.048   1.468   0.966  0.1637  2.1253  0.8269
17589TIP3   OH274181   5.067   1.976   3.202  0.1489  0.0420 -0.1054
17589TIP3    H174182   5.117   2.054   3.222  0.7807 -1.1712  3.9697
17589TIP3    H274183   4.979   1.994   3.235 -0.2347 -0.2819 -0.9251
17590TIP3   OH274184   4.700   0.233   2.610  0.2334  0.4063 -0.0403
17590TIP3    H174185   4.655   0.209   2.529 -0.2932  1.0361  0.0581
17590TIP3    H274186   4.663   0.174   2.677  1.1097 -0.5348 -0.3580
17591TIP3   OH274187   4.232   5.317  11.612  0.2612  0.0364  0.2636
17591TIP3    H174188   4.221   5.257  11.685  0.3261  0.5481  0.6982
17591TIP3    H274189   4.152   5.307  11.560  0.6853 -1.1197 -0.1912
17592TIP3   OH274190   3.483   0.149  16.554 -0.8634 -0.0521  0.0230
17592TIP3    H174191   3.468   0.186  16.467 -0.1075  0.1743 -0.0196
17592TIP3    H274192   3.533   0.068  16.537  1.0279  0.9868  0.3288
17593TIP3   OH274193   5.800   5.298  14.434 -0.3707 -0.1058 -0.1059
17593TIP3    H174194   5.705   5.290  14.425 -0.2895 -4.0229  0.8661
17593TIP3    H274195   5.828   5.342  14.354 -2.8768 -0.1136 -1.0701
17594TIP3   OH274196   1.842   4.171   3.352  0.2862 -0.7521 -0.0302
17594TIP3    H174197   1.839   4.079   3.327 -1.9682 -0.7727  0.0794
17594TIP3    H274198   1.804   4.218   3.278 -0.3855 -0.1248  0.6925
17595TIP3   OH274199   1.604   2.319   4.340 -0.1603 -0.3728 -0.0056
17595TIP3    H174200   1.541   2.377   4.383  0.3134 -0.3460  0.6671
17595TIP3    H274201   1.628   2.366   4.260 -1.0452 -0.4215 -0.3150
17596TIP3   OH274202   3.725   4.186  15.388 -0.0243  0.2438  0.5752
17596TIP3    H174203   3.817   4.168  15.365 -0.3255  2.0348 -2.5185
17596TIP3    H274204   3.684   4.100  15.389  0.9449 -0.3298 -1.9414
17597TIP3   OH274205   5.705   4.692  11.497  0.1599  0.1012 -0.0371
17597TIP3    H174206   5.770   4.712  11.430  0.7048 -0.7782  0.2151
17597TIP3    H274207   5.710   4.597  11.507  1.7425  0.3776  2.8768
17598TIP3   OH274208   0.741   2.030  13.381  0.2448 -0.7463  0.3433
17598TIP3    H174209   0.733   1.969  13.455 -2.8188 -0.4829  0.3742
17598TIP3    H274210   0.698   1.985  13.308  0.4555  0.2507 -0.4247
17599TIP3   OH274211   5.524   2.626  15.542  0.4312 -0.0831 -0.4147
17599TIP3    H174212   5.592   2.676  15.586 -0.6811  0.5915  0.6237
17599TIP3    H274213   5.448   2.685  15.540 -0.3301 -1.0422 -0.9163
17600TIP3   OH274214   0.128   4.154  13.857 -0.1234  0.3485  0.0666
17600TIP3    H174215   0.188   4.080  13.865  0.5793  0.9494  0.4805
17600TIP3    H274216   0.048   4.124  13.900  0.3494  0.0270  0.7506
17601TIP3   OH274217   0.757   6.215  12.410 -0.0248  0.5036  0.0021
17601TIP3    H174218   0.743   6.245  12.320 -1.4703  0.6970  0.2669
17601TIP3    H274219   0.822   6.275  12.446  1.4627 -0.2983 -1.2648
17602TIP3   OH274220   1.961   4.221   5.262  0.2222 -0.3680 -0.0170
17602TIP3    H174221   1.882   4.194   5.310  0.2904  0.8307  0.7994
17602TIP3    H274222   2.033   4.182   5.311  0.3465  1.5273  1.3923
17603TIP3   OH274223   1.779   0.730   1.626  0.6978  0.4092 -0.2775
17603TIP3    H174224   1.771   0.720   1.531  1.9402  1.6983 -0.5627
17603TIP3    H274225   1.712   0.672   1.663 -0.0637  0.1861 -1.9413
17604TIP3   OH274226   0.997   4.674   5.752  0.3910 -0.0749  0.5722
17604TIP3    H174227   0.965   4.729   5.823  0.7860 -1.3720  1.7954
17604TIP3    H274228   0.922   4.666   5.693 -0.4690 -0.2656  1.6549
17605TIP3   OH274229   6.597   5.837   5.141  0.2099 -0.2066  0.3093
17605TIP3    H174230   6.526   5.900   5.146  0.8482  0.4822  0.8802
17605TIP3    H274231   6.665   5.872   5.198  1.5714 -0.1267 -1.3018
17606TIP3   OH274232   3.128   6.344  14.925 -0.1168  0.4395 -0.0517
17606TIP3    H174233   3.147   6.364  15.017  1.4066  0.7307 -0.4048
17606TIP3    H274234   3.058   6.405  14.900 -0.0288  0.8565  0.7019
17607TIP3   OH274235   6.240   1.298  16.452 -0.0773 -0.1075 -0.4911
17607TIP3    H174236   6.263   1.328  16.540  0.7134  0.3959 -0.8598
17607TIP3    H274237   6.285   1.359  16.393 -2.4045  0.9670 -1.2754
17608TIP3   OH274238   1.999   4.117   2.568  0.5246 -0.3323 -0.4861
17608TIP3    H174239   2.043   4.036   2.592  0.2379  0.0296  1.3689
17608TIP3    H274240   1.907   4.102   2.591  0.4977  0.5708  0.0403
17609TIP3   OH274241   5.092   2.388  13.967  0.6100  0.1473 -0.2092
17609TIP3    H174242   5.122   2.345  14.047 -0.8427 -0.1319  0.2212
17609TIP3    H274243   5.150   2.463  13.956  1.5999 -0.5068  0.4228
17610TIP3   OH274244   1.656   2.096   6.619 -0.1399 -0.1361 -0.4386
17610TIP3    H174245   1.628   2.187   6.625 -1.2896 -0.5671  2.9820
17610TIP3    H274246   1.751   2.098   6.629 -0.3081  0.6483  1.2586
17611TIP3   OH274247   0.818   1.576  15.858 -0.0718 -0.0803  0.0145
17611TIP3    H174248   0.849   1.543  15.774  1.6045 -0.3240  0.6753
17611TIP3    H274249   0.884   1.641  15.884 -0.3638 -0.2638  1.2749
17612TIP3   OH274250   2.989   6.313   4.819  0.4751  0.2689 -0.4133
17612TIP3    H174251   3.074   6.315   4.863  0.6025  1.3518 -0.6919
17612TIP3    H274252   2.927   6.293   4.890  0.6901  1.9002  0.2913
17613TIP3   OH274253   3.726   4.426  13.745  0.3011 -0.1630  0.4105
17613TIP3    H174254   3.691   4.338  13.750  0.4968 -0.2286  0.6569
17613TIP3    H274255   3.814   4.420  13.785  0.8002 -0.1083 -0.6491
17614TIP3   OH274256   5.005   1.612   2.848 -0.0640 -0.1187  0.2528
17614TIP3    H174257   4.976   1.697   2.816  0.9563  0.9197  1.9961
17614TIP3    H274258   4.950   1.549   2.800 -0.7325  1.4721 -1.1798
17615TIP3   OH274259   1.408   6.605   0.796  0.1235 -0.2210  0.5454
17615TIP3    H174260   1.384   6.647   0.714  1.1836  0.0995  0.3764
17615TIP3    H274261   1.328   6.604   0.848 -0.8706 -1.4992 -0.9244
17616TIP3   OH274262   2.297   4.925   2.297  0.1570  0.6178 -0.0586
17616TIP3    H174263   2.233   4.930   2.368  0.9911  2.8647  0.6470
17616TIP3    H274264   2.257   4.975   2.226 -0.6055 -1.4896 -1.1841
17617TIP3   OH274265   3.827   4.737   5.842 -0.5850  0.4576  0.2039
17617TIP3    H174266   3.872   4.664   5.801  0.9793  0.6533  1.4971
17617TIP3    H274267   3.765   4.768   5.775 -0.1051 -0.9837 -0.9376
17618TIP3   OH274268   5.920   1.377   2.501  0.2962  0.1867  0.1658
17618TIP3    H174269   5.893   1.465   2.524  0.6170  0.3082  0.0881
17618TIP3    H274270   5.907   1.326   2.581 -0.3221  0.2016  0.0779
17619TIP3   OH274271   3.641   1.886   1.633 -0.3899 -0.2248 -0.2226
17619TIP3    H174272   3.723   1.873   1.681 -1.2519  0.4014  1.5026
17619TIP3    H274273   3.652   1.971   1.590  0.2752 -0.6557 -0.9342
17620TIP3   OH274274   2.933   1.140  12.638  0.2635  0.2402 -0.3380
17620TIP3    H174275   2.876   1.215  12.621 -1.9098 -1.1890  0.2249
17620TIP3    H274276   2.966   1.156  12.727 -0.1643  0.5384 -0.2272
17621TIP3   OH274277   3.816   1.373  12.729  0.6088  0.6488 -0.3680
17621TIP3    H174278   3.849   1.428  12.658 -0.3443  0.0241 -1.3257
17621TIP3    H274279   3.753   1.314  12.686  0.9692 -0.6054  0.7801
17622TIP3   OH274280   5.258   6.373   5.967  0.2268 -0.2971 -0.0385
17622TIP3    H174281   5.189   6.357   5.902  0.7678 -1.0774 -0.4416
17622TIP3    H274282   5.211   6.400   6.046 -0.4934 -0.1558 -0.5005
17623TIP3   OH274283   6.543   3.304  14.247  0.6163  0.1447  0.6382
17623TIP3    H174284   6.458   3.278  14.281  0.5497  1.3362  1.4492
17623TIP3    H274285   6.530   3.393  14.214  1.4581  0.1963  0.4070
17624TIP3   OH274286   2.438   0.958   4.803 -0.0718 -0.3463 -0.7007
17624TIP3    H174287   2.345   0.977   4.819  0.6474  2.1426  1.0633
17624TIP3    H274288   2.475   0.946   4.890  1.5411  0.1886 -1.2869
17625TIP3   OH274289   6.177   5.162   4.331 -0.3804  0.0919  0.5825
17625TIP3    H174290   6.199   5.205   4.413 -0.5345  1.0007  0.1570
17625TIP3    H274291   6.138   5.078   4.357 -1.1792  0.7221  1.4629
17626TIP3   OH274292   3.274   6.257   0.523  0.7147  0.1510 -0.1239
17626TIP3    H174293   3.359   6.249   0.566  0.0316  0.3050  1.3135
17626TIP3    H274294   3.275   6.346   0.486  1.7295 -0.3664 -1.4336
17627TIP3   OH274295   5.760   4.188   4.633  0.1970 -0.3359  0.1013
17627TIP3    H174296   5.759   4.145   4.719 -0.0640  0.1199  0.3311
17627TIP3    H274297   5.850   4.220   4.623  0.0679  0.1639  0.4914
17628TIP3   OH274298   1.591   5.474  13.734 -0.1686 -0.4355 -0.2080
17628TIP3    H174299   1.604   5.494  13.827 -0.6939 -0.7147 -0.0722
17628TIP3    H274300   1.522   5.408  13.733  0.1560 -0.7824 -0.7700
17629TIP3   OH274301   3.507   5.535  12.237 -0.6259 -0.0577  0.3494
17629TIP3    H174302   3.471   5.584  12.311 -0.3637 -1.2624  1.2948
17629TIP3    H274303   3.451   5.458  12.230  0.4388 -0.8650  0.4620
17630TIP3   OH274304   4.053   5.489  14.396  0.0162 -0.1111 -0.4426
17630TIP3    H174305   4.013   5.457  14.315 -1.6636 -1.6604  0.9269
17630TIP3    H274306   4.119   5.423  14.417  1.3667  0.9528 -1.1667
17631TIP3   OH274307   2.978   0.284   3.396 -0.0160 -0.2347  0.1650
17631TIP3    H174308   3.024   0.204   3.421 -0.2411 -0.3767  0.1310
17631TIP3    H274309   2.887   0.256   3.381  0.2060 -0.2639 -1.2962
17632TIP3   OH274310   1.406   3.511   1.616  0.1335 -0.2146 -0.4417
17632TIP3    H174311   1.459   3.577   1.572  1.4914 -1.9652 -1.5930
17632TIP3    H274312   1.443   3.505   1.704 -0.4839  1.0446 -0.0818
17633TIP3   OH274313   0.613   2.241   3.345 -0.0313  0.3492 -0.2428
17633TIP3    H174314   0.643   2.175   3.283 -0.8153 -0.7985  0.5677
17633TIP3    H274315   0.559   2.301   3.293  2.7055  1.9002 -1.5310
17634TIP3   OH274316   1.820   2.409  16.558  0.1266 -0.1996 -0.0166
17634TIP3    H174317   1.807   2.469  16.632  1.2407  1.1115 -0.8431
17634TIP3    H274318   1.862   2.332  16.597 -0.0921  0.1035  0.8500
17635TIP3   OH274319   1.517   1.398   4.124  0.3107  0.8675 -0.0086
17635TIP3    H174320   1.568   1.381   4.044  0.7494 -0.5971  0.5577
17635TIP3    H274321   1.576   1.449   4.180  0.7243  0.2087  0.1615
17636TIP3   OH274322   4.008   1.011  12.197  0.1761 -0.3614  0.0801
17636TIP3    H174323   3.971   0.980  12.114  0.5294 -1.7761  0.4248
17636TIP3    H274324   3.977   1.101  12.204  1.5646  0.4216 -2.4394
17637TIP3   OH274325   0.853   6.197   4.136  0.7587 -0.0852  0.2843
17637TIP3    H174326   0.782   6.209   4.073  0.1788  0.7957  1.0625
17637TIP3    H274327   0.871   6.103   4.135 -0.0028 -0.2391 -0.3723
17638TIP3   OH274328   0.987   6.383  12.521  0.5162  0.4740  0.1701
17638TIP3    H174329   1.045   6.361  12.449  1.4347  1.4728  0.5803
17638TIP3    H274330   1.020   6.331  12.595  0.7453  0.8534  0.3386
17639TIP3   OH274331   3.376   6.390  16.481  0.2920 -0.3710 -0.4171
17639TIP3    H174332   3.288   6.429  16.482  0.7129  0.5890  0.1970
17639TIP3    H274333   3.414   6.420  16.398 -0.2089 -1.4196 -1.0588
17640TIP3   OH274334   0.448   6.691  16.884 -0.4489  0.1008 -0.7216
17640TIP3    H174335   0.365   6.663  16.923  0.0524  0.7967  0.9576
17640TIP3    H274336   0.423   6.739  16.805 -1.5294 -1.2215 -1.2187
17641TIP3   OH274337   2.893   3.059   3.518 -0.4163  0.0404  0.2993
17641TIP3    H174338   2.923   3.023   3.435 -0.1706 -1.6077  1.0631
17641TIP3    H274339   2.896   3.154   3.505  1.7861 -0.1086 -0.8205
17642TIP3   OH274340   6.625   6.575   3.918  0.3386 -0.6432 -0.2120
17642TIP3    H174341   6.679   6.622   3.982 -2.4506  1.6936  0.6630
17642TIP3    H274342   6.555   6.535   3.971 -1.1450 -0.0117 -1.5976
17643TIP3   OH274343   4.974   4.512  10.703  0.3744 -0.7949 -0.4312
17643TIP3    H174344   4.972   4.516  10.799  0.7994 -0.9348 -0.4153
17643TIP3    H274345   4.886   4.482  10.679 -0.6592  1.8372 -0.2284
17644TIP3   OH274346   1.466   4.457   2.562  0.4643  0.0226  0.3072
17644TIP3    H174347   1.371   4.464   2.554  0.6350  1.7227 -0.9141
17644TIP3    H274348   1.481   4.431   2.653 -1.1413  0.7963  0.8283
17645TIP3   OH274349   6.686   0.382   0.097  0.2460  0.1399 -0.1233
17645TIP3    H174350   6.640   0.299   0.109  2.3001 -1.1400 -0.5788
17645TIP3    H274351   6.690   0.394   0.002 -0.1777  0.8697 -0.0595
17646TIP3   OH274352   4.041   1.037   1.344  0.2024 -0.7808 -0.0599
17646TIP3    H174353   4.004   0.973   1.283  0.2461 -1.6314  0.7947
17646TIP3    H274354   4.053   1.116   1.291 -0.4756 -1.2687 -0.9647
17647TIP3   OH274355   4.747   2.918   5.486 -0.0142  0.3422 -0.2808
17647TIP3    H174356   4.780   2.832   5.512 -0.8374 -0.0195 -0.4239
17647TIP3    H274357   4.668   2.930   5.537 -0.3006  0.6962 -0.8000
17648TIP3   OH274358   5.770   5.719  14.259  0.4787  0.4296 -0.2329
17648TIP3    H174359   5.812   5.725  14.174  0.8741 -1.3444 -0.1954
17648TIP3    H274360   5.821   5.654  14.307 -1.1350 -0.3483  0.5004
17649TIP3   OH274361   4.030   3.058   1.495  0.4764  0.2605  0.2637
17649TIP3    H174362   3.939   3.039   1.519  0.3960  1.3982  0.9421
17649TIP3    H274363   4.024   3.109   1.414  0.6421 -1.5796 -0.9604
17650TIP3   OH274364   4.510   5.338  13.865 -0.0690  0.1346 -0.9858
17650TIP3    H174365   4.557   5.277  13.808  1.1932  1.6786 -1.6844
17650TIP3    H274366   4.558   5.421  13.856 -1.0583  0.9550  0.7659
17651TIP3   OH274367   2.426   3.753  13.274  0.1400 -0.3977  0.2817
17651TIP3    H174368   2.405   3.678  13.330  2.0103  0.0543  1.6877
17651TIP3    H274369   2.512   3.731  13.237 -1.2131 -0.9077 -2.9131
17652TIP3   OH274370   1.060   5.141   2.667 -0.0918  0.1940 -0.3658
17652TIP3    H174371   0.990   5.111   2.611  0.5453  0.6445 -1.4278
17652TIP3    H274372   1.016   5.173   2.746 -0.9523 -0.9853 -0.3413
17653TIP3   OH274373   2.062   1.696   2.946  0.6031  0.2153 -0.2594
17653TIP3    H174374   2.034   1.609   2.976  1.1287  0.8853  2.4518
17653TIP3    H274375   2.030   1.702   2.857 -2.2931 -1.5288  0.5361
17654TIP3   OH274376   2.000   4.968  12.991  0.0146 -0.0089  0.1471
17654TIP3    H174377   2.067   5.035  12.975  0.4886 -0.5144 -0.0445
17654TIP3    H274378   2.017   4.902  12.923 -0.0397 -0.6225  0.7239
17655TIP3   OH274379   0.383   6.579   2.768 -0.7890 -0.0626  0.3001
17655TIP3    H174380   0.412   6.654   2.716 -1.2043  0.1933  0.4274
17655TIP3    H274381   0.397   6.606   2.859  0.7616 -0.8430  0.3356
17656TIP3   OH274382   5.109   3.389  16.868  0.1080 -0.6955  0.4824
17656TIP3    H174383   5.054   3.466  16.851  1.8077  0.6748  0.8687
17656TIP3    H274384   5.099   3.334  16.791 -1.2468 -0.1558  0.2575
17657TIP3   OH274385   4.438   2.499  12.885 -0.6946 -0.3972  0.2542
17657TIP3    H174386   4.450   2.572  12.947 -1.6114 -0.5898  0.6768
17657TIP3    H274387   4.362   2.451  12.919 -1.7807 -0.0064 -1.4967
17658TIP3   OH274388   3.382   3.748  13.287  0.3190 -0.0895  0.0589
17658TIP3    H174389   3.315   3.681  13.303 -0.0282  0.3153  0.3148
17658TIP3    H274390   3.346   3.801  13.217  0.6148 -0.1943 -0.1743
17659TIP3   OH274391   4.723   1.966   5.026 -0.1843  0.4327 -0.0184
17659TIP3    H174392   4.709   1.935   5.116  0.7118  1.8042  0.6192
17659TIP3    H274393   4.818   1.963   5.015 -0.2100  1.4110 -0.5034
17660TIP3   OH274394   5.556   5.298  16.566  0.4977  0.1022 -0.0517
17660TIP3    H174395   5.551   5.386  16.603  0.2524 -0.0643  0.3078
17660TIP3    H274396   5.499   5.302  16.489 -0.2458  0.0072  0.4780
17661TIP3   OH274397   2.676   5.339  14.193  0.4323  0.0676 -0.1350
17661TIP3    H174398   2.625   5.267  14.156  0.3818 -0.0516  0.1646
17661TIP3    H274399   2.733   5.367  14.121 -2.1966  2.3171 -1.5534
17662TIP3   OH274400   3.306   0.047   0.923 -0.1575 -0.3001 -0.0558
17662TIP3    H174401   3.287   0.095   0.843 -0.8561 -0.9718 -0.3067
17662TIP3    H274402   3.372   0.100   0.969 -1.9465  1.6486  0.3792
17663TIP3   OH274403   4.708   3.241  14.922  0.2919  0.6918 -0.4504
17663TIP3    H174404   4.703   3.198  15.008  1.8412  0.1693 -0.5824
17663TIP3    H274405   4.620   3.275  14.907 -0.4544 -0.6447  0.6043
17664TIP3   OH274406   6.529   6.433  15.639 -0.5913  0.1508  0.2414
17664TIP3    H174407   6.596   6.365  15.651  0.1386  0.7064 -0.5730
17664TIP3    H274408   6.526   6.478  15.724  0.3924  0.4025  0.1568
17665TIP3   OH274409   2.802   4.268  17.264  0.0870  0.1882 -0.2531
17665TIP3    H174410   2.743   4.321  17.318  1.1010  1.5858 -0.4776
17665TIP3    H274411   2.809   4.185  17.312  0.8244  1.3188  1.7135
17666TIP3   OH274412   3.631   0.856  11.247 -0.4537 -0.2374  0.0353
17666TIP3    H174413   3.674   0.831  11.165 -1.3235  1.7740 -1.1095
17666TIP3    H274414   3.558   0.912  11.220  0.1670  1.7878  2.2371
17667TIP3   OH274415   5.386   5.712  12.125 -0.7364  0.0858 -0.1954
17667TIP3    H174416   5.354   5.799  12.100 -2.4747 -0.1661  0.9834
17667TIP3    H274417   5.449   5.729  12.195 -1.3753  0.3949  0.3176
17668TIP3   OH274418   5.369   2.538  13.934 -0.4420 -0.8156 -0.1541
17668TIP3    H174419   5.368   2.605  13.866  0.6757  1.0218  1.5453
17668TIP3    H274420   5.456   2.500  13.930 -0.8279 -1.6875 -0.6182
17669TIP3   OH274421   1.381   4.543  17.119 -0.2671  0.1845  0.2836
17669TIP3    H174422   1.290   4.516  17.130 -0.0812 -0.5487  0.1113
17669TIP3    H274423   1.404   4.516  17.030  0.5114 -0.8891  0.7826
17670TIP3   OH274424   4.973   0.940  15.744  0.4714  0.4753  0.0925
17670TIP3    H174425   5.040   0.877  15.771 -0.6482 -0.0476  1.7926
17670TIP3    H274426   4.902   0.886  15.708  1.0292  1.0424 -1.9861
17671TIP3   OH274427   0.443   2.074  11.265 -0.1634  0.0902  0.3466
17671TIP3    H174428   0.471   2.144  11.206 -0.3924  0.1538  0.3122
17671TIP3    H274429   0.402   2.009  11.208 -0.1881  0.0510  0.4090
17672TIP3   OH274430   3.088   6.230  16.620  0.0793  0.5967 -0.4778
17672TIP3    H174431   3.019   6.183  16.667  0.6509 -1.0862 -1.2376
17672TIP3    H274432   3.062   6.322  16.624 -2.5361 -0.0193 -1.2636
17673TIP3   OH274433   6.414   2.297   1.883 -0.2582 -0.5471 -0.0105
17673TIP3    H174434   6.444   2.343   1.805  0.1452  0.0078  0.4643
17673TIP3    H274435   6.332   2.341   1.907 -0.8865 -1.3413 -0.6680
17674TIP3   OH274436   0.581   3.270  14.583 -0.1814 -0.2397  0.3745
17674TIP3    H174437   0.666   3.309  14.604  0.6571 -1.5360 -0.4769
17674TIP3    H274438   0.551   3.319  14.506 -1.2284  1.5907  1.8402
17675TIP3   OH274439   4.846   2.825  13.798 -0.2727  0.8246  0.1684
17675TIP3    H174440   4.940   2.824  13.781 -0.2838  2.1531 -0.0510
17675TIP3    H274441   4.807   2.780  13.722  0.0998  1.3508 -0.3376
17676TIP3   OH274442   1.566   5.821  13.057 -0.1665 -0.1208 -0.2492
17676TIP3    H174443   1.472   5.829  13.043 -0.2688 -1.1292 -0.1742
17676TIP3    H274444   1.601   5.798  12.972  0.3437  2.5920 -0.8665
17677TIP3   OH274445   6.313   2.778  13.074 -0.0563  0.6821  0.6528
17677TIP3    H174446   6.339   2.780  13.166 -3.2979  0.5610  1.7116
17677TIP3    H274447   6.242   2.714  13.070  0.1613  0.4949 -2.0081
17678TIP3   OH274448   1.737   3.779   1.504 -0.6127 -0.8835 -0.0750
17678TIP3    H174449   1.743   3.839   1.578  0.4325 -1.4868  0.3558
17678TIP3    H274450   1.788   3.821   1.435 -1.3343 -0.4652 -0.3639
17679TIP3   OH274451   5.376   0.751  16.711  0.1651  0.1503 -0.8487
17679TIP3    H174452   5.312   0.710  16.653 -0.8959 -0.4920  0.7317
17679TIP3    H274453   5.342   0.839  16.725 -1.5078 -0.7894  1.5362
17680TIP3   OH274454   3.474   4.965   4.998 -0.5630 -0.1542  0.4802
17680TIP3    H174455   3.445   4.937   4.911  1.3809 -0.4978 -0.1019
17680TIP3    H274456   3.541   4.902   5.023  0.1597  0.9474  1.4602
17681TIP3   OH274457   4.741   1.280   2.359 -0.0978 -0.2314  0.0040
17681TIP3    H174458   4.671   1.216   2.355 -0.1435 -0.1781 -0.0514
17681TIP3    H274459   4.728   1.325   2.443 -0.4166  0.1059 -0.2249
17682TIP3   OH274460   2.291   3.840  11.828 -0.4063  0.5463  0.4101
17682TIP3    H174461   2.315   3.762  11.777 -0.5453  0.1598  0.9321
17682TIP3    H274462   2.372   3.891  11.835  0.0647 -0.3051  1.3859
17683TIP3   OH274463   6.709   4.255   2.012  0.9752  0.3936 -0.7407
17683TIP3    H174464   6.649   4.262   2.086  1.0724  1.7324 -0.7599
17683TIP3    H274465   6.747   4.167   2.019  0.0105  0.0269  0.0344
17684TIP3   OH274466   6.583   2.835   2.799 -0.3114 -0.3048 -0.0253
17684TIP3    H174467   6.585   2.775   2.725 -0.2088 -2.2342  1.4665
17684TIP3    H274468   6.491   2.836   2.827 -0.0472 -1.0422  0.9187
17685TIP3   OH274469   5.763   6.506  13.349  0.6019  0.0350 -0.0484
17685TIP3    H174470   5.783   6.505  13.443  0.8043  1.0382 -0.0733
17685TIP3    H274471   5.835   6.457  13.309 -0.0013 -1.2783  0.3893
17686TIP3   OH274472   6.474   0.981   1.723  0.0660  0.2515 -0.1015
17686TIP3    H174473   6.522   0.903   1.751 -1.6863 -0.4406  1.1703
17686TIP3    H274474   6.478   0.979   1.627  0.6404 -1.0068 -0.0646
17687TIP3   OH274475   0.078   5.386   5.728  0.1494 -0.0439 -0.0504
17687TIP3    H174476   0.100   5.386   5.635 -0.9418 -1.2696 -0.3169
17687TIP3    H274477   0.084   5.295   5.755  1.4894  0.4126  1.3588
17688TIP3   OH274478   2.011   4.139   1.665 -0.4702  0.0383  0.0231
17688TIP3    H174479   2.010   4.134   1.570 -2.1060 -1.3405  0.0587
17688TIP3    H274480   1.988   4.231   1.685  0.3576  0.4521 -0.8920
17689TIP3   OH274481   6.614   1.380   5.002 -0.5642  0.0826 -0.0075
17689TIP3    H174482   6.703   1.356   4.976 -0.3661  0.9165 -0.1240
17689TIP3    H274483   6.558   1.334   4.940 -0.1632  0.5338 -0.7254
17690TIP3   OH274484   1.076   3.273   3.756 -0.3467 -0.4169 -0.1573
17690TIP3    H174485   1.035   3.258   3.671  0.5147 -0.0650 -0.6440
17690TIP3    H274486   1.038   3.206   3.813  0.2920 -1.7169 -1.2258
17691TIP3   OH274487   2.588   0.794  15.935  0.0578  0.0272  0.2377
17691TIP3    H174488   2.525   0.840  15.990 -0.7995  0.3275 -0.9420
17691TIP3    H274489   2.660   0.856  15.924  0.0896  0.0844  0.7410
17692TIP3   OH274490   3.894   6.175   0.616 -0.4299 -0.2953 -0.2619
17692TIP3    H174491   3.902   6.095   0.668 -0.7301  0.2010  0.5574
17692TIP3    H274492   3.944   6.156   0.537  0.6251 -0.8117  0.5007
17693TIP3   OH274493   6.321   1.578  14.255  0.2018 -0.2356 -0.7185
17693TIP3    H174494   6.317   1.555  14.162  0.1066 -1.7717 -0.3530
17693TIP3    H274495   6.407   1.620  14.266  1.0012 -1.6934 -1.1574
17694TIP3   OH274496   6.317   2.069  14.040 -0.1438  0.2510  0.0828
17694TIP3    H174497   6.329   2.129  14.114  0.6288 -0.4289  0.5320
17694TIP3    H274498   6.387   2.005  14.050 -1.9058 -1.7282  0.6131
17695TIP3   OH274499   3.719   0.844  12.326 -0.5507 -0.5324 -0.2967
17695TIP3    H174500   3.769   0.921  12.351 -0.6194 -0.6370  0.1733
17695TIP3    H274501   3.634   0.855  12.369 -1.5577  0.4446 -2.3484
17696TIP3   OH274502   2.891   0.434  16.628 -0.1775  0.3538  0.4396
17696TIP3    H174503   2.860   0.439  16.719  0.0305 -2.0187  0.7072
17696TIP3    H274504   2.986   0.429  16.636 -0.0614  1.4730 -0.0278
17697TIP3   OH274505   1.333   5.849   5.005  0.2956 -0.4520 -0.1414
17697TIP3    H174506   1.286   5.842   4.922  1.4316 -1.0060 -0.7720
17697TIP3    H274507   1.321   5.764   5.046  0.8468 -0.6542 -0.3804
17698TIP3   OH274508   6.016   2.849  17.392  0.8426  0.0207 -0.2338
17698TIP3    H174509   5.952   2.825  17.325 -0.7386  1.2488  0.7810
17698TIP3    H274510   6.069   2.770  17.404 -0.0408 -0.8061 -1.5699
17699TIP3   OH274511   0.273   6.005  16.151 -0.7105  0.2089 -0.4933
17699TIP3    H174512   0.309   5.921  16.123 -1.1354 -0.6797  1.4630
17699TIP3    H274513   0.211   5.982  16.221  0.1748  2.2448  1.0309
17700TIP3   OH274514   6.170   1.329   0.577  0.0960 -0.1906 -0.3861
17700TIP3    H174515   6.243   1.297   0.524  1.4877  2.0852  0.0353
17700TIP3    H274516   6.105   1.358   0.514  0.8155  0.4505 -0.8535
17701TIP3   OH274517   3.936   4.072   2.152 -0.2476 -0.3865 -0.3656
17701TIP3    H174518   4.020   4.032   2.176  0.5717  1.0044 -0.7538
17701TIP3    H274519   3.870   4.008   2.177  0.8494 -0.9853  1.1596
17702TIP3   OH274520   6.623   1.163   0.263 -0.0170 -0.4197 -0.1913
17702TIP3    H174521   6.704   1.112   0.268  0.3504  0.0502 -1.1422
17702TIP3    H274522   6.653   1.254   0.254 -0.5961 -0.3546 -1.8973
17703TIP3   OH274523   1.677   3.457   0.639 -0.2170 -0.1417 -0.2091
17703TIP3    H174524   1.700   3.454   0.546  1.6464  3.2108 -0.0237
17703TIP3    H274525   1.762   3.456   0.684 -1.0012  0.2938  1.3400
17704TIP3   OH274526   6.526   3.173  13.274  0.0148  0.0646  0.2244
17704TIP3    H174527   6.439   3.144  13.304 -2.0604  2.3739 -2.9311
17704TIP3    H274528   6.529   3.266  13.298  2.0367 -0.1526  0.9665
17705TIP3   OH274529   0.418   4.300   0.279 -0.4949  0.1409  0.5596
17705TIP3    H174530   0.499   4.351   0.276 -0.8129  0.6199 -0.1736
17705TIP3    H274531   0.360   4.352   0.334 -0.7253  0.4379  0.0418
17706TIP3   OH274532   3.179   3.293   3.551 -0.0496 -0.1872  0.3180
17706TIP3    H174533   3.083   3.303   3.551  0.0279  1.2169  2.5865
17706TIP3    H274534   3.206   3.321   3.638  2.4177 -1.0644 -0.0796
17707TIP3   OH274535   3.733   6.429  10.697  0.0576 -0.3947  0.6119
17707TIP3    H174536   3.783   6.353  10.666  1.8793  0.0968  2.2292
17707TIP3    H274537   3.774   6.504  10.654 -1.4941 -0.2190 -0.6734
17708TIP3   OH274538   6.708   1.816  15.259  0.3266 -0.2883  0.0024
17708TIP3    H174539   6.761   1.766  15.197  0.9149  0.8276 -0.4185
17708TIP3    H274540   6.745   1.904  15.257 -0.4746  0.0886  0.9783
17709TIP3   OH274541   5.839   0.145  13.367  0.1199  0.2238 -0.2412
17709TIP3    H174542   5.769   0.084  13.344  0.4123 -0.2138 -0.0033
17709TIP3    H274543   5.811   0.183  13.451  0.5498 -0.5784  0.2803
17710TIP3   OH274544   3.626   4.865  14.933  0.4850  0.0744  0.3567
17710TIP3    H174545   3.531   4.871  14.937  0.5307  0.4895  1.0895
17710TIP3    H274546   3.655   4.878  15.024  1.2349 -0.0824  0.1490
17711TIP3   OH274547   2.240   4.756  14.172  0.0665 -0.0447 -0.7519
17711TIP3    H174548   2.224   4.789  14.084  0.1111  2.6877  0.1833
17711TIP3    H274549   2.302   4.818  14.211 -0.5406 -0.7138  1.4550
17712TIP3   OH274550   0.872   1.884   0.539  0.1427 -0.6421 -0.1720
17712TIP3    H174551   0.875   1.796   0.575  1.0910 -0.7263 -0.4325
17712TIP3    H274552   0.779   1.908   0.542 -0.1718 -1.7782 -0.4166
17713TIP3   OH274553   1.944   1.470   3.103 -0.1528 -0.5277  0.6589
17713TIP3    H174554   1.853   1.447   3.083 -0.5404  1.2788  0.1655
17713TIP3    H274555   1.940   1.508   3.191  0.3786 -1.6757  1.2081
17714TIP3   OH274556   2.869   3.359   2.534  0.2183 -0.2370 -0.1586
17714TIP3    H174557   2.836   3.282   2.489  1.4334  2.0444 -5.7638
17714TIP3    H274558   2.795   3.420   2.534  0.9388  0.7134 -1.7945
17715TIP3   OH274559   4.389   5.079   1.582 -0.2350 -0.1332  0.3564
17715TIP3    H174560   4.462   5.135   1.608 -0.2365 -0.3339  0.8118
17715TIP3    H274561   4.313   5.116   1.627 -0.5895  0.6144 -0.8304
17716TIP3   OH274562   5.970   4.340   5.113  0.0295 -0.2596 -0.1398
17716TIP3    H174563   6.044   4.398   5.098 -1.4706  2.3246  1.6138
17716TIP3    H274564   5.966   4.330   5.208 -1.0238 -1.5479 -0.2819
17717TIP3   OH274565   0.866   3.995  15.716 -0.0448  0.0464 -0.4126
17717TIP3    H174566   0.869   3.922  15.778 -0.5414 -2.5577 -3.1832
17717TIP3    H274567   0.773   4.008  15.699 -0.0777  2.6165  1.2926
17718TIP3   OH274568   4.108   5.471  12.535 -0.3145 -0.1796  0.0150
17718TIP3    H174569   4.075   5.501  12.450 -0.0654  2.9024  0.9003
17718TIP3    H274570   4.030   5.454  12.587 -0.4893  0.5189 -0.0147
17719TIP3   OH274571   3.519   0.896  13.569 -0.4391  0.5687  0.6539
17719TIP3    H174572   3.601   0.917  13.524 -1.6443  0.4518 -1.7564
17719TIP3    H274573   3.531   0.807  13.602 -0.6051 -0.7076 -2.4351
17720TIP3   OH274574   2.067   1.706  15.594 -0.3440  0.1399  0.1700
17720TIP3    H174575   1.993   1.681  15.650 -0.6717  0.1310 -0.2639
17720TIP3    H274576   2.038   1.686  15.505  0.0608  0.4315 -0.0311
17721TIP3   OH274577   3.126   6.485  15.162 -0.0505  0.4963 -0.2166
17721TIP3    H174578   3.144   6.470  15.255 -0.5996 -1.2100 -0.3645
17721TIP3    H274579   3.031   6.490  15.156 -0.1806 -1.7689 -0.9706
17722TIP3   OH274580   3.003   6.058   5.741 -0.8684  0.4687 -0.0105
17722TIP3    H174581   3.051   6.005   5.804 -1.7589  0.8476  1.0079
17722TIP3    H274582   3.064   6.127   5.715 -0.1630 -0.2660 -0.3308
17723TIP3   OH274583   1.115   1.825   0.747  0.1510 -0.0741 -0.6761
17723TIP3    H174584   1.040   1.800   0.693 -0.2650 -0.5350  0.0964
17723TIP3    H274585   1.180   1.757   0.729  0.1364 -0.0478 -0.8359
17724TIP3   OH274586   5.515   5.502  15.828  0.0134 -0.1706  0.4153
17724TIP3    H174587   5.476   5.418  15.852  0.9081 -0.7891 -0.2214
17724TIP3    H274588   5.526   5.548  15.912 -1.4111 -0.2590  0.6703
17725TIP3   OH274589   5.855   4.264   3.428 -0.0709  0.1479  0.5272
17725TIP3    H174590   5.891   4.350   3.408 -1.8471  0.7193 -0.4522
17725TIP3    H274591   5.761   4.278   3.434 -0.4821 -1.8272 -0.3935
17726TIP3   OH274592   5.710   2.672  12.678 -0.2293  0.7002 -0.2074
17726TIP3    H174593   5.793   2.648  12.718 -0.8295  0.5230  0.9652
17726TIP3    H274594   5.644   2.646  12.742 -1.1709  1.2099 -0.9453
17727TIP3   OH274595   1.008   0.552  12.399  0.4886 -0.4470 -0.5180
17727TIP3    H174596   1.088   0.593  12.432 -0.4557  0.1222  1.2266
17727TIP3    H274597   0.972   0.615  12.337  0.2813  0.3113  0.3548
17728TIP3   OH274598   2.921   3.183  15.670  0.4390  0.0494  0.0605
17728TIP3    H174599   2.879   3.147  15.749  0.9469  0.2083  0.4038
17728TIP3    H274600   2.864   3.154  15.598  1.1039 -1.9158  0.2616
17729TIP3   OH274601   2.287   6.374  16.406  0.8780  0.3275 -0.0296
17729TIP3    H174602   2.290   6.419  16.322  1.4148 -1.4059 -1.0068
17729TIP3    H274603   2.356   6.415  16.458  1.2306  0.7413 -0.8124
17730TIP3   OH274604   2.395   4.446   4.253  0.8426  0.5408 -0.2994
17730TIP3    H174605   2.370   4.373   4.310  0.5714  1.2994  0.5705
17730TIP3    H274606   2.488   4.432   4.237  0.5121 -0.7362 -1.2518
17731TIP3   OH274607   6.025   4.837   3.404  0.0317  0.1334 -0.2382
17731TIP3    H174608   6.115   4.823   3.372  0.5543  0.5513  0.9814
17731TIP3    H274609   6.027   4.804   3.494 -1.2323 -0.4767 -0.4206
17732TIP3   OH274610   5.813   2.056   3.857 -0.3902 -0.1437 -0.0247
17732TIP3    H174611   5.752   2.025   3.790 -1.0692  2.6787 -0.8658
17732TIP3    H274612   5.896   2.069   3.811 -0.5140  0.6119 -0.0463
17733TIP3   OH274613   6.477   2.933   3.790 -0.1384 -0.8052  0.3614
17733TIP3    H174614   6.566   2.906   3.767 -0.7278 -1.4230 -1.2483
17733TIP3    H274615   6.473   3.026   3.764 -0.2828 -1.0615 -0.5635
17734TIP3   OH274616   6.029   3.659  16.513 -0.2312 -0.7640  0.3044
17734TIP3    H174617   6.099   3.615  16.465 -0.6768 -1.4012  0.2289
17734TIP3    H274618   5.953   3.602  16.503 -0.7334 -0.1368  0.4859
17735TIP3   OH274619   3.892   4.869  17.049 -0.0463  0.4864 -0.0891
17735TIP3    H174620   3.974   4.878  17.097 -0.5927 -2.7571  1.6981
17735TIP3    H274621   3.825   4.903  17.109 -0.2523  1.5713 -0.8848
17736TIP3   OH274622   0.029   2.113   1.295  0.8144  0.2907  0.0653
17736TIP3    H174623   0.020   2.018   1.307 -0.3780  0.1057 -1.8801
17736TIP3    H274624  -0.018   2.151   1.369 -0.4209 -0.6631 -0.1989
17737TIP3   OH274625   1.656   2.684   1.748  0.1885 -0.2755  0.1371
17737TIP3    H174626   1.609   2.696   1.666  0.8775  0.2856 -0.1832
17737TIP3    H274627   1.749   2.688   1.724  0.4021 -0.5293  0.8781
17738TIP3   OH274628   1.196   2.852   5.386  0.4997 -0.0963 -0.1784
17738TIP3    H174629   1.135   2.780   5.370  1.1362 -0.6223 -0.3275
17738TIP3    H274630   1.201   2.858   5.481 -0.9917  1.0220 -0.1454
17739TIP3   OH274631   5.674   1.660   3.895  0.0285  0.2408  0.6444
17739TIP3    H174632   5.583   1.668   3.869  0.6121  1.3131 -1.2817
17739TIP3    H274633   5.711   1.596   3.834  0.4889 -0.5499  1.7127
17740TIP3   OH274634   2.816   3.104   4.214  0.0276 -0.7275 -0.1561
17740TIP3    H174635   2.813   3.195   4.245  0.1772 -0.7046 -0.2091
17740TIP3    H274636   2.821   3.112   4.119 -1.3344 -0.8060 -0.2560
17741TIP3   OH274637   4.387   1.200  14.662 -1.2150 -0.4049  0.3942
17741TIP3    H174638   4.474   1.211  14.699 -0.4495  1.3008 -1.7032
17741TIP3    H274639   4.381   1.106  14.643  0.9290 -0.3079 -1.0723
17742TIP3   OH274640   5.252   1.586  11.574  0.0053 -0.0572 -0.0901
17742TIP3    H174641   5.277   1.500  11.542 -1.9408 -0.4838 -0.5886
17742TIP3    H274642   5.182   1.569  11.638  0.0344  1.1093  0.2778
17743TIP3   OH274643   2.413   1.720   3.882  0.3630 -0.0623 -0.2525
17743TIP3    H174644   2.452   1.714   3.969  0.5133 -1.1755 -0.3901
17743TIP3    H274645   2.486   1.706   3.822  0.2049  0.4046 -0.5626
17744TIP3   OH274646   1.497   0.697   1.615 -0.2306  0.2726  0.1174
17744TIP3    H174647   1.513   0.620   1.669  0.0704 -0.1301 -0.5354
17744TIP3    H274648   1.480   0.662   1.527  0.8343  0.9917 -0.3957
17745TIP3   OH274649   4.756   4.721   3.098  0.3479  0.2858 -0.0397
17745TIP3    H174650   4.733   4.642   3.146  1.1334 -0.3949 -0.7469
17745TIP3    H274651   4.828   4.694   3.040  2.0811  2.0011  1.1910
17746TIP3   OH274652   5.240   1.512  12.340 -0.0409 -0.3400  0.5351
17746TIP3    H174653   5.199   1.436  12.381  0.0375 -0.5860  0.1584
17746TIP3    H274654   5.204   1.587  12.388  2.3982 -0.7006  3.2199
17747TIP3   OH274655   6.716   6.221   3.764 -0.1171 -0.6821 -0.1610
17747TIP3    H174656   6.766   6.226   3.846 -1.9244 -1.9037  1.1003
17747TIP3    H274657   6.628   6.196   3.792 -0.6672 -1.6258 -2.5288
17748TIP3   OH274658   5.242   0.646  14.698  0.1506  0.1278  0.0501
17748TIP3    H174659   5.337   0.647  14.691  0.3049 -2.1766  0.9689
17748TIP3    H274660   5.212   0.606  14.616 -0.0317  0.6856 -0.1612
17749TIP3   OH274661   5.855   2.122  12.494  0.0746  0.2948 -0.5191
17749TIP3    H174662   5.805   2.175  12.555 -0.9869 -2.0661  0.7970
17749TIP3    H274663   5.946   2.147  12.510 -0.4388  2.6432 -0.9598
17750TIP3   OH274664   2.303   1.613  12.088  0.5499 -0.1534 -0.1918
17750TIP3    H174665   2.389   1.639  12.123  0.5005 -1.7053  1.1937
17750TIP3    H274666   2.317   1.526  12.052 -0.5688 -0.6874  0.6237
17751TIP3   OH274667   2.013   2.846   3.956  0.1868 -0.3665  0.2560
17751TIP3    H174668   2.032   2.757   3.926  1.2136 -0.1934  0.3486
17751TIP3    H274669   1.962   2.833   4.036 -0.5274 -0.8545 -0.2674
17752TIP3   OH274670   4.904   2.041   5.636 -0.6058  0.1023  0.2770
17752TIP3    H174671   4.993   2.008   5.650 -0.3924 -0.0995 -1.3338
17752TIP3    H274672   4.848   1.968   5.663 -0.4466  0.9569  3.3488
17753TIP3   OH274673   3.893   4.857   3.300  0.5481 -0.2040  0.0953
17753TIP3    H174674   3.935   4.806   3.370  0.4394 -0.5340 -0.0748
17753TIP3    H274675   3.814   4.807   3.279  0.4496  0.0282 -0.0863
17754TIP3   OH274676   3.468   1.704  13.904 -0.2740  0.0493  0.2051
17754TIP3    H174677   3.532   1.714  13.975  1.5742  0.8375 -1.4584
17754TIP3    H274678   3.468   1.610  13.886  1.2278  0.1307 -0.4058
17755TIP3   OH274679   4.698   3.239   4.242  0.6961 -0.5813  0.1862
17755TIP3    H174680   4.760   3.171   4.215  0.1109 -1.1454  0.2372
17755TIP3    H274681   4.614   3.211   4.205  0.3886 -0.0311  0.4481
17756TIP3   OH274682   0.616   5.471   4.975 -0.0941  0.4688  0.6887
17756TIP3    H174683   0.691   5.479   4.917 -0.4448  0.3196  0.2029
17756TIP3    H274684   0.616   5.552   5.026 -0.7747  1.4073 -0.7472
17757TIP3   OH274685   3.636   3.313  12.642  0.3776  0.3388  0.0381
17757TIP3    H174686   3.675   3.386  12.691 -0.2332  1.1952 -0.7112
17757TIP3    H274687   3.598   3.354  12.564 -1.0961 -0.5927  0.2234
17758TIP3   OH274688   6.707   4.477   1.815  0.1669 -0.3745  0.0118
17758TIP3    H174689   6.713   4.382   1.809  1.5269 -0.4954  2.2505
17758TIP3    H274690   6.640   4.492   1.882  1.6964  0.1471  1.4680
17759TIP3   OH274691   0.252   0.397   1.431 -0.4347 -0.1258 -0.1287
17759TIP3    H174692   0.160   0.421   1.447 -0.3795 -0.4026  0.6594
17759TIP3    H274693   0.302   0.474   1.458 -0.3443 -0.5776  1.0911
17760TIP3   OH274694   1.771   3.692   4.176  0.0333  0.0239 -0.0199
17760TIP3    H174695   1.806   3.708   4.263 -0.2713 -1.2784  0.3568
17760TIP3    H274696   1.694   3.636   4.190 -0.0079 -0.2303 -1.1193
17761TIP3   OH274697   1.629   0.350  10.605  0.6369  0.3834 -0.6259
17761TIP3    H174698   1.620   0.255  10.596  0.2492  0.5104 -1.8195
17761TIP3    H274699   1.569   0.385  10.539  0.9916  1.4523 -0.3886
17762TIP3   OH274700   5.692   4.967  12.019  0.0978  0.2731  0.3783
17762TIP3    H174701   5.729   5.054  12.008  0.7101  0.1605  1.4382
17762TIP3    H274702   5.617   4.980  12.077 -0.0101  0.1394  0.2694
17763TIP3   OH274703   2.033   5.428   0.220 -0.5672  0.2959  0.3478
17763TIP3    H174704   2.016   5.360   0.155  0.0089 -0.8931  1.3896
17763TIP3    H274705   2.120   5.406   0.255 -0.6707  1.1555  1.1935
17764TIP3   OH274706   1.408   1.059   5.774  0.1775 -0.4437 -0.1203
17764TIP3    H174707   1.360   1.120   5.717  1.4671 -1.6700 -2.6832
17764TIP3    H274708   1.485   1.108   5.802  0.1403 -0.2148 -0.4122
17765TIP3   OH274709   5.981   0.578   3.345  0.7249 -0.3673 -0.2590
17765TIP3    H174710   5.911   0.624   3.390  0.3092 -0.3060 -0.9476
17765TIP3    H274711   5.937   0.531   3.274  0.9578 -2.7589  1.0578
17766TIP3   OH274712   5.605   3.639  16.339 -0.3374 -0.5078 -0.5490
17766TIP3    H174713   5.630   3.729  16.359 -1.0408 -0.8361  2.2346
17766TIP3    H274714   5.687   3.589  16.347  0.3299 -0.0457 -3.3880
17767TIP3   OH274715   4.059   0.225  14.263 -0.2990  0.7698  0.4559
17767TIP3    H174716   4.000   0.284  14.216 -2.0052 -0.7308  0.6074
17767TIP3    H274717   4.086   0.160  14.198 -1.8732 -0.7317  1.2218
17768TIP3   OH274718   1.373   5.263  12.947 -0.4566  0.1413  0.2581
17768TIP3    H174719   1.406   5.178  12.974  1.8136  0.7590 -0.3896
17768TIP3    H274720   1.343   5.250  12.857 -1.0227 -0.1759  0.4877
17769TIP3   OH274721   2.577   5.106   1.890 -0.0087  0.1741  0.0598
17769TIP3    H174722   2.633   5.175   1.854  1.9774 -1.7295 -0.7153
17769TIP3    H274723   2.556   5.137   1.978  3.3932  0.4999  0.9123
17770TIP3   OH274724   3.475   0.424  13.629  0.0048  0.4252  0.1129
17770TIP3    H174725   3.524   0.501  13.658  0.8693 -0.3525  0.7973
17770TIP3    H274726   3.385   0.454  13.621  0.0710  1.1528  1.7965
17771TIP3   OH274727   6.616   2.333   3.121 -0.1394 -0.3685  0.6199
17771TIP3    H174728   6.578   2.412   3.083 -1.4118 -0.0940  2.3125
17771TIP3    H274729   6.591   2.337   3.214  1.6413 -1.6630  1.2039
17772TIP3   OH274730   0.887   3.824   4.251  0.1454 -0.4428  0.2899
17772TIP3    H174731   0.935   3.753   4.294  0.6822 -0.2394  0.0345
17772TIP3    H274732   0.955   3.888   4.227 -0.5598  1.4025  2.7999
17773TIP3   OH274733   0.316   4.876  12.561 -0.1612  0.4719  0.0489
17773TIP3    H174734   0.308   4.959  12.608 -1.5046  1.0042 -1.0464
17773TIP3    H274735   0.365   4.897  12.482  1.0303 -0.1684  0.5879
17774TIP3   OH274736   4.673   5.428  13.429  0.3358  0.1961  0.0212
17774TIP3    H174737   4.740   5.373  13.470  0.4594 -0.8571 -1.5117
17774TIP3    H274738   4.597   5.371  13.421 -0.3952  1.0458  0.6957
17775TIP3   OH274739   2.213   0.231  12.418 -0.5835 -0.2060 -0.2537
17775TIP3    H174740   2.212   0.317  12.376  1.2544  0.3407  0.7383
17775TIP3    H274741   2.232   0.170  12.346  1.3858  0.5937 -0.4757
17776TIP3   OH274742   0.486   2.621   4.628 -0.2033  0.0599 -0.3961
17776TIP3    H174743   0.423   2.693   4.623  1.5267  1.7598  0.6037
17776TIP3    H274744   0.461   2.572   4.706 -1.1141 -0.1536 -0.8095
17777TIP3   OH274745   3.839   4.006  13.306  0.0292  0.2073 -0.3755
17777TIP3    H174746   3.757   3.966  13.334  0.7010  1.0796  3.3543
17777TIP3    H274747   3.816   4.098  13.289  0.2783  0.6872  1.5940
17778TIP3   OH274748   1.773   0.539  11.511  0.0928 -0.4749  0.5328
17778TIP3    H174749   1.695   0.554  11.457 -0.3420  0.5483  1.4075
17778TIP3    H274750   1.743   0.479  11.579  0.3820 -0.9737  0.2316
17779TIP3   OH274751   5.792   5.489  12.991  0.1812  0.0001 -0.7045
17779TIP3    H174752   5.745   5.444  13.061  0.4359 -1.1298 -1.2366
17779TIP3    H274753   5.728   5.549  12.954 -0.1955  0.0183 -0.0396
17780TIP3   OH274754   5.270   4.323  16.063  0.2748  0.5786 -0.3812
17780TIP3    H174755   5.234   4.364  16.142 -0.2324  0.2149 -0.4197
17780TIP3    H274756   5.291   4.397  16.005  0.2132  0.8246 -0.0925
17781TIP3   OH274757   3.557   5.242   6.291  0.3807  0.7246  0.4731
17781TIP3    H174758   3.494   5.278   6.229 -0.1883  0.5541  0.9405
17781TIP3    H274759   3.518   5.258   6.377  0.1865 -0.8380  0.7068
17782TIP3   OH274760   3.025   5.419   1.770  0.6919 -0.2312  0.2777
17782TIP3    H174761   3.083   5.351   1.805  0.6684  1.0057  2.9989
17782TIP3    H274762   3.037   5.493   1.829 -1.4726  1.1102 -0.8284
17783TIP3   OH274763   6.233   1.211  13.972  0.0541 -0.1286  0.0983
17783TIP3    H174764   6.221   1.178  14.061 -1.3568 -0.5471 -0.2162
17783TIP3    H274765   6.223   1.134  13.916  1.4594  0.0370 -0.4193
17784TIP3   OH274766   3.030   0.785   1.995  0.3340 -0.1004  0.6891
17784TIP3    H174767   2.940   0.785   2.028  0.4753 -1.9431  1.1987
17784TIP3    H274768   3.083   0.810   2.071  0.3182  0.2853  0.5768
17785TIP3   OH274769   0.898   6.416  13.380 -0.1489 -0.0498  0.2358
17785TIP3    H174770   0.915   6.501  13.340  1.7225  0.2193  1.4696
17785TIP3    H274771   0.917   6.429  13.473 -0.8292 -1.5547  0.6098
17786TIP3   OH274772   1.804   6.673  12.512 -0.3205 -0.3097  0.7883
17786TIP3    H174773   1.849   6.602  12.558  0.9538  1.2173  1.9918
17786TIP3    H274774   1.854   6.752  12.534 -2.6437  1.2437  0.8537
17787TIP3   OH274775   0.858   4.317   5.736  0.0633 -0.2756 -0.2975
17787TIP3    H174776   0.784   4.306   5.796 -0.7871  1.8101 -0.8777
17787TIP3    H274777   0.917   4.245   5.758 -1.0164 -0.6068  1.8406
17788TIP3   OH274778   6.383   1.000   5.631  0.0174  0.0861  0.6822
17788TIP3    H174779   6.354   0.975   5.543 -1.8439  0.6545  1.1065
17788TIP3    H274780   6.402   0.916   5.674  2.6157 -0.1690 -0.7207
17789TIP3   OH274781   0.866   4.533  11.422  0.1292  0.4879 -0.2251
17789TIP3    H174782   0.791   4.507  11.476  1.7941 -2.3942  0.9452
17789TIP3    H274783   0.905   4.606  11.470 -1.8328  2.0640 -0.8710
17790TIP3   OH274784   5.685   5.418  14.181 -0.2587  0.2372  0.3532
17790TIP3    H174785   5.702   5.326  14.158 -1.5488  0.3289 -1.2146
17790TIP3    H274786   5.749   5.467  14.129  2.2680  0.2217  3.1997
17791TIP3   OH274787   1.307   1.145  15.102  0.1720  0.7015 -0.3259
17791TIP3    H174788   1.215   1.157  15.127  0.0069 -1.5918  0.3978
17791TIP3    H274789   1.349   1.112  15.181  1.4483  0.8917 -0.9054
17792TIP3   OH274790   2.011   3.371   0.319  0.1986  0.2776  0.1279
17792TIP3    H174791   1.990   3.316   0.244 -1.0873  0.5923  0.2250
17792TIP3    H274792   2.053   3.448   0.281 -1.7706  1.1204 -0.4696
17793TIP3   OH274793   0.927   6.043  14.821  0.7769  0.3205  0.2412
17793TIP3    H174794   1.003   6.082  14.776  0.9590 -0.5692 -0.2332
17793TIP3    H274795   0.865   6.023  14.751  0.0064  1.2211  0.6475
17794TIP3   OH274796   3.495   4.315  14.567 -0.3198 -0.3590  0.4963
17794TIP3    H174797   3.469   4.367  14.643 -0.2244 -0.0146  0.2948
17794TIP3    H274798   3.577   4.355  14.538  1.4225 -2.4476  2.1566
17795TIP3   OH274799   6.378   6.148  13.203 -0.3632 -0.1607  0.2516
17795TIP3    H174800   6.465   6.164  13.240 -0.3645  1.8017 -0.4351
17795TIP3    H274801   6.319   6.198  13.259 -0.4584  2.2061 -1.7659
17796TIP3   OH274802   4.631   1.735  16.124 -0.4443  0.2543  0.3757
17796TIP3    H174803   4.587   1.789  16.190  0.8057  0.5684  0.9734
17796TIP3    H274804   4.627   1.646  16.159 -1.4452  0.1183 -0.0415
17797TIP3   OH274805   4.607   0.808   1.930  0.1022 -0.0663 -0.2199
17797TIP3    H174806   4.638   0.888   1.887 -2.0464  1.5926  1.0866
17797TIP3    H274807   4.552   0.765   1.865  1.0871 -0.3923 -0.8565
17798TIP3   OH274808   3.647   6.162   2.811  0.1022 -0.6033  0.0774
17798TIP3    H174809   3.703   6.125   2.879 -0.3678  1.5379  1.7441
17798TIP3    H274810   3.558   6.152   2.846 -0.3520 -1.3993 -1.2351
17799TIP3   OH274811   1.038   0.106   5.073 -0.0247 -0.4279 -0.1130
17799TIP3    H174812   0.975   0.057   5.019 -0.4352 -1.2698  1.0763
17799TIP3    H274813   1.040   0.193   5.034  0.2947 -1.2027 -1.9508
17800TIP3   OH274814   6.434   1.174   2.198  0.0480  0.5878 -0.4055
17800TIP3    H174815   6.502   1.129   2.248  1.7012  2.9340 -0.3943
17800TIP3    H274816   6.399   1.240   2.259 -2.4568 -0.6720 -0.3417
17801TIP3   OH274817   2.956   4.588  14.817  0.1653 -0.3371  0.0064
17801TIP3    H174818   2.973   4.675  14.853  0.3826 -0.6986  0.8051
17801TIP3    H274819   3.026   4.574  14.753 -0.1764  0.2855 -0.4998
17802TIP3   OH274820   2.484   4.120   4.815  0.3819 -0.0038 -0.4644
17802TIP3    H174821   2.464   4.210   4.790  0.7661  0.2642  0.1549
17802TIP3    H274822   2.436   4.107   4.898  1.2108  0.0117  0.0314
17803TIP3   OH274823   4.725   5.958   3.624  0.8805 -0.5493  0.2159
17803TIP3    H174824   4.689   5.958   3.713  1.5591 -2.3622  0.5349
17803TIP3    H274825   4.752   6.048   3.609 -0.6570  0.1197  1.2541
17804TIP3   OH274826   4.350   2.163   1.635  0.0210 -0.5216  0.6532
17804TIP3    H174827   4.332   2.097   1.701 -1.1284 -0.2306  0.6429
17804TIP3    H274828   4.444   2.180   1.643  0.1451 -1.4668  1.2849
17805TIP3   OH274829   3.829   5.460  15.412  0.5445 -0.5387  0.4500
17805TIP3    H174830   3.857   5.524  15.477  1.1523  0.7609 -1.0361
17805TIP3    H274831   3.846   5.502  15.328 -0.6688 -1.9773 -0.5608
17806TIP3   OH274832   0.272   1.296  14.773  0.1101 -0.1444 -0.1442
17806TIP3    H174833   0.216   1.314  14.697 -0.5717 -0.6302  0.2279
17806TIP3    H274834   0.283   1.201  14.772  0.0783 -0.1538  0.3696
17807TIP3   OH274835   4.169   4.791   3.822 -0.1828  0.5681 -0.0296
17807TIP3    H174836   4.100   4.727   3.836 -0.9541  1.2223 -0.7668
17807TIP3    H274837   4.125   4.876   3.821  0.5708  0.9787 -0.7972
17808TIP3   OH274838   2.341   1.446   0.345  0.0423  0.4306  0.1599
17808TIP3    H174839   2.318   1.366   0.392 -0.9034 -0.6240 -1.9512
17808TIP3    H274840   2.263   1.501   0.351 -0.1026  0.2685 -0.1929
17809TIP3   OH274841   2.963   4.986   2.870 -0.3519  0.1521 -0.0845
17809TIP3    H174842   3.031   4.929   2.905  0.6483 -0.2729 -2.5167
17809TIP3    H274843   2.884   4.961   2.917  0.7445 -0.7919  1.3543
17810TIP3   OH274844   4.710   0.945  15.870  0.7110 -0.2113 -0.3945
17810TIP3    H174845   4.800   0.947  15.840  1.1265 -3.6949  0.2663
17810TIP3    H274846   4.659   0.923  15.792  0.6937 -0.3830 -0.3346
17811TIP3   OH274847   2.778   6.249  10.753  0.2656 -0.1339  0.6264
17811TIP3    H174848   2.742   6.171  10.711 -0.9251  1.2741 -1.0833
17811TIP3    H274849   2.856   6.217  10.799  1.1407 -1.9356 -1.9016
17812TIP3   OH274850   1.508   3.013  15.838 -0.2513 -0.3987  0.2009
17812TIP3    H174851   1.481   3.022  15.747  0.1021 -0.1852  0.1137
17812TIP3    H274852   1.506   3.102  15.872  1.2409 -0.2382 -0.0720
17813TIP3   OH274853   3.361   6.671   3.984 -0.2290  0.2765  0.6052
17813TIP3    H174854   3.323   6.751   4.022 -0.2896  0.0941  0.9381
17813TIP3    H274855   3.366   6.610   4.058  0.7529  0.3078  0.5778
17814TIP3   OH274856   6.146   1.016  15.767  0.0922 -0.3687 -0.0839
17814TIP3    H174857   6.068   1.066  15.793  0.2786  0.5690 -1.2537
17814TIP3    H274858   6.133   0.930  15.807 -1.3270 -0.0912  0.1267
17815TIP3   OH274859   5.908   6.771   5.223 -0.1862 -0.2776  0.3156
17815TIP3    H174860   5.958   6.803   5.148 -0.5198  2.4646  1.1724
17815TIP3    H274861   5.959   6.798   5.299 -0.6941 -1.5442  1.1440
17816TIP3   OH274862   4.149   4.228   6.706 -0.3900 -0.0512  0.4822
17816TIP3    H174863   4.093   4.275   6.645 -1.6669 -2.4844 -0.3226
17816TIP3    H274864   4.199   4.297   6.750  0.2867  1.8736 -2.9398
17817TIP3   OH274865   4.097   6.591   2.674 -0.0528  0.8541 -0.7397
17817TIP3    H174866   4.081   6.682   2.697 -0.2091  0.5031  0.5799
17817TIP3    H274867   4.016   6.545   2.696  0.2401  0.2882 -0.8015
17818TIP3   OH274868   5.676   0.672   4.301  1.0213 -0.2427  0.3060
17818TIP3    H174869   5.753   0.663   4.244  0.4494  1.0283 -0.7164
17818TIP3    H274870   5.616   0.605   4.270  1.3020 -0.5646  0.4414
17819TIP3   OH274871   0.704   2.751   0.482 -0.0941  0.4629 -0.1124
17819TIP3    H174872   0.674   2.668   0.444 -0.4679  0.3052  0.5010
17819TIP3    H274873   0.623   2.801   0.495  0.1439  0.9664 -0.5795
17820TIP3   OH274874   1.870   2.351  15.185 -0.2165 -0.5692  0.1642
17820TIP3    H174875   1.774   2.353  15.191 -0.2392 -1.4160  0.2781
17820TIP3    H274876   1.890   2.398  15.104 -0.8119 -1.4150 -0.4967
17821TIP3   OH274877   2.998   2.865   0.569 -0.2437  0.1034  0.5890
17821TIP3    H174878   2.981   2.841   0.478 -0.3390 -1.5461  1.0221
17821TIP3    H274879   3.093   2.860   0.579 -0.0508  1.9721  0.1679
17822TIP3   OH274880   3.826   2.546  13.073  0.5112 -0.1503 -0.6604
17822TIP3    H174881   3.820   2.566  12.979  0.4248  0.0893 -0.6058
17822TIP3    H274882   3.912   2.579  13.099  1.7914 -2.7823 -1.2554
17823TIP3   OH274883   6.699   4.173  15.073  0.5196 -0.0737 -0.3754
17823TIP3    H174884   6.788   4.151  15.102  0.5381 -0.3703 -0.6561
17823TIP3    H274885   6.709   4.198  14.982  0.4300  0.6692 -0.1847
17824TIP3   OH274886   2.693   1.587   5.290  0.3116  0.6976 -0.6741
17824TIP3    H174887   2.603   1.558   5.303  0.4931 -0.3813 -1.6335
17824TIP3    H274888   2.711   1.643   5.365 -1.2237  1.1198 -0.5909
17825TIP3   OH274889   4.240   5.019  17.119 -0.3896 -0.1915 -0.0561
17825TIP3    H174890   4.255   5.054  17.207  0.1765 -0.9524  0.1666
17825TIP3    H274891   4.204   4.931  17.135 -1.7077  0.2335 -0.5896
17826TIP3   OH274892   1.005   2.037   3.236 -0.7230 -0.1002  0.5068
17826TIP3    H174893   0.961   1.981   3.300 -0.8311  0.2083  0.7079
17826TIP3    H274894   0.973   2.006   3.151 -1.1784 -0.0152  0.6411
17827TIP3   OH274895   5.552   4.822   2.948  0.0162 -0.3917  0.6128
17827TIP3    H174896   5.585   4.746   2.900 -0.3496  0.6899 -1.4618
17827TIP3    H274897   5.627   4.882   2.951  0.0050 -0.4058  1.3534
17828TIP3   OH274898   5.978   5.034  11.768 -0.3778  0.2122  0.4851
17828TIP3    H174899   5.927   5.055  11.689 -0.7089 -0.2544  0.5735
17828TIP3    H274900   6.036   5.110  11.779 -0.9315  0.6742  0.2876
17829TIP3   OH274901   5.641   6.056   6.169  0.3512  0.0042 -0.1690
17829TIP3    H174902   5.713   5.999   6.141  0.4389  0.3478 -0.6726
17829TIP3    H274903   5.660   6.077   6.260  0.6163 -0.3224 -0.1491
17830TIP3   OH274904   1.623   5.417   6.387  0.2661 -0.2887 -0.3745
17830TIP3    H174905   1.539   5.443   6.349 -0.2188 -1.8383 -0.4053
17830TIP3    H274906   1.637   5.480   6.458 -1.7436 -0.9477  0.6921
17831TIP3   OH274907   4.108   1.247   1.171 -0.0176 -0.5000  0.2997
17831TIP3    H174908   4.187   1.202   1.141 -0.8128 -0.4647 -2.0767
17831TIP3    H274909   4.115   1.335   1.133 -0.9021 -0.3078  0.5659
17832TIP3   OH274910   1.779   5.887   2.595  0.3727 -0.0230 -0.4722
17832TIP3    H174911   1.737   5.803   2.614 -0.6179  0.4815 -0.3104
17832TIP3    H274912   1.706   5.949   2.591  1.1535  0.9650  0.1563
17833TIP3   OH274913   5.683   6.258  13.462 -0.5051  0.2153  0.0436
17833TIP3    H174914   5.723   6.209  13.391  1.3843  0.6127  0.7703
17833TIP3    H274915   5.676   6.348  13.428 -0.2491  0.2602  0.1055
17834TIP3   OH274916   1.030   5.932   2.314 -0.4922  0.2750 -0.2444
17834TIP3    H174917   0.963   5.864   2.323  0.0221 -0.2318 -0.1994
17834TIP3    H274918   1.011   5.973   2.230 -0.8542  0.1285 -0.2377
17835TIP3   OH274919   1.756   0.074  14.823 -0.5590 -0.3279 -0.1111
17835TIP3    H174920   1.674   0.097  14.867 -0.4804  0.3610 -0.3202
17835TIP3    H274921   1.742  -0.016  14.794 -1.3756 -0.1053 -0.4375
17836TIP3   OH274922   0.375   0.485  17.117  0.1822  0.4710  0.3404
17836TIP3    H174923   0.304   0.433  17.155  0.7009 -0.8926 -0.4834
17836TIP3    H274924   0.449   0.473  17.177  0.6009 -0.6080 -0.3474
17837TIP3   OH274925   3.027   0.828  17.280 -0.2627 -0.1316 -0.3009
17837TIP3    H174926   3.098   0.848  17.218 -2.0323  0.3659 -2.2850
17837TIP3    H274927   2.990   0.913  17.303 -0.5435 -0.4171  0.3348
17838TIP3   OH274928   3.612   6.755  12.772  0.3698  0.2962  0.2035
17838TIP3    H174929   3.562   6.730  12.850  2.3591 -0.2031  1.3988
17838TIP3    H274930   3.605   6.679  12.714 -0.4006  0.3151  0.2593
17839TIP3   OH274931   4.515   3.438  12.600 -0.3269  0.1485 -0.3607
17839TIP3    H174932   4.525   3.344  12.585 -0.7340 -0.3718  2.1320
17839TIP3    H274933   4.424   3.457  12.577 -0.8869 -0.5647  1.1644
17840TIP3   OH274934   1.818   0.601   1.347  0.2322  0.6667  0.3898
17840TIP3    H174935   1.877   0.535   1.382 -0.5091  0.0981  0.5813
17840TIP3    H274936   1.832   0.598   1.253 -0.4218 -0.3942  0.3070
17841TIP3   OH274937   6.033   1.125  14.447  0.3339  0.3839  0.0240
17841TIP3    H174938   5.957   1.141  14.393  0.3806  0.6959  0.0489
17841TIP3    H274939   6.041   1.030  14.450  0.8745  0.3686 -1.2691
17842TIP3   OH274940   1.352   4.318   5.644  0.3296 -0.2163 -0.1971
17842TIP3    H174941   1.274   4.374   5.645  1.1453  0.9431  0.0111
17842TIP3    H274942   1.351   4.278   5.557 -1.7748 -2.1110  0.5960
17843TIP3   OH274943   2.863   5.777  12.651  0.4542  0.8086  0.5263
17843TIP3    H174944   2.811   5.846  12.693 -0.8135  0.4011 -0.3136
17843TIP3    H274945   2.827   5.696  12.686 -0.8096  0.4515 -1.4814
17844TIP3   OH274946   4.564   3.590   0.912 -0.1697  0.4016 -0.3298
17844TIP3    H174947   4.470   3.607   0.909 -0.3162  0.5686  2.5383
17844TIP3    H274948   4.576   3.513   0.857 -2.4942 -1.3250  1.3849
17845TIP3   OH274949   4.683   3.820  16.191 -0.5315 -0.0317  0.3117
17845TIP3    H174950   4.617   3.875  16.149  0.3917  0.7606 -0.1523
17845TIP3    H274951   4.635   3.772  16.259 -1.8154 -0.4237 -0.8224
17846TIP3   OH274952   3.683   5.435   5.284 -0.0171 -0.0842  0.1709
17846TIP3    H174953   3.718   5.351   5.254  1.3994  0.7902 -0.7457
17846TIP3    H274954   3.607   5.451   5.228 -0.2472 -0.7182  0.3018
17847TIP3   OH274955   5.205   4.598  15.205 -0.5855  0.3229 -0.1031
17847TIP3    H174956   5.130   4.577  15.150 -1.2417 -1.8758  1.5240
17847TIP3    H274957   5.169   4.613  15.292  0.7403  0.4083  0.4664
17848TIP3   OH274958   2.848   0.682  14.279  0.2786  0.7490 -0.2890
17848TIP3    H174959   2.915   0.711  14.341  2.1113 -2.3085 -0.6165
17848TIP3    H274960   2.765   0.702  14.321  1.4191  1.9889  1.5033
17849TIP3   OH274961   4.293   6.545   2.270  0.3885  0.3114  0.1731
17849TIP3    H174962   4.375   6.553   2.220  1.0580  0.4963  1.2741
17849TIP3    H274963   4.257   6.461   2.242  0.8258  0.3418 -0.5171
17850TIP3   OH274964   5.531   0.615   3.786  0.2017  0.8537 -0.2207
17850TIP3    H174965   5.557   0.570   3.705  0.2156  0.3128  0.0773
17850TIP3    H274966   5.435   0.611   3.786  0.1703  1.4257 -0.5231
17851TIP3   OH274967   1.567   3.522  13.877 -0.4367 -0.1906  0.5847
17851TIP3    H174968   1.643   3.521  13.936  0.2455 -2.3546 -0.2391
17851TIP3    H274969   1.534   3.432  13.878 -2.5900  0.5219  0.3509
17852TIP3   OH274970   6.066   3.340  14.269 -0.1980  0.0112  0.6496
17852TIP3    H174971   6.012   3.276  14.314  0.1688 -0.1404  0.8792
17852TIP3    H274972   6.156   3.317  14.293 -0.0446  0.4110  0.4736
17853TIP3   OH274973   3.833   1.533   5.991 -0.3160 -0.0882  0.0003
17853TIP3    H174974   3.917   1.514   5.949 -1.1834 -0.6916 -1.5493
17853TIP3    H274975   3.853   1.540   6.084  1.2909 -1.1630 -0.2408
17854TIP3   OH274976   4.616   6.047  16.043  0.2205 -0.7147  0.6646
17854TIP3    H174977   4.673   5.984  16.000 -1.1266 -3.0647  2.1174
17854TIP3    H274978   4.570   6.090  15.971  1.6415 -0.8801 -0.3888
17855TIP3   OH274979   1.292   5.108  12.699 -0.4057  0.5704  0.3158
17855TIP3    H174980   1.272   5.050  12.772 -2.3860 -0.4451 -0.9230
17855TIP3    H274981   1.347   5.056  12.641  1.0885  1.3432  0.9904
17856TIP3   OH274982   2.452   6.376  15.961  0.8907  0.2103 -0.8251
17856TIP3    H174983   2.450   6.280  15.961 -0.4977  0.2233 -1.1500
17856TIP3    H274984   2.529   6.399  15.910  1.9008 -0.7281  0.2158
17857TIP3   OH274985   6.110   5.327  15.242  0.0398 -0.0048 -0.2909
17857TIP3    H174986   6.100   5.233  15.256 -1.9800  0.2762  0.4695
17857TIP3    H274987   6.105   5.366  15.329 -1.4003  0.9380 -0.7472
17858TIP3   OH274988   1.546   2.750   0.061 -0.1653 -0.2301  0.3274
17858TIP3    H174989   1.560   2.780   0.151 -0.5737 -0.1621  0.3717
17858TIP3    H274990   1.634   2.733   0.027  0.0606  0.7054  0.4130
17859TIP3   OH274991   0.012   0.210  12.944 -0.0575 -0.7029  0.0697
17859TIP3    H174992   0.085   0.230  13.003  2.5663 -0.2124 -3.0474
17859TIP3    H274993   0.013   0.115  12.935  0.1141 -0.7045  0.1057
17860TIP3   OH274994   2.150   4.419   3.209 -0.1983 -0.1250  0.4356
17860TIP3    H174995   2.206   4.342   3.198 -0.4627 -0.4469  1.3129
17860TIP3    H274996   2.066   4.393   3.172  0.3638  0.5877 -1.5241
17861TIP3   OH274997   0.965   3.245  16.153  0.1154 -0.5145 -0.0621
17861TIP3    H174998   0.881   3.211  16.184 -0.7638  0.1281 -1.6679
17861TIP3    H274999   0.954   3.259  16.059  1.2772  1.6970  0.0419
17862TIP3   OH275000   3.469   3.658   2.409  0.4213 -0.5869 -0.0110
17862TIP3    H175001   3.399   3.684   2.349  1.6405 -0.9929 -1.6488
17862TIP3    H275002   3.467   3.725   2.478 -1.9699 -0.9265  0.3587
17863TIP3   OH275003   4.148   2.132  11.298 -0.1393  0.0852  0.1114
17863TIP3    H175004   4.202   2.127  11.220 -0.1196  0.7008  0.0839
17863TIP3    H275005   4.198   2.187  11.359 -1.0974  1.3943 -0.2315
17864TIP3   OH275006   0.123   5.100   0.977 -0.0482 -0.1441 -0.3044
17864TIP3    H175007   0.192   5.049   1.020  0.2035  0.6992  0.3423
17864TIP3    H275008   0.043   5.075   1.022  0.3039  1.2281  1.1884
17865TIP3   OH275009   1.293   5.374  13.193  0.4498 -0.9715  0.4124
17865TIP3    H175010   1.330   5.461  13.175  2.5094 -1.4123  2.1507
17865TIP3    H275011   1.313   5.323  13.115  0.0967 -0.1698 -0.2220
17866TIP3   OH275012   0.786   4.390  13.398 -0.1944 -0.6443 -1.3989
17866TIP3    H175013   0.863   4.366  13.347 -0.0340  0.2398 -1.5999
17866TIP3    H275014   0.723   4.319  13.382  1.1772 -2.3155  0.2227
17867TIP3   OH275015   4.903   4.946   3.037 -0.1801 -0.0731 -0.3067
17867TIP3    H175016   4.994   4.940   3.065 -0.6353  0.0396  1.2803
17867TIP3    H275017   4.857   4.884   3.093 -1.3184  1.0054 -0.0220
17868TIP3   OH275018   5.626   4.581  14.278 -0.0718  0.7482 -0.0850
17868TIP3    H175019   5.676   4.651  14.236  1.6040  0.2272  0.9524
17868TIP3    H275020   5.601   4.523  14.206  1.2256  0.7912 -0.5949
17869TIP3   OH275021   3.496   3.585  13.475 -0.3750 -0.5063 -0.1284
17869TIP3    H175022   3.415   3.533  13.467  0.3398 -1.6330 -0.3162
17869TIP3    H275023   3.487   3.654  13.409 -1.4614 -0.2215  0.2922
17870TIP3   OH275024   3.488   0.194   1.065 -0.6219 -0.7624  0.0544
17870TIP3    H175025   3.555   0.132   1.094 -0.8392 -0.1208  2.1302
17870TIP3    H275026   3.472   0.249   1.142 -2.7339 -0.1918 -0.7246
17871TIP3   OH275027   1.924   6.752  15.505 -0.0819  0.4209  0.0871
17871TIP3    H175028   1.860   6.823  15.501  1.5079  1.8828 -0.7248
17871TIP3    H275029   1.916   6.708  15.420 -0.6144  0.0302  0.3361
17872TIP3   OH275030   4.556   4.743   2.210 -0.1277  0.2890  0.2182
17872TIP3    H175031   4.582   4.761   2.119 -0.6980 -1.1273 -0.2500
17872TIP3    H275032   4.620   4.791   2.263  0.8441  0.3027 -0.9208
17873TIP3   OH275033   1.604   1.016   3.690  0.2305  0.1324  0.4016
17873TIP3    H175034   1.587   0.923   3.708 -2.4911  0.1829 -1.3380
17873TIP3    H275035   1.674   1.015   3.625  0.4251 -0.6802  0.6087
17874TIP3   OH275036   3.732   3.772  14.480  0.1222  0.2066 -0.5397
17874TIP3    H175037   3.747   3.848  14.536 -1.3438 -0.5768  1.0100
17874TIP3    H275038   3.813   3.721  14.486 -0.3857 -0.4539  1.9395
17875TIP3   OH275039   2.317   0.680  17.234 -0.2238  0.4064  0.5136
17875TIP3    H175040   2.306   0.694  17.140  1.4585  0.3323  0.2625
17875TIP3    H275041   2.232   0.649  17.264 -0.8743  0.7024 -0.9321
17876TIP3   OH275042   6.071   3.678   5.243  0.4246  0.0563  0.3832
17876TIP3    H175043   6.050   3.617   5.173  0.6291 -0.1525  0.5028
17876TIP3    H275044   6.154   3.718   5.216  0.0798  0.5974  0.0973
17877TIP3   OH275045   2.426   6.191  17.029  0.0894  0.2208  0.1715
17877TIP3    H175046   2.433   6.135  17.106 -0.3574 -0.2452 -0.1285
17877TIP3    H275047   2.516   6.195  16.994  0.2089  0.0820  0.4637
17878TIP3   OH275048   2.390   1.798  15.750  0.3934  0.1865 -0.0203
17878TIP3    H175049   2.476   1.819  15.786  0.0167  0.2061  0.9095
17878TIP3    H275050   2.404   1.721  15.695  1.1622  0.7495 -0.6230
17879TIP3   OH275051   2.624   1.593   2.988  0.6421  0.3184  0.3457
17879TIP3    H175052   2.529   1.601   2.975  0.4575  0.6033  1.7093
17879TIP3    H275053   2.660   1.676   2.956  0.5109 -0.0051 -0.6860
17880TIP3   OH275054   1.556   1.780  13.114 -0.5249 -0.4872 -0.6071
17880TIP3    H175055   1.588   1.824  13.036 -2.2034  1.1152 -0.4787
17880TIP3    H275056   1.619   1.804  13.183 -1.2519  1.6500 -0.5901
17881TIP3   OH275057   5.324   6.584   5.513 -0.0576 -0.0075  0.0927
17881TIP3    H175058   5.253   6.642   5.541  0.3201  1.4328 -1.6965
17881TIP3    H275059   5.296   6.551   5.428  1.3037  0.4391 -0.5626
17882TIP3   OH275060   5.566   0.729  16.969  0.3392  0.3320 -0.4672
17882TIP3    H175061   5.616   0.803  16.933  0.1849  0.2727 -0.8054
17882TIP3    H275062   5.479   0.738  16.931  0.7047 -0.8369 -1.6623
17883TIP3   OH275063   2.788   2.972  14.624  0.0096  0.7934  0.7112
17883TIP3    H175064   2.882   2.975  14.640  0.1224  0.6246  0.0951
17883TIP3    H275065   2.777   2.906  14.556 -0.4130  1.6918 -0.1164
17884TIP3   OH275066   6.654   3.558   6.019  0.5111  0.2316 -0.3689
17884TIP3    H175067   6.689   3.553   6.108  3.2923 -1.4682 -1.4423
17884TIP3    H275068   6.708   3.624   5.975  1.3850 -1.2531 -1.6179
17885TIP3   OH275069   2.808   1.130  15.283 -0.1058 -0.2634  0.2056
17885TIP3    H175070   2.835   1.174  15.364 -0.4922  0.0219  0.1878
17885TIP3    H275071   2.834   1.039  15.295 -2.2263 -0.7594  1.6732
17886TIP3   OH275072   3.293   0.251  11.962  0.0253 -0.1634  0.1054
17886TIP3    H175073   3.379   0.290  11.981 -0.8018  1.2254  1.2076
17886TIP3    H275074   3.263   0.298  11.884  0.9195 -1.7778 -1.2608
17887TIP3   OH275075   3.210   5.565  11.264 -0.5144 -0.2729  0.4596
17887TIP3    H175076   3.274   5.515  11.213 -2.0189 -0.9596 -0.8553
17887TIP3    H275077   3.125   5.528  11.238 -1.4551  0.6437  2.0940
17888TIP3   OH275078   6.338   4.120  11.651  0.0914 -0.2156 -0.5048
17888TIP3    H175079   6.275   4.172  11.702 -0.2358 -0.8338 -0.2692
17888TIP3    H275080   6.424   4.152  11.678 -0.1202  0.7839 -0.9783
17889TIP3   OH275081   0.513   2.520  12.191 -0.6640 -0.5188  0.2076
17889TIP3    H175082   0.487   2.430  12.209 -1.0942 -0.3317  0.5155
17889TIP3    H275083   0.509   2.527  12.095  0.4118 -1.1364  0.0990
17890TIP3   OH275084   5.467   5.044  11.287  0.4172 -0.5529  0.2039
17890TIP3    H175085   5.422   4.974  11.241 -0.6260  0.6894 -0.7477
17890TIP3    H275086   5.531   5.077  11.224  2.7233 -2.2262  1.4987
17891TIP3   OH275087   0.424   4.704  13.586  0.4974  0.0270  0.2254
17891TIP3    H175088   0.464   4.644  13.523 -0.3679 -0.9541  0.5742
17891TIP3    H275089   0.490   4.715  13.654 -0.1715 -2.5448  1.4216
17892TIP3   OH275090   4.551   1.480  16.165 -0.3285  0.3816  0.3789
17892TIP3    H175091   4.520   1.460  16.077 -0.0456 -0.1751  0.4051
17892TIP3    H275092   4.559   1.395  16.208 -0.2392  0.6335  0.8669
17893TIP3   OH275093   4.804   1.842  12.551 -0.2599  0.4201 -0.6954
17893TIP3    H175094   4.815   1.936  12.539  1.0945  0.3775 -0.0144
17893TIP3    H275095   4.829   1.803  12.467 -0.5487  0.6465 -0.8874
17894TIP3   OH275096   1.592   2.106  13.253 -0.4677 -0.0468 -0.2637
17894TIP3    H175097   1.526   2.126  13.186  0.4261  1.2081 -0.8023
17894TIP3    H275098   1.669   2.156  13.226  0.5468 -1.0812  0.6389
17895TIP3   OH275099   4.215   6.255  14.331  0.1872  0.9240  0.6241
17895TIP3    H175100   4.181   6.175  14.371 -1.1526  1.7274  1.1788
17895TIP3    H275101   4.173   6.259  14.245  2.6510 -0.5215 -0.7340
17896TIP3   OH275102   0.930   5.528  15.826 -0.5057 -0.3768 -0.3828
17896TIP3    H175103   0.940   5.445  15.779  1.9633  0.4618 -1.5262
17896TIP3    H275104   1.018   5.565  15.829 -0.9156  0.6785  3.1193
17897TIP3   OH275105   0.888   5.117  13.135 -0.2006  0.7029 -0.5886
17897TIP3    H175106   0.811   5.074  13.171  0.0253  0.7178 -0.0649
17897TIP3    H275107   0.904   5.074  13.051  0.1257 -0.3677  0.0015
17898TIP3   OH275108   0.398   5.730   5.595  0.1951  0.1903 -0.1076
17898TIP3    H175109   0.320   5.784   5.610 -0.2343  0.3350 -2.4375
17898TIP3    H275110   0.437   5.766   5.515  1.0119 -1.7037 -0.6164
17899TIP3   OH275111   1.290   1.092  14.342 -0.0946  0.0862 -0.6176
17899TIP3    H175112   1.264   1.078  14.433 -0.3027  0.1384 -0.6686
17899TIP3    H275113   1.372   1.140  14.347  0.4484 -0.8381 -0.4442
17900TIP3   OH275114   2.568   2.308   1.286 -0.3198  0.0193  0.5540
17900TIP3    H175115   2.659   2.280   1.275 -0.2355  0.5079 -0.0953
17900TIP3    H275116   2.525   2.235   1.331  0.0633 -0.8318 -0.4053
17901TIP3   OH275117   5.022   4.889   4.601 -0.5926 -0.4151 -1.1463
17901TIP3    H175118   4.954   4.887   4.668  0.2109  3.3023  0.0302
17901TIP3    H275119   4.989   4.952   4.536  1.3647  1.0036 -0.8454
17902TIP3   OH275120   5.302   5.403   0.207  0.9780 -0.5391 -0.2046
17902TIP3    H175121   5.242   5.427   0.277  1.5097  0.0900  0.0518
17902TIP3    H275122   5.372   5.354   0.251  0.6943 -1.2025 -0.4866
17903TIP3   OH275123   0.626   6.501  14.200 -0.2444 -0.4756 -0.5547
17903TIP3    H175124   0.679   6.530  14.126  0.0934 -0.0199 -0.1455
17903TIP3    H275125   0.552   6.562  14.201  0.1996  0.0768 -0.0060
17904TIP3   OH275126   1.769   2.775  14.100 -0.8262 -0.4050 -0.0703
17904TIP3    H175127   1.743   2.734  14.018 -0.3508 -0.6419 -0.1065
17904TIP3    H275128   1.737   2.715  14.168  0.9028 -1.4957 -0.1481
17905TIP3   OH275129   3.666   3.999  16.411 -0.4548  0.0483  0.1417
17905TIP3    H175130   3.612   4.023  16.336  0.9785  1.1608 -0.5861
17905TIP3    H275131   3.755   3.997  16.377 -0.1487 -4.2970  0.6844
17906TIP3   OH275132   2.507   2.804   1.864 -0.0517 -0.2297  0.0316
17906TIP3    H175133   2.462   2.874   1.911  0.5535  1.0096 -1.1648
17906TIP3    H275134   2.500   2.728   1.921  1.3807  1.3830  2.5425
17907TIP3   OH275135   0.380   5.464   4.051  0.4025  0.3301  0.1109
17907TIP3    H175136   0.389   5.548   4.097  0.5081  0.6486 -0.4788
17907TIP3    H275137   0.286   5.458   4.033  0.0930 -0.5636  1.7588
17908TIP3   OH275138   3.373   3.921   3.227 -0.3334 -0.0929  0.1644
17908TIP3    H175139   3.368   3.993   3.290 -1.1318  0.5853 -0.6627
17908TIP3    H275140   3.451   3.941   3.175 -0.5897  0.2032 -0.1044
17909TIP3   OH275141   4.611   1.175  13.464 -0.2285 -0.0375  1.1593
17909TIP3    H175142   4.678   1.108  13.446 -1.8070 -1.4927  0.4440
17909TIP3    H275143   4.558   1.178  13.384 -2.5943 -0.8373  2.6044
17910TIP3   OH275144   4.043   1.827   4.444  0.0115  0.3465  0.2491
17910TIP3    H175145   4.138   1.821   4.449  0.0294  1.0707  1.3085
17910TIP3    H275146   4.024   1.842   4.351  0.8592 -0.6602 -0.0984
17911TIP3   OH275147   6.565   2.024  14.709  0.7155 -0.8232 -0.2136
17911TIP3    H175148   6.518   2.094  14.664  0.8437 -0.0611  0.7867
17911TIP3    H275149   6.496   1.965  14.740  0.6451 -1.5045 -1.6154
17912TIP3   OH275150   5.597   2.513  16.295  0.0931  0.1529  0.0659
17912TIP3    H175151   5.655   2.451  16.251  0.3433 -0.3385  1.0440
17912TIP3    H275152   5.645   2.540  16.373  0.2954  2.1734 -0.6944
17913TIP3   OH275153   0.520   4.907  16.557  0.6372  0.0726 -0.5397
17913TIP3    H175154   0.436   4.942  16.588  0.8048  0.6438 -0.7176
17913TIP3    H275155   0.584   4.943  16.617  0.8832  0.5803 -1.0972
17914TIP3   OH275156   2.045   4.803   2.179  0.7205 -0.4217 -0.1259
17914TIP3    H175157   2.119   4.847   2.139  0.8063 -0.8653 -0.4607
17914TIP3    H275158   1.982   4.791   2.107  0.4793 -0.3744  0.0744
17915TIP3   OH275159   1.604   6.195   6.109  0.3849  0.3609 -0.0389
17915TIP3    H175160   1.629   6.183   6.201  1.3738 -2.9133 -0.5992
17915TIP3    H275161   1.508   6.198   6.110  0.3639 -0.2734  1.0358
17916TIP3   OH275162   4.127   0.695   0.272 -0.4394  0.5409  0.3006
17916TIP3    H175163   4.088   0.666   0.354  0.0583  0.6791  0.5901
17916TIP3    H275164   4.154   0.614   0.228 -0.8579  0.4578  0.1923
17917TIP3   OH275165   4.490   4.871   0.165 -0.1806 -0.7515  0.5609
17917TIP3    H175166   4.511   4.904   0.253 -0.5920 -0.8079  0.6829
17917TIP3    H275167   4.568   4.823   0.139  1.1392  1.6614 -0.3130
17918TIP3   OH275168   5.397   1.795  13.940 -0.0441  0.2053 -0.3164
17918TIP3    H175169   5.383   1.702  13.925 -0.2536 -0.2265  2.1652
17918TIP3    H275170   5.387   1.835  13.854 -1.9930 -1.8155 -1.1134
17919TIP3   OH275171   3.246   0.940  13.837  0.3976 -0.1569 -0.5704
17919TIP3    H175172   3.320   0.881  13.849  1.0991  0.8215  0.0982
17919TIP3    H275173   3.172   0.895  13.878  1.0397 -0.3347  0.4305
17920TIP3   OH275174   6.289   3.034   0.010  0.1767  0.1956  0.7070
17920TIP3    H175175   6.199   3.003   0.003  0.4103 -0.5573  0.9189
17920TIP3    H275176   6.281   3.127   0.028 -0.6355 -0.2789  3.1915
17921TIP3   OH275177   4.450   5.289   2.490  0.1476  0.0385  0.4098
17921TIP3    H175178   4.398   5.341   2.551  1.1988 -0.2521  1.5870
17921TIP3    H275179   4.510   5.352   2.450  0.2737  0.0245  0.5755
17922TIP3   OH275180   3.986   6.434  13.282  0.4011 -0.0293  0.1393
17922TIP3    H175181   3.942   6.350  13.267 -0.9992  0.7212 -0.1133
17922TIP3    H275182   4.079   6.415  13.266  0.4004 -1.9747  1.9478
17923TIP3   OH275183   6.612   5.564   0.066 -0.3203 -0.0614 -0.1706
17923TIP3    H175184   6.653   5.534   0.147 -0.5958  0.3317  0.1162
17923TIP3    H275185   6.660   5.644   0.043  1.2292 -1.3116 -1.5818
17924TIP3   OH275186   3.202   2.633   4.140 -0.4688 -0.3668  0.0460
17924TIP3    H175187   3.296   2.648   4.130 -0.7133  1.1991 -0.1797
17924TIP3    H275188   3.174   2.700   4.203 -1.5916 -0.1537 -0.6656
17925TIP3   OH275189   5.081   6.151   5.463 -0.2679 -0.0311 -0.3044
17925TIP3    H175190   5.061   6.244   5.454 -0.8690 -0.1773 -0.4985
17925TIP3    H275191   5.029   6.108   5.396  1.3545 -0.3455 -1.4135
17926TIP3   OH275192   1.691   4.917  11.785 -0.0706 -0.5961  0.2109
17926TIP3    H175193   1.599   4.889  11.790 -0.6994  1.1359 -0.6744
17926TIP3    H275194   1.697   4.991  11.845  0.4827 -0.0658 -0.4886
17927TIP3   OH275195   0.227   5.206   3.569 -0.0476  0.2949 -0.0883
17927TIP3    H175196   0.313   5.165   3.584 -1.3404 -2.9607 -0.8706
17927TIP3    H275197   0.206   5.247   3.653  2.1840  1.1012  0.1537
17928TIP3   OH275198   6.717   1.658   0.948 -0.4809 -0.2677 -0.3562
17928TIP3    H175199   6.771   1.734   0.967 -0.6261  0.1625 -1.5820
17928TIP3    H275200   6.712   1.655   0.853 -2.4106 -0.4417 -0.2840
17929TIP3   OH275201   5.599   6.356  12.647 -0.1741  0.0577  0.4893
17929TIP3    H175202   5.629   6.293  12.582 -1.2469  0.8094 -0.7884
17929TIP3    H275203   5.581   6.304  12.725  2.5808 -0.6663  0.7467
17930TIP3   OH275204   6.646   3.406   0.021  0.0828 -0.6647  0.0977
17930TIP3    H175205   6.698   3.436  -0.053  2.5378 -1.3707  1.4365
17930TIP3    H275206   6.665   3.313   0.027 -0.5678 -0.7367  1.2438
17931TIP3   OH275207   0.937   3.538   4.104  0.0224  0.0864 -0.4228
17931TIP3    H175208   0.875   3.597   4.148  1.2490 -0.4158  2.1897
17931TIP3    H275209   1.022   3.562   4.140  0.9565 -1.2542 -1.6373
17932TIP3   OH275210   2.789   4.099   6.029  0.4816  0.4148  0.0481
17932TIP3    H175211   2.851   4.072   6.096 -0.4379 -0.2304  0.6618
17932TIP3    H275212   2.779   4.023   5.972  0.2362  0.5060 -0.0328
17933TIP3   OH275213   2.917   4.862  11.509 -0.0633  0.6131 -0.1591
17933TIP3    H175214   2.905   4.930  11.444  0.2789  1.6074  0.7882
17933TIP3    H275215   2.958   4.906  11.584 -0.9816 -0.3541  0.9645
17934TIP3   OH275216   3.644   1.591  16.778  0.6455 -0.2701  0.6303
17934TIP3    H175217   3.713   1.564  16.838  0.0836 -1.3003  0.8595
17934TIP3    H275218   3.684   1.588  16.691  1.2917  0.6255  0.8862
17935TIP3   OH275219   4.998   2.574  17.146  0.7641  0.1239  0.2050
17935TIP3    H175220   5.009   2.661  17.107 -0.3436 -0.8497 -2.4927
17935TIP3    H275221   4.928   2.586  17.210  0.7771  1.2468  0.0345
17936TIP3   OH275222   0.619   4.458  16.023 -0.2840  0.4837 -0.2476
17936TIP3    H175223   0.690   4.513  16.057  1.7180 -1.4562 -1.0228
17936TIP3    H275224   0.619   4.475  15.929  0.0105 -0.3954 -0.4208
17937TIP3   OH275225   2.400   2.593  13.913 -0.1512  0.0438  0.0010
17937TIP3    H175226   2.371   2.593  14.004  1.9992  0.0029  0.7637
17937TIP3    H275227   2.395   2.501  13.886 -1.3450  0.1386 -0.1397
17938TIP3   OH275228   3.208   3.822   0.102 -0.0844  0.4057  0.9921
17938TIP3    H175229   3.253   3.901   0.071  3.0487 -0.4901  2.8238
17938TIP3    H275230   3.216   3.760   0.030 -2.8856  1.6857 -0.6119
17939TIP3   OH275231   5.649   6.202   5.340 -0.3451  0.2887  1.0300
17939TIP3    H175232   5.596   6.144   5.394  0.6498  1.0468  2.9022
17939TIP3    H275233   5.670   6.150   5.262 -2.4867 -0.5563  0.9670
17940TIP3   OH275234   4.293   1.967   1.849 -0.6048 -0.2257 -0.2739
17940TIP3    H175235   4.205   1.932   1.854 -0.8427  0.4861  0.7439
17940TIP3    H275236   4.336   1.939   1.930 -0.2140  0.2614 -0.3050
17941TIP3   OH275237   2.064   5.600  13.506  0.3754 -0.2579 -0.0329
17941TIP3    H175238   2.106   5.686  13.498  0.5619 -0.3256  0.1920
17941TIP3    H275239   1.988   5.616  13.562  0.5111 -0.2738  0.1558
17942TIP3   OH275240   1.915   0.908  16.312  0.0790  0.0430 -0.0434
17942TIP3    H175241   1.979   0.950  16.253  2.6728 -0.3618  2.2784
17942TIP3    H275242   1.906   0.820  16.277  1.2788 -0.0778 -0.1158
17943TIP3   OH275243   5.427   5.019   3.600 -0.0846 -0.8433 -0.3032
17943TIP3    H175244   5.486   5.015   3.676 -0.5433  1.5838  0.2784
17943TIP3    H275245   5.435   5.109   3.569 -3.0750 -0.5623 -0.5068
17944TIP3   OH275246   1.519   4.232   1.607 -0.2410 -0.0133  0.4112
17944TIP3    H175247   1.472   4.316   1.607 -1.6154 -0.7275 -1.3680
17944TIP3    H275248   1.609   4.255   1.629  0.2070  2.4622 -3.1591
17945TIP3   OH275249   3.580   3.636   6.638  0.3613  0.2096 -0.2151
17945TIP3    H175250   3.485   3.633   6.631  0.2409  1.4154  0.6183
17945TIP3    H275251   3.611   3.658   6.550 -0.1968  0.8123 -0.2622
17946TIP3   OH275252   1.835   4.072  12.271  0.0231  0.7169 -0.5182
17946TIP3    H175253   1.777   4.115  12.333  0.9368  0.2632  0.6899
17946TIP3    H275254   1.911   4.046  12.323  1.3799  1.4106 -2.0748
17947TIP3   OH275255   4.409   1.519   3.518  0.3624 -0.4174  0.2674
17947TIP3    H175256   4.364   1.509   3.602 -1.5362 -2.2729 -0.8573
17947TIP3    H275257   4.438   1.430   3.496  0.0265 -0.1376 -1.4198
17948TIP3   OH275258   0.385   6.443   0.442  0.4362  0.8110  0.4883
17948TIP3    H175259   0.294   6.459   0.416  0.2054  0.0542  0.8015
17948TIP3    H275260   0.392   6.484   0.529  1.0365  2.8014 -0.4362
17949TIP3   OH275261   2.210   4.889  12.524 -0.6131 -0.2915 -0.0979
17949TIP3    H175262   2.297   4.929  12.525 -0.9980  0.5883  0.2783
17949TIP3    H275263   2.152   4.960  12.553 -1.3629 -1.0669  0.3332
17950TIP3   OH275264   2.102   1.985  15.402 -0.8299  0.2906 -0.0651
17950TIP3    H175265   2.037   1.915  15.404 -1.3447  0.7153 -1.1154
17950TIP3    H275266   2.181   1.944  15.366 -1.1372  0.2409 -0.7039
17951TIP3   OH275267   0.053   3.377  16.392  0.5265  0.6485  0.7071
17951TIP3    H175268   0.020   3.298  16.350 -1.3787  2.2283 -1.0333
17951TIP3    H275269   0.011   3.378  16.478 -0.2749  0.2699  0.3363
17952TIP3   OH275270   1.082   5.928  16.373 -0.4654 -0.4570 -0.1583
17952TIP3    H175271   1.020   5.873  16.421 -0.0103 -1.3312 -0.5279
17952TIP3    H275272   1.166   5.910  16.415 -0.5547  1.2575  0.8042
17953TIP3   OH275273   6.614   3.894  12.146 -0.7134  0.8205 -0.2378
17953TIP3    H175274   6.602   3.978  12.101 -0.0123  1.0838  0.0474
17953TIP3    H275275   6.534   3.884  12.198 -0.5313  1.6415  0.2306
17954TIP3   OH275276   0.660   1.141  11.536  0.0198  0.5044 -0.0056
17954TIP3    H175277   0.707   1.058  11.543  0.1514  0.5416 -0.4116
17954TIP3    H275278   0.728   1.205  11.515 -0.0692  0.7319  0.3753
17955TIP3   OH275279   1.326   0.672   3.178 -0.3500  0.5180  0.3082
17955TIP3    H175280   1.249   0.626   3.212 -0.2088  1.6775  2.3600
17955TIP3    H275281   1.398   0.639   3.231  1.0678 -2.0897 -2.9209
17956TIP3   OH275282   5.736   4.144  16.152  0.1649  0.3318 -0.8754
17956TIP3    H175283   5.775   4.076  16.097 -0.7282 -0.6114 -0.3966
17956TIP3    H275284   5.653   4.165  16.109 -0.5083 -0.3667  0.0523
17957TIP3   OH275285   5.243   0.658  12.564  0.2198  0.4377 -0.1514
17957TIP3    H175286   5.251   0.670  12.659 -1.4275 -0.7072  0.1796
17957TIP3    H275287   5.214   0.567  12.554  0.8893  0.3766 -1.7990
17958TIP3   OH275288   6.180   5.905   2.801 -0.7643 -0.2060 -0.5501
17958TIP3    H175289   6.118   5.908   2.875 -1.8527 -0.9079 -1.3979
17958TIP3    H275290   6.222   5.820   2.808 -0.3116  0.0394 -0.3012
17959TIP3   OH275291   4.409   0.240  17.057  0.1159  0.2261 -0.1806
17959TIP3    H175292   4.495   0.212  17.026  0.3888  2.6577 -1.9271
17959TIP3    H275293   4.349   0.213  16.988 -0.3693 -0.2886  0.4216
17960TIP3   OH275294   4.562   1.182  13.719 -0.1093 -0.2074  0.3735
17960TIP3    H175295   4.562   1.165  13.625  0.7701 -0.9773  0.5058
17960TIP3    H275296   4.495   1.123  13.754  1.6483 -2.1937  0.5889
17961TIP3   OH275297   4.544   2.840   3.640  0.4089  0.4963  0.2266
17961TIP3    H175298   4.516   2.751   3.662  1.7439  0.1293  0.5098
17961TIP3    H275299   4.603   2.829   3.566  2.3399  0.8849  1.6271
17962TIP3   OH275300   3.637   3.031   3.944 -0.1489  0.0614 -0.2120
17962TIP3    H175301   3.614   2.979   3.868  1.9358 -0.5544 -0.5069
17962TIP3    H275302   3.733   3.028   3.946 -0.0962  1.4144  1.5005
17963TIP3   OH275303   3.812   5.568  14.872  0.3281 -0.5477  0.6069
17963TIP3    H175304   3.895   5.606  14.843 -0.0013 -0.1958  0.0991
17963TIP3    H275305   3.836   5.489  14.920  1.0845  0.6609  2.3048
17964TIP3   OH275306   4.926   0.343   2.286 -0.8315 -0.3393  0.1449
17964TIP3    H175307   4.967   0.257   2.276  1.1976  0.6291 -0.4010
17964TIP3    H275308   4.859   0.346   2.218  1.0104 -0.4535 -1.7602
17965TIP3   OH275309   3.378   6.554   1.422 -0.1721  0.5526  0.5149
17965TIP3    H175310   3.375   6.565   1.517  1.8791  0.4027  0.6469
17965TIP3    H275311   3.467   6.581   1.397 -0.4539 -0.0005 -1.2783
17966TIP3   OH275312   4.037   3.200  14.614 -0.6137 -0.0064  0.1759
17966TIP3    H175313   3.993   3.283  14.597  1.5487  0.9663 -0.9440
17966TIP3    H275314   4.052   3.161  14.528  1.6655  0.2490  0.3904
17967TIP3   OH275315   2.040   6.144   5.254  0.4662 -0.3059  0.0420
17967TIP3    H175316   1.975   6.170   5.189  1.6365  0.4263 -0.8740
17967TIP3    H275317   2.097   6.220   5.262 -0.9190  0.5713  3.6748
17968TIP3   OH275318   0.698   5.026   1.757  0.0231  0.0860  0.1063
17968TIP3    H175319   0.694   5.071   1.673  0.6741 -1.3401 -0.7019
17968TIP3    H275320   0.758   4.953   1.744  2.4360  1.4359  2.5889
17969TIP3   OH275321   1.518   6.362   3.416 -0.2263  0.3927 -0.3985
17969TIP3    H175322   1.577   6.316   3.356 -0.6983  0.8939 -1.2759
17969TIP3    H275323   1.537   6.325   3.502  0.8342  0.0178 -0.7782
17970TIP3   OH275324   2.659   4.298   5.368 -0.3052  0.2173 -0.0202
17970TIP3    H175325   2.743   4.307   5.413  0.1454  1.6599 -1.0669
17970TIP3    H275326   2.676   4.329   5.279 -1.5863 -0.9397 -0.6979
17971TIP3   OH275327   6.226   3.833  15.311  0.3417  0.6653  0.5853
17971TIP3    H175328   6.140   3.790  15.311  0.7142 -0.0911  0.7165
17971TIP3    H275329   6.274   3.790  15.240 -0.3580  3.1161 -1.5622
17972TIP3   OH275330   4.207   6.255   0.600  0.0308  0.2555  0.1502
17972TIP3    H175331   4.134   6.256   0.538  0.5059 -0.3747 -0.4378
17972TIP3    H275332   4.261   6.182   0.572  0.8937  0.7155  0.5755
17973TIP3   OH275333   5.964   4.150  17.133 -0.1017 -0.3476  0.6918
17973TIP3    H175334   5.935   4.078  17.078  1.7138 -1.2931  0.9058
17973TIP3    H275335   6.011   4.108  17.205  0.5604  1.0348  1.0930
17974TIP3   OH275336   5.563   1.655  12.348 -0.4811  0.1822 -0.6291
17974TIP3    H175337   5.577   1.594  12.275  0.7505  0.2523 -0.4734
17974TIP3    H275338   5.650   1.691  12.366 -1.3564  2.9063 -1.4870
17975TIP3   OH275339   2.173   6.016  15.640  0.4998  0.2815  0.0762
17975TIP3    H175340   2.130   5.931  15.654  0.8066  0.2007  0.5509
17975TIP3    H275341   2.129   6.076  15.700  1.0156  0.2053  0.5434
17976TIP3   OH275342   0.612   4.757   5.820  0.9083 -0.6929 -0.1756
17976TIP3    H175343   0.671   4.830   5.836  1.2411 -0.9231 -0.3335
17976TIP3    H275344   0.525   4.797   5.811  1.1248 -0.2925 -0.5202
17977TIP3   OH275345   5.578   2.047  16.228  0.4628  0.0209  0.4266
17977TIP3    H175346   5.559   2.141  16.233  0.7011  0.0647  0.5363
17977TIP3    H275347   5.495   2.007  16.202  0.6110  0.3677 -0.6305
17978TIP3   OH275348   2.603   5.745  14.156  0.4301 -0.2720 -0.3195
17978TIP3    H175349   2.670   5.677  14.157  0.5569 -0.3102 -3.1761
17978TIP3    H275350   2.648   5.822  14.122 -0.5333  0.2306 -0.4919
17979TIP3   OH275351   2.405   2.313   2.565  0.1567 -0.1113 -0.9669
17979TIP3    H175352   2.469   2.339   2.631 -0.3391 -0.8617 -0.1798
17979TIP3    H275353   2.321   2.317   2.610 -0.4313  1.2640 -2.1034
17980TIP3   OH275354   3.217   6.291  14.357  0.2879 -0.1687  0.6658
17980TIP3    H175355   3.262   6.309  14.440  0.6969 -0.7365  0.5680
17980TIP3    H275356   3.283   6.310  14.290  0.6669 -1.8053  0.5472
17981TIP3   OH275357   3.076   6.374  12.669 -0.6582  0.7001  0.3645
17981TIP3    H175358   3.086   6.313  12.596 -1.3665  1.0202 -0.0033
17981TIP3    H275359   3.110   6.326  12.745  0.5115  0.5246 -0.2367
17982TIP3   OH275360   0.967   0.485  13.975 -0.6229 -0.0954  0.1071
17982TIP3    H175361   0.927   0.544  13.911  3.0518  1.3493 -1.1066
17982TIP3    H275362   0.926   0.400  13.958 -1.8583  0.8577 -2.1447
17983TIP3   OH275363   5.049   3.747   2.623 -0.6491  0.2139  0.1048
17983TIP3    H175364   4.958   3.775   2.616 -0.2906  1.4488  0.0566
17983TIP3    H275365   5.090   3.813   2.680  0.2485 -0.2070 -0.0344
17984TIP3   OH275366   3.527   4.076  16.195 -0.1010  0.5265 -0.0994
17984TIP3    H175367   3.512   3.987  16.161  1.3752  0.3918 -0.4798
17984TIP3    H275368   3.551   4.127  16.118 -3.2548  1.9264 -0.3286
17985TIP3   OH275369   3.849   5.914   4.721  0.7653 -0.8879 -0.4865
17985TIP3    H175370   3.870   6.006   4.708  1.4079 -0.9703 -0.0613
17985TIP3    H275371   3.813   5.886   4.637 -1.7063  0.3368  0.0781
17986TIP3   OH275372   5.685   3.461  13.428 -0.6246 -0.2018 -0.3664
17986TIP3    H175373   5.763   3.513  13.408 -0.2066  0.8592  3.2962
17986TIP3    H275374   5.715   3.370  13.421  0.9827  0.1795  0.7810
17987TIP3   OH275375   3.953   2.547  11.701 -0.3809  0.0878  0.0316
17987TIP3    H175376   4.045   2.575  11.701 -0.4510  0.3231  0.9698
17987TIP3    H275377   3.956   2.456  11.730 -0.6466  0.8599  2.7234
17988TIP3   OH275378   3.362   0.853  10.840 -0.1501  0.1186 -0.2084
17988TIP3    H175379   3.431   0.908  10.802 -0.2418 -0.1810 -0.8209
17988TIP3    H275380   3.294   0.851  10.772 -1.9692  2.5585  1.3541
17989TIP3   OH275381   5.360   5.083  13.324 -0.0113  0.4381 -0.0270
17989TIP3    H175382   5.420   5.058  13.394 -1.1842 -0.0100  0.8585
17989TIP3    H275383   5.290   5.130  13.368 -0.6033  0.4497 -0.9479
17990TIP3   OH275384   4.719   0.949   3.949 -0.2655  0.5100 -0.0689
17990TIP3    H175385   4.810   0.967   3.924 -0.4691  0.2617 -1.0248
17990TIP3    H275386   4.675   0.929   3.867 -0.3839 -2.9411  0.7005
17991TIP3   OH275387   6.536   0.414   3.508 -0.1232 -0.6921 -0.5747
17991TIP3    H175388   6.480   0.458   3.572  1.0702 -1.8957  1.4000
17991TIP3    H275389   6.513   0.455   3.424 -1.4349  1.2634  0.6472
17992TIP3   OH275390   4.755   4.365   1.259 -0.6524 -0.5106 -0.1494
17992TIP3    H175391   4.804   4.398   1.184  0.9257 -0.0612  1.0327
17992TIP3    H275392   4.748   4.441   1.317 -1.0826 -1.0784  0.5523
17993TIP3   OH275393   4.902   0.555   0.398  0.1752 -0.3224  1.2130
17993TIP3    H175394   4.871   0.632   0.351 -1.6644 -0.8158  1.5377
17993TIP3    H275395   4.877   0.481   0.342 -0.5068 -0.8121  2.1288
17994TIP3   OH275396   2.325   1.099  17.261 -0.0525 -0.5548  0.1358
17994TIP3    H175397   2.358   1.133  17.344  1.5357 -0.9951 -0.2800
17994TIP3    H275398   2.399   1.052  17.223 -1.5411 -2.7151 -0.2726
17995TIP3   OH275399   2.785   5.157   4.147  0.6198  0.2311  0.4091
17995TIP3    H175400   2.703   5.107   4.151  0.5846  0.2512  0.0253
17995TIP3    H275401   2.779   5.219   4.220  0.9847 -0.7908  1.3357
17996TIP3   OH275402   5.112   3.086  15.789 -0.5383 -0.4440  1.0790
17996TIP3    H175403   5.206   3.087  15.774 -0.6452 -0.6083  0.3638
17996TIP3    H275404   5.092   2.996  15.813 -0.8119 -0.9547 -0.8814
17997TIP3   OH275405   6.155   2.204  13.425  0.3468  0.1792  0.0568
17997TIP3    H175406   6.195   2.205  13.338  1.6770 -0.0576  0.6391
17997TIP3    H275407   6.132   2.112  13.439 -0.4409  0.3168 -0.2813
17998TIP3   OH275408   6.621   2.515  12.188  0.3022  0.2508  0.4489
17998TIP3    H175409   6.710   2.515  12.152  0.6382  1.0451  1.2651
17998TIP3    H275410   6.586   2.602  12.168 -0.6297 -0.3328 -0.6274
17999TIP3   OH275411   6.600   3.014  14.440 -0.2137  0.7389 -0.4010
17999TIP3    H175412   6.538   2.952  14.402  0.4121  1.2962 -2.4639
17999TIP3    H275413   6.647   2.964  14.506 -0.7639 -0.5647 -0.9670
18000TIP3   OH275414   4.198   5.215  15.302 -0.3255 -0.3698 -0.3055
18000TIP3    H175415   4.215   5.277  15.232  0.3883  1.4163  1.3385
18000TIP3    H275416   4.221   5.129  15.266 -0.9611  0.3331 -2.5270
18001TIP3   OH275417   5.623   1.874   1.545 -0.6656  0.0894 -0.0503
18001TIP3    H175418   5.697   1.813   1.553  1.0084  2.1705  1.7331
18001TIP3    H275419   5.635   1.915   1.460  0.4082  0.5571  0.3088
18002TIP3   OH275420   1.416   6.605  11.892  0.6527 -0.3774 -0.0531
18002TIP3    H175421   1.436   6.662  11.818 -1.6408  0.2309 -0.2612
18002TIP3    H275422   1.407   6.518  11.853 -0.6600 -0.0421 -0.5369
18003TIP3   OH275423   3.564   2.113  14.736  0.1245  0.7804  0.0292
18003TIP3    H175424   3.494   2.145  14.679  0.8451  0.6667 -0.9413
18003TIP3    H275425   3.521   2.048  14.792 -0.1044 -1.0109 -2.1050
18004TIP3   OH275426   3.250   2.058   0.187 -0.3569  0.1831  1.0226
18004TIP3    H175427   3.211   1.984   0.141  0.6348 -0.2820  0.8986
18004TIP3    H275428   3.208   2.135   0.149  1.4617 -0.0809 -1.8378
18005TIP3   OH275429   5.901   3.344  13.938  0.4738 -0.3274  0.1212
18005TIP3    H175430   5.849   3.417  13.971 -0.0973 -0.5210 -0.3352
18005TIP3    H275431   5.868   3.268  13.984  0.5686 -0.4053  0.0620
18006TIP3   OH275432   5.433   0.767   5.800 -0.1495 -0.1130 -0.3170
18006TIP3    H175433   5.425   0.815   5.882 -0.4107  1.1317 -1.0410
18006TIP3    H275434   5.505   0.705   5.815  0.8529  1.1670  0.3493
18007TIP3   OH275435   0.205   1.474  12.818 -0.0598  0.2820 -0.2891
18007TIP3    H175436   0.144   1.508  12.883  1.0173 -1.6289  1.8723
18007TIP3    H275437   0.180   1.518  12.736 -3.2154  0.7948  0.8010
18008TIP3   OH275438   2.883   5.030  11.040 -0.4972  0.4771  0.0376
18008TIP3    H175439   2.831   5.077  10.975  1.2025  1.1305 -0.9130
18008TIP3    H275440   2.930   4.964  10.991 -0.4470 -0.1267  0.8788
18009TIP3   OH275441   1.152   1.894  15.048  0.0561  0.1066  0.4521
18009TIP3    H175442   1.101   1.924  15.124 -0.0394  0.3736  0.2853
18009TIP3    H275443   1.220   1.960  15.037 -0.2203  0.3289  0.0152
18010TIP3   OH275444   4.524   4.286   2.145 -0.1687  0.0611  0.2416
18010TIP3    H175445   4.509   4.211   2.087  1.8568 -0.3826  0.2182
18010TIP3    H275446   4.490   4.361   2.096 -2.0034 -0.7777  0.1616
18011TIP3   OH275447   1.608   4.090   5.400  0.5382 -0.2088  0.3457
18011TIP3    H175448   1.536   4.152   5.402  0.8398  0.2497 -1.4621
18011TIP3    H275449   1.587   4.026   5.468 -2.4941 -1.1147 -1.2780
18012TIP3   OH275450   6.566   1.451  12.841 -0.2032 -0.0786 -0.0531
18012TIP3    H175451   6.636   1.451  12.907 -0.3180  0.5706  0.0783
18012TIP3    H275452   6.567   1.540  12.805 -1.2455  0.0917  0.2762
18013TIP3   OH275453   1.119   2.189   1.996  0.2126  0.3396  0.0525
18013TIP3    H175454   1.185   2.144   1.943 -2.0348  0.3633 -3.0100
18013TIP3    H275455   1.127   2.149   2.083  0.7272 -3.4868 -1.5594
18014TIP3   OH275456   5.730   2.016   3.167 -0.7537  0.0358 -0.4469
18014TIP3    H175457   5.809   2.068   3.184  0.0302 -0.5892 -1.9348
18014TIP3    H275458   5.739   1.939   3.224 -0.9482  0.5875  0.3374
18015TIP3   OH275459   6.078   2.986  11.423  0.0561 -0.3116 -0.3571
18015TIP3    H175460   6.052   3.076  11.445 -1.3095 -0.9426  0.7222
18015TIP3    H275461   6.081   2.940  11.506 -0.4105 -1.5547 -0.9982
18016TIP3   OH275462   5.621   2.948   1.383 -0.2631  0.0604 -0.0698
18016TIP3    H175463   5.528   2.929   1.374 -0.2444  0.6337 -1.8808
18016TIP3    H275464   5.656   2.940   1.294  1.8843 -2.3169  0.8975
18017TIP3   OH275465   2.286   6.323   2.007 -0.4601 -0.1215  0.3801
18017TIP3    H175466   2.371   6.320   2.052  1.6300 -1.2999 -3.2646
18017TIP3    H275467   2.254   6.412   2.024  1.0895  0.1292  2.4696
18018TIP3   OH275468   0.833   1.939   5.776 -0.0416  0.0575 -0.2655
18018TIP3    H175469   0.822   2.000   5.849  1.8534  0.9188 -0.6550
18018TIP3    H275470   0.783   1.979   5.704 -1.6866 -0.6558  0.4377
18019TIP3   OH275471   5.953   5.135   6.099  0.1822 -0.1987  0.3871
18019TIP3    H175472   5.901   5.149   6.020 -1.3610  0.9804  1.5567
18019TIP3    H275473   5.895   5.158   6.171  1.6695 -0.8556  1.8792
18020TIP3   OH275474   2.565   3.944   0.431  0.5904  0.6702 -0.7130
18020TIP3    H175475   2.633   4.001   0.394  0.9951  1.2439  0.8618
18020TIP3    H275476   2.593   3.855   0.407  1.0382  0.9898 -1.4231
18021TIP3   OH275477   6.520   3.750   3.005  0.2703 -0.3650  0.4761
18021TIP3    H175478   6.485   3.686   3.067  0.3543  0.7654  1.7158
18021TIP3    H275479   6.598   3.785   3.048  0.3485  0.4143 -0.2805
18022TIP3   OH275480   5.616   1.174   0.926  0.5471 -0.8044  0.0447
18022TIP3    H175481   5.691   1.232   0.936  0.9011 -0.8996 -1.6279
18022TIP3    H275482   5.545   1.217   0.972  0.5275  1.5356 -1.9695
18023TIP3   OH275483   4.454   3.881  14.438  0.6623 -0.1538 -0.2870
18023TIP3    H175484   4.504   3.804  14.413  2.0512  0.7750 -0.4990
18023TIP3    H275485   4.414   3.912  14.357 -0.2037 -0.8385 -0.1356
18024TIP3   OH275486   5.980   0.589   2.001  0.3596 -0.6321  0.0447
18024TIP3    H175487   6.033   0.510   1.989 -2.3777 -2.7615  0.8577
18024TIP3    H275488   5.923   0.591   1.925 -0.5389 -0.2608  0.7078
18025TIP3   OH275489   3.533   6.038   0.776 -0.7428 -0.7924  0.4639
18025TIP3    H175490   3.472   5.978   0.733 -1.9490 -0.2498  1.3616
18025TIP3    H275491   3.609   5.984   0.797 -1.0308 -1.5543 -0.4041
18026TIP3   OH275492   6.448   5.690  15.539 -0.2581  0.6181  0.4113
18026TIP3    H175493   6.505   5.761  15.568  0.8852 -0.4434  0.8800
18026TIP3    H275494   6.495   5.651  15.464 -0.7062  0.1671  0.3615
18027TIP3   OH275495   3.125   0.966  13.332 -0.4634  0.3559  0.0324
18027TIP3    H175496   3.173   1.046  13.353  1.4823 -0.4746 -1.0596
18027TIP3    H275497   3.137   0.910  13.408 -1.4011  0.8764  0.5835
18028TIP3   OH275498   1.796   4.779   0.252  0.2506 -0.0490  0.7574
18028TIP3    H175499   1.815   4.697   0.298 -1.7461 -0.0842  1.6176
18028TIP3    H275500   1.826   4.847   0.312 -1.4108 -0.1187  1.7296
18029TIP3   OH275501   2.750   3.269   5.137 -0.6095  0.3581  0.0099
18029TIP3    H175502   2.695   3.217   5.196 -0.0635 -0.0319  0.1755
18029TIP3    H275503   2.769   3.349   5.188 -0.6132  0.2749  0.1434
18030TIP3   OH275504   2.146   4.586   2.475  0.4498 -0.1501 -0.8539
18030TIP3    H175505   2.107   4.561   2.391 -0.6684  0.3527 -0.4969
18030TIP3    H275506   2.111   4.523   2.538 -0.1100  0.5311 -0.4632
18031TIP3   OH275507   4.256   2.412   5.330  0.0968 -0.1378 -0.4840
18031TIP3    H175508   4.321   2.342   5.334  0.3377  0.0068 -1.6231
18031TIP3    H275509   4.266   2.449   5.243 -3.4573 -2.0231 -1.9044
18032TIP3   OH275510   3.527   4.562   0.038  0.0431 -0.0575 -0.0056
18032TIP3    H175511   3.458   4.609   0.085 -0.0563  0.0370 -0.2444
18032TIP3    H275512   3.575   4.631  -0.009  0.0280 -0.1699 -0.1875
18033TIP3   OH275513   1.425   2.556  11.430 -0.2637  0.2637  0.3414
18033TIP3    H175514   1.452   2.513  11.349 -1.3801  1.5128 -0.7341
18033TIP3    H275515   1.428   2.486  11.496 -0.3154 -1.0180 -0.9692
18034TIP3   OH275516   2.424   4.713   5.631  0.4450 -0.0363 -0.3876
18034TIP3    H175517   2.402   4.778   5.698 -0.9214 -0.7679 -0.0842
18034TIP3    H275518   2.463   4.764   5.560 -0.6463  1.1377 -0.1834
18035TIP3   OH275519   1.514   1.605   4.767 -0.3076  0.4384  0.4484
18035TIP3    H175520   1.424   1.634   4.751 -0.4438  1.4098  2.6172
18035TIP3    H275521   1.563   1.637   4.691 -1.7772 -0.2043 -0.8254
18036TIP3   OH275522   1.165   6.178  15.681 -0.0909  0.5737 -0.6229
18036TIP3    H175523   1.249   6.223  15.672  0.8605 -1.1002 -0.6361
18036TIP3    H275524   1.100   6.240  15.648  1.2535  1.5575 -1.5241
18037TIP3   OH275525   3.618   6.041   2.256  0.0694  0.2079 -0.0196
18037TIP3    H175526   3.616   5.950   2.287 -2.1983  0.3681  0.4502
18037TIP3    H275527   3.599   6.093   2.334  1.3182  1.1232 -0.2940
18038TIP3   OH275528   4.549   6.011  13.024  0.2274 -0.2410 -0.2384
18038TIP3    H175529   4.489   5.948  12.986 -0.0720 -0.5223  0.6627
18038TIP3    H275530   4.609   6.035  12.953 -1.8114  1.1595 -1.5985
18039TIP3   OH275531   2.774   2.282  16.273  0.0680  0.2648  0.3687
18039TIP3    H175532   2.732   2.367  16.261 -0.0838  0.5909  2.7350
18039TIP3    H275533   2.760   2.236  16.190 -1.2886  1.9222 -0.3706
18040TIP3   OH275534   1.019   5.389   0.278  0.1037 -0.1192 -1.2572
18040TIP3    H175535   1.110   5.417   0.288  0.0512  0.4445 -2.3036
18040TIP3    H275536   0.992   5.423   0.193 -0.5300 -1.7892 -1.7772
18041TIP3   OH275537   3.020   0.910  11.470  0.5486  0.1936 -0.5128
18041TIP3    H175538   2.982   0.887  11.555  0.6936  1.1744 -0.1764
18041TIP3    H275539   3.095   0.851  11.461  0.2073 -0.2914 -0.2113
18042TIP3   OH275540   2.893   0.594   5.802 -0.4710  0.3639  0.0198
18042TIP3    H175541   2.909   0.512   5.755 -1.5570 -0.0929  0.4119
18042TIP3    H275542   2.972   0.607   5.854 -0.7402 -1.0669  0.8580
18043TIP3   OH275543   1.864   2.160   5.081 -0.2837  0.6530  0.0404
18043TIP3    H175544   1.862   2.253   5.062  0.8182  0.5815 -0.4876
18043TIP3    H275545   1.956   2.139   5.094 -0.6093 -0.1465  1.3068
18044TIP3   OH275546   5.585   2.075  11.519 -1.0029 -0.1930  0.1156
18044TIP3    H175547   5.609   2.113  11.603  0.4350 -2.3946  0.8018
18044TIP3    H275548   5.520   2.007  11.541  0.4015 -1.7404 -0.2806
18045TIP3   OH275549   3.525   4.499   4.448 -0.2097 -0.0541 -0.4011
18045TIP3    H175550   3.567   4.575   4.407 -1.1395  0.2471 -0.8256
18045TIP3    H275551   3.501   4.529   4.535 -1.4754  0.4999 -0.9046
18046TIP3   OH275552   1.802   4.575   0.793 -0.5807 -0.5805 -0.2994
18046TIP3    H175553   1.804   4.481   0.775  0.2271 -1.1377  2.3512
18046TIP3    H275554   1.749   4.584   0.872 -0.6251  1.1908 -0.4883
18047TIP3   OH275555   1.681   3.815  12.952 -0.4947  0.5361  0.1666
18047TIP3    H175556   1.650   3.868  12.879 -0.7672 -0.3036 -0.3370
18047TIP3    H275557   1.773   3.839  12.963 -0.2640  0.1730 -0.8999
18048TIP3   OH275558   1.816   4.388  14.712  0.2160  0.0192  0.1886
18048TIP3    H175559   1.818   4.330  14.636 -0.4277  0.2801 -0.0437
18048TIP3    H275560   1.733   4.435  14.703  1.0906  1.5883 -0.0966
18049TIP3   OH275561   0.792   0.260  13.945  0.2866  0.0465 -0.3322
18049TIP3    H175562   0.788   0.197  13.873  0.0375  1.1626 -1.3249
18049TIP3    H275563   0.709   0.250  13.992  1.6383 -2.8450  1.7599
18050TIP3   OH275564   2.143   1.939   4.341  0.2013 -0.5133  0.2678
18050TIP3    H175565   2.197   1.997   4.395  1.3224 -2.0167  0.8311
18050TIP3    H275566   2.076   1.906   4.399 -0.8913  0.7321 -0.2361
18051TIP3   OH275567   5.666   5.215   4.970  0.0576 -0.3276 -0.2197
18051TIP3    H175568   5.753   5.245   4.997  0.1289  0.4212 -1.2212
18051TIP3    H275569   5.645   5.144   5.031  1.0939 -0.0931  0.4355
18052TIP3   OH275570   2.856   5.427  13.669 -0.7198 -0.1184 -0.1295
18052TIP3    H175571   2.922   5.361  13.648  0.6552  0.8117  1.0611
18052TIP3    H275572   2.782   5.377  13.705 -1.0704 -1.2534 -2.2531
18053TIP3   OH275573   0.378   5.782  12.137 -0.3412 -0.3706  0.4901
18053TIP3    H175574   0.446   5.718  12.159  0.3161 -0.2247 -0.9852
18053TIP3    H275575   0.376   5.783  12.041  0.5529  2.6719  0.3829
18054TIP3   OH275576   6.225   4.313   2.115  0.0447  0.0289 -0.1647
18054TIP3    H175577   6.260   4.303   2.026  0.6024 -1.8953  0.2204
18054TIP3    H275578   6.154   4.377   2.106 -0.2389 -0.4914 -2.0820
18055TIP3   OH275579   2.404   6.393  10.948 -0.4446  0.4143 -0.1822
18055TIP3    H175580   2.437   6.304  10.942 -0.4387  0.3212  0.9115
18055TIP3    H275581   2.399   6.424  10.858 -1.5839 -1.0845 -0.6629
18056TIP3   OH275582   3.780   0.160  14.910  0.3387  0.3705  0.5978
18056TIP3    H175583   3.829   0.139  14.990 -0.5512 -1.1832  0.7836
18056TIP3    H275584   3.831   0.228  14.867  1.7363  0.0180  1.6432
18057TIP3   OH275585   2.667   1.738  13.895 -0.0060  0.1720 -0.0451
18057TIP3    H175586   2.732   1.800  13.926  0.8906 -0.3212 -0.8952
18057TIP3    H275587   2.705   1.652  13.912 -0.9549 -0.1528  0.5252
18058TIP3   OH275588   6.040   1.368  11.824 -0.4815 -0.2542 -0.1269
18058TIP3    H175589   6.081   1.312  11.758  0.5994 -0.4391  0.6782
18058TIP3    H275590   6.112   1.419  11.861 -1.2586  0.7543  0.0456
18059TIP3   OH275591   2.567   4.822  17.058 -0.2562 -0.6861 -0.4263
18059TIP3    H175592   2.512   4.839  16.982 -0.1395 -0.3097 -0.4297
18059TIP3    H275593   2.533   4.879  17.127 -1.1347 -1.9038  0.1895
18060TIP3   OH275594   1.954   0.496  17.093  0.7206  0.2211  0.0842
18060TIP3    H175595   2.017   0.520  17.024  0.8936 -1.2500 -0.3048
18060TIP3    H275596   1.870   0.526  17.059  1.1094  1.6523  0.3279
18061TIP3   OH275597   3.365   1.569  12.809 -0.2408 -0.2147  0.1694
18061TIP3    H175598   3.407   1.645  12.768  1.1933 -1.5159 -0.8840
18061TIP3    H275599   3.286   1.555  12.757  0.3959 -0.4720 -0.7700
18062TIP3   OH275600   4.319   1.864   6.956 -1.0487 -0.0527 -0.0281
18062TIP3    H175601   4.351   1.923   6.888  1.0573 -0.0551  0.8815
18062TIP3    H275602   4.309   1.920   7.033 -1.3609 -0.4479  0.2242
18063TIP3   OH275603   4.484   6.169  13.475  0.0758 -1.2714 -0.2893
18063TIP3    H175604   4.422   6.242  13.470 -0.2685 -1.6530 -1.8772
18063TIP3    H275605   4.432   6.095  13.507 -0.0808 -1.3622 -0.7517
18064TIP3   OH275606   5.423   2.372   3.916 -0.0224 -0.3571  0.6744
18064TIP3    H175607   5.438   2.325   3.999 -0.9391  1.4081  1.9161
18064TIP3    H275608   5.337   2.342   3.887 -0.3084  0.0151  1.1115
18065TIP3   OH275609   6.347   3.847  12.245 -0.6070 -0.3556  0.2480
18065TIP3    H175610   6.366   3.754  12.258 -1.7167 -1.0820 -2.6309
18065TIP3    H275611   6.294   3.872  12.321 -0.9496 -2.2661  0.6835
18066TIP3   OH275612   1.660   4.071   0.281 -0.1970 -0.6339 -0.4233
18066TIP3    H175613   1.745   4.113   0.268 -0.5490  0.8836  1.7114
18066TIP3    H275614   1.678   3.977   0.269  1.5125 -0.2546 -1.1173
18067TIP3   OH275615   2.120   6.044   2.010  0.0045  0.2727  0.0125
18067TIP3    H175616   2.179   6.118   2.025  2.3820 -0.9006 -2.6186
18067TIP3    H275617   2.164   5.969   2.051 -1.0778 -0.1575  0.4269
18068TIP3   OH275618   0.599   4.241   1.634  0.1541  0.0741  0.1664
18068TIP3    H175619   0.634   4.285   1.556  1.2908 -1.5429 -0.3111
18068TIP3    H275620   0.554   4.164   1.599  0.7388 -0.7095  1.0936
18069TIP3   OH275621   6.692   3.154  16.212  0.4263 -0.2400  0.0183
18069TIP3    H175622   6.654   3.073  16.179 -1.3564  0.3532  0.4914
18069TIP3    H275623   6.696   3.211  16.135  1.4348 -0.6591 -0.2586
18070TIP3   OH275624   2.307   2.483   0.814 -1.0899  0.1689  0.1627
18070TIP3    H175625   2.220   2.458   0.783 -0.5872 -0.7030 -0.6085
18070TIP3    H275626   2.367   2.439   0.754 -0.1117  2.8432 -1.0153
18071TIP3   OH275627   6.175   4.002   6.016  0.1050 -0.1612  0.1032
18071TIP3    H175628   6.158   3.911   6.040  0.9488 -0.2348  0.4491
18071TIP3    H275629   6.155   4.052   6.096 -0.3325 -0.0417 -0.0778
18072TIP3   OH275630   3.551   4.796  11.401 -0.2358 -0.0171  0.0695
18072TIP3    H175631   3.558   4.719  11.345 -1.3611  0.5672 -0.9223
18072TIP3    H275632   3.529   4.868  11.342  0.7726  1.0918  0.9717
18073TIP3   OH275633   6.446   3.967   0.400  0.0725 -0.5290 -0.5025
18073TIP3    H175634   6.350   3.971   0.410 -0.0237  0.0638 -1.5777
18073TIP3    H275635   6.465   3.873   0.400 -0.3398 -0.6456  1.0737
18074TIP3   OH275636   0.140   1.324  16.630 -0.2013  0.5632  0.5598
18074TIP3    H175637   0.058   1.299  16.588  0.4256  1.3644 -1.2514
18074TIP3    H275638   0.115   1.391  16.693 -0.8102  2.1119 -1.2152
18075TIP3   OH275639   6.266   0.094  14.913 -0.1190 -0.0752 -0.0048
18075TIP3    H175640   6.312   0.054  14.839  0.1868  0.5077 -0.1395
18075TIP3    H275641   6.332   0.097  14.983  0.1602  1.0484 -0.2958
18076TIP3   OH275642   5.575   1.150   1.340  0.1064 -0.4363 -0.1066
18076TIP3    H175643   5.493   1.105   1.322  0.3589 -0.5679 -0.9600
18076TIP3    H275644   5.642   1.098   1.297  0.5626  0.0331  0.0187
18077TIP3   OH275645   0.595   1.577   0.244  0.9707  0.3968  0.1079
18077TIP3    H175646   0.686   1.552   0.262  1.0161 -0.2235 -0.9354
18077TIP3    H275647   0.544   1.508   0.285  1.0540 -0.5642 -1.3329
18078TIP3   OH275648   0.514   1.305   4.647 -0.7449  0.1696  0.2389
18078TIP3    H175649   0.424   1.273   4.658 -0.8179  0.4069  0.3258
18078TIP3    H275650   0.506   1.400   4.644 -0.4936  0.1922  0.2634
18079TIP3   OH275651   6.615   1.581   4.233  1.0794 -1.0043 -0.3851
18079TIP3    H175652   6.631   1.628   4.151 -2.0427 -1.5394 -1.4501
18079TIP3    H275653   6.575   1.646   4.291  0.3202 -1.3754 -0.4774
18080TIP3   OH275654   2.564   4.935   0.285  0.3273 -0.2665 -0.3226
18080TIP3    H175655   2.515   4.987   0.348 -0.1512 -0.7615 -0.2852
18080TIP3    H275656   2.652   4.929   0.323  0.1018 -0.3728  0.1852
18081TIP3   OH275657   5.904   1.173  15.470  0.1023 -0.0537  0.4332
18081TIP3    H175658   5.980   1.228  15.484 -0.8928  1.5088 -0.0250
18081TIP3    H275659   5.880   1.188  15.378 -1.4483  0.4353  0.8846
18082TIP3   OH275660   3.397   5.787   6.064 -0.2003  0.0429  0.8746
18082TIP3    H175661   3.361   5.856   6.119  0.6734  1.0122  0.2468
18082TIP3    H275662   3.490   5.787   6.082  0.0455  0.1102 -0.2865
18083TIP3   OH275663   6.426   4.929  17.164 -0.9084 -0.6388  0.1758
18083TIP3    H175664   6.387   4.860  17.111 -0.8558 -0.6145  0.1053
18083TIP3    H275665   6.352   4.981  17.195 -0.8636  0.2362 -1.1039
18084TIP3   OH275666   4.828   3.667   4.484  0.1083 -0.0178  0.1214
18084TIP3    H175667   4.805   3.574   4.490 -0.5906  0.1254 -0.1896
18084TIP3    H275668   4.750   3.713   4.515  0.4110  0.4689  0.1699
18085TIP3   OH275669   3.208   4.995  11.461  0.0255 -0.2582 -0.6669
18085TIP3    H175670   3.257   4.915  11.479 -0.8146 -1.1357 -2.1332
18085TIP3    H275671   3.137   4.995  11.525  0.0642 -0.6414 -0.6261
18086TIP3   OH275672   6.112   6.084   2.219 -0.6564  0.1569 -0.1461
18086TIP3    H175673   6.189   6.105   2.272 -0.1313 -0.9649 -0.4253
18086TIP3    H275674   6.119   6.141   2.143  0.8082 -1.0368 -0.9656
18087TIP3   OH275675   6.653   2.922   1.906  0.8213  0.3403 -0.0529
18087TIP3    H175676   6.669   2.846   1.962 -1.4861  0.3789  0.7891
18087TIP3    H275677   6.654   2.997   1.966 -1.2290  0.4315 -0.0617
18088TIP3   OH275678   2.068   1.722   5.267 -0.7021 -0.0318 -0.0197
18088TIP3    H175679   2.105   1.634   5.268 -1.2421 -0.2645  1.4150
18088TIP3    H275680   2.073   1.749   5.175  1.5188 -0.6734 -0.1407
18089TIP3   OH275681   6.086   3.193   0.546  0.4411 -0.4593  1.0214
18089TIP3    H175682   6.154   3.244   0.591  0.3687  0.4259  0.1618
18089TIP3    H275683   6.013   3.191   0.608  0.5365  0.2911  1.1736
18090TIP3   OH275684   2.943   2.685  11.449  0.3625 -0.1623  0.2604
18090TIP3    H175685   2.864   2.639  11.479  0.3751  1.4412  3.1649
18090TIP3    H275686   2.990   2.620  11.396 -1.7528 -1.9468  0.4253
18091TIP3   OH275687   0.778   3.247   1.117 -0.3806 -0.0476  0.0639
18091TIP3    H175688   0.829   3.307   1.063 -2.2610  2.2034  0.6329
18091TIP3    H275689   0.715   3.208   1.056 -0.4739  0.1019  0.0650
18092TIP3   OH275690   0.986   3.802   5.700 -0.7682  0.0670  0.4413
18092TIP3    H175691   0.977   3.895   5.724 -0.8730  0.2290 -0.2028
18092TIP3    H275692   1.027   3.804   5.613 -1.2481 -0.4739  0.1993
18093TIP3   OH275693   3.437   1.046  13.187  0.2570 -0.2684 -0.1261
18093TIP3    H175694   3.455   0.952  13.182 -1.5446 -0.7278  1.1561
18093TIP3    H275695   3.389   1.065  13.107  0.7090 -0.4162 -0.4351
18094TIP3   OH275696   0.990   5.560  11.442  0.1332  0.2528 -0.0945
18094TIP3    H175697   0.907   5.603  11.465  0.4410  1.1553 -0.6456
18094TIP3    H275698   1.051   5.588  11.510  0.2804  0.5185 -0.3358
18095TIP3   OH275699   2.405   3.806   1.460  0.5110 -0.0755 -0.2025
18095TIP3    H175700   2.399   3.754   1.539  0.5273 -0.5600 -0.5151
18095TIP3    H275701   2.321   3.793   1.416  0.1258  0.9699  0.2081
18096TIP3   OH275702   1.700   4.641   6.527 -0.5444 -0.2908  0.1638
18096TIP3    H175703   1.743   4.725   6.514  1.1437 -1.1311  0.1006
18096TIP3    H275704   1.640   4.634   6.453 -0.6137  0.7820  0.0957
18097TIP3   OH275705   6.585   1.148  15.513  0.1994 -0.4115  0.1245
18097TIP3    H175706   6.603   1.189  15.428 -1.3306 -3.2792 -1.7344
18097TIP3    H275707   6.491   1.159  15.526  0.0523 -1.8043  0.3780
18098TIP3   OH275708   6.693   0.335  15.945 -0.0693 -0.2103  0.7504
18098TIP3    H175709   6.625   0.274  15.918  0.5761 -0.1019 -1.2988
18098TIP3    H275710   6.648   0.397  16.003 -1.7245 -0.1558 -0.5166
18099TIP3   OH275711   0.751   0.482   1.942  0.1282  0.0503 -0.3981
18099TIP3    H175712   0.709   0.405   1.903  0.7212 -0.4455 -0.0775
18099TIP3    H275713   0.844   0.469   1.925  0.2903  0.3853  0.2129
18100TIP3   OH275714   1.544   4.456  15.934  0.0053 -0.2865  0.0566
18100TIP3    H175715   1.499   4.392  15.988 -1.5182  1.2256  0.6804
18100TIP3    H275716   1.492   4.461  15.854 -0.0783  0.3771  0.1435
18101TIP3   OH275717   3.586   6.687  12.236  0.0292 -0.1060 -0.4484
18101TIP3    H175718   3.636   6.619  12.280  1.3339  1.2432  0.2371
18101TIP3    H275719   3.604   6.673  12.143  0.0205 -0.8863 -0.3377
18102TIP3   OH275720   4.754   4.816  13.881  0.3509  0.0129  0.1756
18102TIP3    H175721   4.771   4.882  13.948  0.3151 -0.7771  0.9831
18102TIP3    H275722   4.659   4.815  13.872  0.4183  0.9862 -0.7960
18103TIP3   OH275723   6.481   0.143   3.458  0.1068  0.3115  0.7198
18103TIP3    H175724   6.514   0.232   3.467 -0.6402  0.5903  0.7593
18103TIP3    H275725   6.537   0.103   3.392  0.2318  0.9208  0.4544
18104TIP3   OH275726   6.451   5.764  15.006 -0.0818 -0.5301 -0.5790
18104TIP3    H175727   6.389   5.836  14.993  0.3368 -0.1384 -0.4370
18104TIP3    H275728   6.525   5.787  14.950 -0.1238 -1.0693 -0.8592
18105TIP3   OH275729   1.420   2.366   5.221 -0.4916  0.1744  0.1068
18105TIP3    H175730   1.476   2.412   5.159  0.5971  1.2649  1.8298
18105TIP3    H275731   1.414   2.277   5.186  0.0122  0.7650 -1.5770
18106TIP3   OH275732   1.552   0.369  15.555  0.3159 -0.0389 -0.3252
18106TIP3    H175733   1.604   0.449  15.564 -0.6302  0.5969 -0.3263
18106TIP3    H275734   1.490   0.372  15.628  0.0062 -0.5611 -0.5564
18107TIP3   OH275735   1.568   0.890  14.807 -0.1690  0.1019  0.1927
18107TIP3    H175736   1.488   0.880  14.859 -1.4639  0.5217 -1.6130
18107TIP3    H275737   1.610   0.969  14.843 -0.8021  0.1503  0.8634
18108TIP3   OH275738   1.941   0.278  16.696  0.4733  0.3197  0.0082
18108TIP3    H175739   1.853   0.314  16.709  0.6949  0.6751  0.5476
18108TIP3    H275740   1.947   0.204  16.757 -0.6509 -1.9069 -2.3733
18109TIP3   OH275741   6.164   1.097  11.401  0.2688  0.5465 -0.6603
18109TIP3    H175742   6.180   1.016  11.352 -0.1512 -0.3043  0.5455
18109TIP3    H275743   6.078   1.127  11.371  0.6479  0.8523 -1.4853
18110TIP3   OH275744   1.493   1.331   4.687 -0.3223  0.1461  0.5784
18110TIP3    H175745   1.498   1.422   4.716  0.2979 -0.1129  1.3449
18110TIP3    H275746   1.473   1.336   4.594  2.6082  1.1474 -0.0882
18111TIP3   OH275747   1.350   0.502  11.319  0.4837 -0.1762  0.1621
18111TIP3    H175748   1.285   0.437  11.292 -0.1961 -0.3237  2.0007
18111TIP3    H275749   1.394   0.527  11.238 -0.5243 -1.5315 -0.8537
18112TIP3   OH275750   2.442   5.034  12.194  0.0975 -0.1333 -0.1214
18112TIP3    H175751   2.379   5.096  12.158  0.8039  1.0725  0.6459
18112TIP3    H275752   2.444   4.963  12.130 -0.8904  0.5331 -0.9322
18113TIP3   OH275753   6.288   2.447  12.303 -0.4639  0.6965 -0.5093
18113TIP3    H175754   6.233   2.483  12.372  0.1272 -1.4352  1.1554
18113TIP3    H275755   6.361   2.406  12.348  1.1875  1.1982 -2.5400
18114TIP3   OH275756   3.294   6.676  12.230  0.1742 -0.7299  0.2044
18114TIP3    H175757   3.280   6.665  12.324  0.2553  0.5813  0.3873
18114TIP3    H275758   3.387   6.697  12.221 -0.0873  0.3416 -0.0447
18115TIP3   OH275759   0.951   2.716  10.721 -0.2259  0.3953  0.0541
18115TIP3    H175760   0.876   2.730  10.777  0.1511  0.5269  0.5312
18115TIP3    H275761   1.026   2.712  10.781  0.0851 -0.2794 -0.3546
18116TIP3   OH275762   3.492   3.036   1.176 -0.4115 -0.1457  0.1317
18116TIP3    H175763   3.438   2.985   1.115 -1.1807  0.4468  0.3032
18116TIP3    H275764   3.513   3.116   1.129  0.6329 -0.5165 -0.0624
18117TIP3   OH275765   3.425   5.764  11.715  0.2559  0.5053  0.3455
18117TIP3    H175766   3.334   5.757  11.743 -0.3077 -0.6859 -1.6043
18117TIP3    H275767   3.448   5.856  11.729 -0.6747  0.4706  2.4148
18118TIP3   OH275768   5.505   2.381  16.948  0.3738 -0.0963  0.1519
18118TIP3    H175769   5.535   2.415  17.033  1.3599 -1.7102  0.4901
18118TIP3    H275770   5.482   2.460  16.898 -2.2046  0.8601  2.5474
18119TIP3   OH275771   0.365   2.674  14.777  0.3226 -0.1973  0.0598
18119TIP3    H175772   0.272   2.670  14.754  0.3980 -0.8889 -0.1586
18119TIP3    H275773   0.371   2.746  14.840 -0.3625 -0.1562  0.0913
18120TIP3   OH275774   0.078   3.465  11.658 -0.2908 -0.2771  0.2435
18120TIP3    H175775   0.065   3.441  11.750 -1.1398 -0.7147  0.0115
18120TIP3    H275776   0.132   3.544  11.662 -0.2296 -0.3504  1.1147
18121TIP3   OH275777   4.150   2.991  13.285 -0.1711  0.1082 -0.1313
18121TIP3    H175778   4.175   3.027  13.370 -0.0069 -1.1888  0.3918
18121TIP3    H275779   4.078   3.048  13.256 -0.5270  0.3143  1.0784
18122TIP3   OH275780   5.493   4.951   0.942  0.2163 -0.2119 -0.1703
18122TIP3    H175781   5.562   5.010   0.912  0.1474  0.2609  0.5955
18122TIP3    H275782   5.530   4.864   0.930  0.7263  0.0168 -0.3088
18123TIP3   OH275783   1.898   4.776  17.392  0.4601 -0.1778  0.2586
18123TIP3    H175784   1.825   4.831  17.363 -0.1418 -0.1287  1.7779
18123TIP3    H275785   1.881   4.761  17.485  0.7590 -2.7106 -0.0373
18124TIP3   OH275786   1.086   1.756   1.367 -0.1717 -0.3288  0.4728
18124TIP3    H175787   1.075   1.848   1.343 -2.3249 -0.9711 -1.2698
18124TIP3    H275788   1.062   1.707   1.289  1.8067 -2.4086  1.0706
18125TIP3   OH275789   4.283   3.015   0.976 -0.0431  0.0661  0.5702
18125TIP3    H175790   4.288   3.046   0.886 -1.2979  0.7793  0.7209
18125TIP3    H275791   4.326   2.930   0.975 -2.7115 -1.4181 -1.4071
18126TIP3   OH275792   1.971   5.470   0.902 -0.2286 -0.1598 -0.2116
18126TIP3    H175793   1.966   5.402   0.969  0.2199 -0.7365 -0.7546
18126TIP3    H275794   1.886   5.469   0.859 -1.6860  2.2802  2.2865
18127TIP3   OH275795   2.291   1.495   3.790  0.3761 -0.1319  0.5334
18127TIP3    H175796   2.340   1.564   3.835  1.3652 -2.2124  2.9719
18127TIP3    H275797   2.307   1.510   3.697  2.6631  1.4462  1.0918
18128TIP3   OH275798   4.732   4.635  17.031 -0.2146 -0.0760  0.4127
18128TIP3    H175799   4.643   4.602  17.018 -0.3752 -0.2116  1.7570
18128TIP3    H275800   4.721   4.723  17.065  0.1363 -0.4427  1.5171
18129TIP3   OH275801   1.617   1.696   3.639 -0.2358  0.1965  0.2554
18129TIP3    H175802   1.609   1.764   3.706 -0.9073  1.2787 -0.8977
18129TIP3    H275803   1.705   1.708   3.602  0.4953 -0.9742  1.4924
18130TIP3   OH275804   0.529   1.109   1.604  0.0308 -0.2813  0.1952
18130TIP3    H175805   0.582   1.029   1.604  0.5439  0.0546  0.3468
18130TIP3    H275806   0.465   1.095   1.673 -0.9275 -1.2366 -0.8431
18131TIP3   OH275807   6.443   5.958  14.624  0.1423 -0.1713  0.4046
18131TIP3    H175808   6.462   6.049  14.644  0.1374  0.0246 -0.4654
18131TIP3    H275809   6.393   5.961  14.543 -1.6455 -0.8093  1.4201
18132TIP3   OH275810   1.788   5.904   0.779  0.0725  0.5050  0.4350
18132TIP3    H175811   1.758   5.898   0.688  1.9037  1.0181 -0.2444
18132TIP3    H275812   1.862   5.842   0.784  0.0434  0.5354  1.5556
18133TIP3   OH275813   4.810   1.134  17.327 -0.7017 -0.0289  0.5157
18133TIP3    H175814   4.895   1.133  17.283 -1.2309 -1.5657 -0.5707
18133TIP3    H275815   4.757   1.193  17.274 -0.5418  0.3368  0.7566
18134TIP3   OH275816   5.931   5.208   2.269  0.2646 -0.0418 -0.2563
18134TIP3    H175817   5.999   5.248   2.215  1.4014 -0.6815  0.6419
18134TIP3    H275818   5.884   5.282   2.308 -1.6344  0.4827 -3.2641
18135TIP3   OH275819   0.616   4.501   5.949 -0.0413 -0.1505  0.2758
18135TIP3    H175820   0.616   4.542   6.035 -0.3020  2.1347 -0.7332
18135TIP3    H275821   0.647   4.570   5.890  1.5953 -2.0967 -1.2920
18136TIP3   OH275822   5.003   4.446  13.752  0.1660  0.4177  0.0797
18136TIP3    H175823   5.013   4.425  13.660  2.5059 -1.4988  0.6679
18136TIP3    H275824   4.998   4.542  13.754  2.2384  0.6566 -1.9165
18137TIP3   OH275825   1.885   1.171  11.778 -0.1662 -0.0595  0.6224
18137TIP3    H175826   1.905   1.264  11.774 -0.0710 -0.0971  0.1561
18137TIP3    H275827   1.968   1.130  11.805 -0.2140 -0.0094  0.8482
18138TIP3   OH275828   4.037   0.811   0.639 -0.0482  0.3540  0.2598
18138TIP3    H175829   3.964   0.872   0.651 -0.4427 -0.2290  0.8635
18138TIP3    H275830   4.051   0.772   0.725 -2.5579 -3.4782 -0.8507
18139TIP3   OH275831   3.330   6.417  12.158 -0.4033 -0.5158 -0.1394
18139TIP3    H175832   3.315   6.510  12.176 -1.1112 -0.8482  1.0855
18139TIP3    H275833   3.321   6.410  12.063  1.4625  0.9696 -0.4889
18140TIP3   OH275834   2.727   0.770   0.362  0.0976  0.2046  0.6318
18140TIP3    H175835   2.634   0.787   0.352  0.1753  0.0679 -0.4174
18140TIP3    H275836   2.748   0.707   0.293  1.2106  1.1690  0.0632
18141TIP3   OH275837   1.937   3.409  11.008  0.0565 -0.0491 -0.2260
18141TIP3    H175838   1.960   3.365  10.926  1.9001 -1.1582  0.8370
18141TIP3    H275839   1.883   3.345  11.055  1.3277 -0.5645  0.5872
18142TIP3   OH275840   3.936   2.599   4.631 -0.7402  0.3237 -0.2253
18142TIP3    H175841   3.999   2.559   4.571 -1.3821 -2.2116  0.6399
18142TIP3    H275842   3.895   2.669   4.580  1.4300  0.8076 -1.4077
18143TIP3   OH275843   6.620   1.638  14.224 -0.0534  0.1445 -0.0325
18143TIP3    H175844   6.688   1.697  14.191  0.4353 -0.8560 -0.8447
18143TIP3    H275845   6.603   1.578  14.152 -1.2427 -0.1183  0.4448
18144TIP3   OH275846   5.146   6.511  15.042 -0.3719  0.0316  0.0249
18144TIP3    H175847   5.223   6.502  15.099 -0.7190 -0.1800  0.4721
18144TIP3    H275848   5.172   6.575  14.976 -0.2469  0.9858  0.9555
18145TIP3   OH275849   5.222   1.485  14.116  0.3612 -0.3828  0.1568
18145TIP3    H175850   5.226   1.390  14.126  1.6616 -0.3946 -0.2641
18145TIP3    H275851   5.303   1.507  14.072  0.6549  1.0791  1.3734
18146TIP3   OH275852   2.443   1.806   2.727 -0.6396  0.2375  0.2513
18146TIP3    H175853   2.538   1.805   2.715 -0.7233  1.4416 -0.7295
18146TIP3    H275854   2.411   1.868   2.661 -1.9834  0.8029  1.3691
18147TIP3   OH275855   2.913   6.617  16.921  0.9954  0.0748  0.0235
18147TIP3    H175856   2.840   6.654  16.970 -0.7243 -1.1660 -1.4789
18147TIP3    H275857   2.988   6.625  16.980 -0.3804  1.1667  1.7201
18148TIP3   OH275858   6.759   4.906   3.322  0.4861 -0.3723  0.2572
18148TIP3    H175859   6.704   4.981   3.343 -2.1594 -2.1520  0.1412
18148TIP3    H275860   6.817   4.937   3.252 -1.9679  1.0398 -1.3039
18149TIP3   OH275861   3.758   0.688  14.317 -0.3597 -0.4942 -0.0241
18149TIP3    H175862   3.787   0.683  14.226 -1.5157 -0.7002 -0.3938
18149TIP3    H275863   3.699   0.614  14.329  0.6899 -1.1763  1.2536
18150TIP3   OH275864   0.136   3.607   4.374 -0.5486  0.2155  0.0500
18150TIP3    H175865   0.046   3.616   4.342 -2.0294 -0.4122  3.5075
18150TIP3    H275866   0.126   3.596   4.469  3.1806 -0.4566  0.5117
18151TIP3   OH275867   5.842   2.401   4.260 -0.3876 -0.1278 -0.1676
18151TIP3    H175868   5.858   2.371   4.171 -1.2336 -0.0443 -0.3558
18151TIP3    H275869   5.924   2.385   4.306 -0.3093 -1.2326 -0.6743
18152TIP3   OH275870   5.500   4.581  17.357  0.6954 -0.6349  0.4071
18152TIP3    H175871   5.419   4.556  17.400  1.1154 -0.1298  1.5605
18152TIP3    H275872   5.560   4.508  17.373  0.8630 -0.4311  0.7267
18153TIP3   OH275873   6.508   0.526   4.211  0.2693 -0.6444 -0.4290
18153TIP3    H175874   6.470   0.592   4.152 -0.3406  0.0326  0.6720
18153TIP3    H275875   6.568   0.576   4.267  0.4315 -1.1663 -0.1307
18154TIP3   OH275876   2.576   6.754  13.741  0.1153  0.4940  0.0127
18154TIP3    H175877   2.487   6.774  13.714 -0.5975 -1.3441  0.9017
18154TIP3    H275878   2.576   6.767  13.835  1.1522  1.6695 -0.1164
18155TIP3   OH275879   3.706   4.719  15.958  0.4202 -0.0581 -0.4998
18155TIP3    H175880   3.780   4.722  16.019  0.2018 -0.1616 -0.2278
18155TIP3    H275881   3.721   4.640  15.906 -0.7711 -1.4880  1.1953
18156TIP3   OH275882   1.834   4.697   4.952 -0.2459 -0.4782  0.7339
18156TIP3    H175883   1.871   4.743   5.027 -2.1875 -1.3796  2.3391
18156TIP3    H275884   1.893   4.623   4.937  0.8415  0.4095  0.5345
18157TIP3   OH275885   2.302   3.095  13.022 -0.3078  0.1478  0.0653
18157TIP3    H175886   2.308   3.081  12.927 -0.4492  0.7268 -0.0351
18157TIP3    H275887   2.254   3.019  13.055  1.5994 -1.1519 -0.0307
18158TIP3   OH275888   0.468   4.217  10.569  0.2243  0.3300 -0.2674
18158TIP3    H175889   0.474   4.134  10.521  0.7519  1.2482 -1.8431
18158TIP3    H275890   0.495   4.195  10.658  0.9810 -1.0651 -0.8112
18159TIP3   OH275891   4.980   4.630  16.181  0.1155  0.0166 -0.5627
18159TIP3    H175892   5.069   4.607  16.207 -0.0787 -0.7126 -0.5066
18159TIP3    H275893   4.987   4.718  16.145  0.8467 -0.0072 -0.4906
18160TIP3   OH275894   1.974   4.467   5.103  0.4213  0.4181  0.1840
18160TIP3    H175895   1.971   4.398   5.170  1.6295  0.4644  0.3047
18160TIP3    H275896   2.056   4.452   5.057 -0.6009  0.1054 -1.6214
18161TIP3   OH275897   0.553   5.687  15.774  0.0087  0.2029 -0.0416
18161TIP3    H175898   0.533   5.683  15.681  1.9136 -0.5981 -0.4662
18161TIP3    H275899   0.490   5.750  15.809 -0.7253  0.5569 -1.8581
18162TIP3   OH275900   0.856   3.037  13.711  0.3281 -0.4780 -0.0966
18162TIP3    H175901   0.851   2.946  13.681 -1.4470 -0.2286 -0.7194
18162TIP3    H275902   0.769   3.055  13.748  0.5068  1.0605 -0.3321
18163TIP3   OH275903   3.951   6.544   1.796  0.4055  0.0630  0.3757
18163TIP3    H175904   3.948   6.584   1.883 -1.2301  0.5385  0.1326
18163TIP3    H275905   3.924   6.614   1.737  1.7711 -0.1679 -0.5736
18164TIP3   OH275906   5.250   3.792  15.620  0.5480 -0.0703 -0.0075
18164TIP3    H175907   5.231   3.875  15.664  0.8182 -0.2512  0.4706
18164TIP3    H275908   5.258   3.814  15.528 -2.2059 -0.0120 -0.2984
18165TIP3   OH275909   2.876   2.768   4.143 -0.3640 -0.0443 -0.2963
18165TIP3    H175910   2.848   2.835   4.205 -2.7579  0.1596 -1.4673
18165TIP3    H275911   2.914   2.817   4.070  1.3880 -0.2253  0.4437
18166TIP3   OH275912   0.255   5.656   5.000 -0.2073 -0.1283 -0.2543
18166TIP3    H175913   0.185   5.675   4.938  0.7454  2.3104 -0.7027
18166TIP3    H275914   0.295   5.741   5.018  0.0769 -0.8273  3.1146
18167TIP3   OH275915   0.337   3.232  16.046  0.2772  0.0119 -0.8419
18167TIP3    H175916   0.392   3.159  16.072  0.2765  0.2086 -0.2844
18167TIP3    H275917   0.335   3.227  15.950 -0.8622 -1.5463 -0.7823
18168TIP3   OH275918   3.124   2.112   3.595 -0.3348  0.2151 -0.5857
18168TIP3    H175919   3.162   2.030   3.627  2.4132  0.3246 -3.1403
18168TIP3    H275920   3.049   2.084   3.541  2.5347 -1.1977 -4.3128
18169TIP3   OH275921   5.296   6.631   4.135 -0.2416 -0.0125 -0.5808
18169TIP3    H175922   5.275   6.720   4.163  0.5094  0.4474 -1.4042
18169TIP3    H275923   5.359   6.599   4.199 -0.4097  0.0978 -0.3592
18170TIP3   OH275924   0.320   6.287  13.999 -0.3883  0.0824 -0.0422
18170TIP3    H175925   0.282   6.201  13.981 -0.5626  0.3459 -0.9877
18170TIP3    H275926   0.391   6.295  13.936 -1.1025  1.0993 -0.7435
18171TIP3   OH275927   3.665   0.690  13.386 -0.5323  0.1694  0.0568
18171TIP3    H175928   3.624   0.608  13.412 -0.6971  0.6243  1.2601
18171TIP3    H275929   3.758   0.676  13.399 -0.4489 -0.2195 -0.8791
18172TIP3   OH275930   0.382   2.234  14.681 -0.4958 -0.1709 -0.1062
18172TIP3    H175931   0.444   2.236  14.607  0.4951 -1.2573  0.6562
18172TIP3    H275932   0.314   2.296  14.656 -0.0591 -0.3162 -1.8231
18173TIP3   OH275933   3.119   1.477  15.398  0.2465  0.5282  0.2735
18173TIP3    H175934   3.139   1.388  15.428 -0.4807  1.1685  2.9812
18173TIP3    H275935   3.161   1.534  15.462  0.4834  2.1666 -1.2586
18174TIP3   OH275936   1.532   2.319  16.749 -0.2010  0.6073  0.6307
18174TIP3    H175937   1.476   2.243  16.734  3.7247 -2.5526  0.3048
18174TIP3    H275938   1.510   2.379  16.678 -0.6232 -2.1536 -1.7848
18175TIP3   OH275939   5.551   0.792  13.643  0.5168 -0.2551 -0.0364
18175TIP3    H175940   5.490   0.718  13.647  0.5463 -0.3721 -1.4196
18175TIP3    H275941   5.637   0.754  13.656  0.4831 -0.3749 -0.1733
18176TIP3   OH275942   1.934   5.143   0.126  0.2156 -0.3922  0.0529
18176TIP3    H175943   1.993   5.071   0.148 -0.3690 -0.2965  2.1981
18176TIP3    H275944   1.853   5.099   0.097  0.3611 -0.5629 -0.1002
18177TIP3   OH275945   6.397   0.106   2.969  0.1513 -0.1597  0.5427
18177TIP3    H175946   6.337   0.121   2.896 -0.9412 -1.8373  1.0425
18177TIP3    H275947   6.465   0.049   2.934 -0.1374 -0.6110  0.7047
18178TIP3   OH275948   3.989   2.723   3.973 -0.5770  0.2245 -0.1318
18178TIP3    H175949   3.974   2.694   3.883  0.5230 -0.1193 -0.2244
18178TIP3    H275950   4.084   2.721   3.983 -0.7130 -0.6532  1.3326
18179TIP3   OH275951   1.531   3.470   2.774 -0.3839 -0.5095 -0.1545
18179TIP3    H175952   1.541   3.387   2.727  2.0814 -0.9891  1.0307
18179TIP3    H275953   1.488   3.447   2.856 -1.8632 -0.1725 -0.7992
18180TIP3   OH275954   4.815   4.531  11.918 -0.3765 -0.0299  0.1272
18180TIP3    H175955   4.906   4.534  11.887 -0.5487  0.3021 -0.3669
18180TIP3    H275956   4.819   4.561  12.009 -0.4482  4.1683 -1.0266
18181TIP3   OH275957   6.419   0.979  14.568 -0.1834 -0.2641  0.1738
18181TIP3    H175958   6.441   0.968  14.476 -0.4246 -0.4206  0.1332
18181TIP3    H275959   6.348   1.043  14.568  0.0403 -0.0127  0.2777
18182TIP3   OH275960   2.925   6.042  13.821  0.4515 -0.2149  0.6907
18182TIP3    H175961   2.991   5.987  13.780 -0.3326 -1.7087  1.3540
18182TIP3    H275962   2.968   6.126  13.834  2.9524 -1.6870  2.9345
18183TIP3   OH275963   0.971   0.297  15.196  0.3321  0.0616  0.2845
18183TIP3    H175964   0.959   0.342  15.112 -0.6516  0.5370  0.6508
18183TIP3    H275965   0.984   0.368  15.259  2.5323 -0.3388  0.3588
18184TIP3   OH275966   0.585   6.065   4.926 -0.1095 -0.2750 -0.0319
18184TIP3    H175967   0.669   6.082   4.968  0.0252  1.4270 -0.9186
18184TIP3    H275968   0.597   5.981   4.881 -0.0217 -1.7842  2.5557
18185TIP3   OH275969   1.906   0.715   4.834 -0.4043  0.0628  0.4075
18185TIP3    H175970   1.885   0.791   4.889 -0.3732 -0.6416  1.4163
18185TIP3    H275971   1.822   0.671   4.821 -0.8341  1.4406 -2.0522
18186TIP3   OH275972   4.915   3.387  16.305 -0.2163  0.3902 -0.0810
18186TIP3    H175973   4.852   3.404  16.234  0.4035 -0.6437 -0.8949
18186TIP3    H275974   4.930   3.293  16.302  0.1833  0.3967  1.1426
18187TIP3   OH275975   0.714   6.418   3.915 -0.1782  0.6604  0.0875
18187TIP3    H175976   0.717   6.325   3.891 -0.1781  0.5897  0.3554
18187TIP3    H275977   0.656   6.457   3.849  1.2839  0.8230 -1.1644
18188TIP3   OH275978   0.332   1.123   1.822 -0.0014 -0.3963  0.1690
18188TIP3    H175979   0.267   1.134   1.753  1.3532 -0.7089 -1.2208
18188TIP3    H275980   0.327   1.030   1.845 -1.5552  0.0232  1.6761
18189TIP3   OH275981   2.829   6.517   0.431 -0.1685  0.2923 -0.5712
18189TIP3    H175982   2.748   6.530   0.382 -0.1301 -1.2563 -1.0943
18189TIP3    H275983   2.897   6.555   0.375 -0.5748  2.3902  0.2587
18190TIP3   OH275984   4.280   3.789   4.800 -0.2369 -0.9123 -0.2448
18190TIP3    H175985   4.342   3.733   4.846  0.1435 -0.2293  0.0890
18190TIP3    H275986   4.195   3.764   4.835 -0.0920 -1.4011 -0.2281
18191TIP3   OH275987   6.510   6.440   4.111 -0.3369 -0.3333 -0.2571
18191TIP3    H175988   6.416   6.437   4.091 -0.0576 -0.4917 -1.6236
18191TIP3    H275989   6.521   6.519   4.163 -0.9431  0.7189 -1.6802
18192TIP3   OH275990   3.874   5.241  10.980  0.1211  0.0202 -0.0601
18192TIP3    H175991   3.828   5.217  10.900  0.1952  1.3098 -0.5079
18192TIP3    H275992   3.961   5.203  10.969  0.2735  0.5486 -0.8084
18193TIP3   OH275993   3.387   1.433  11.308 -0.1352  0.4035  0.4649
18193TIP3    H175994   3.337   1.485  11.246 -0.6964 -0.2455  0.3564
18193TIP3    H275995   3.352   1.344  11.298  0.5672  0.0703  0.8811
18194TIP3   OH275996   5.421   2.169   4.117 -0.4498  0.1521 -0.8339
18194TIP3    H175997   5.496   2.135   4.068  1.5836 -3.0616  3.7778
18194TIP3    H275998   5.361   2.094   4.122 -1.0962  0.7374  0.5313
18195TIP3   OH275999   1.520   0.785   3.002  0.6895 -0.0749  0.7645
18195TIP3    H176000   1.544   0.700   2.967 -2.0776 -0.7486  0.2340
18195TIP3    H276001   1.436   0.770   3.047 -0.1140  2.4263  0.2829
18196TIP3   OH276002   4.060   3.818  11.643  0.0234 -0.2640  0.3913
18196TIP3    H176003   4.154   3.800  11.645  0.1464 -0.2458 -1.9721
18196TIP3    H276004   4.019   3.731  11.649  0.2410 -0.3764  0.2626
18197TIP3   OH276005   3.921   3.494  17.210 -0.2139  0.0429  0.5861
18197TIP3    H176006   3.881   3.559  17.152  1.0235  0.4688  0.1837
18197TIP3    H276007   3.893   3.410  17.174  1.3652  0.2639 -1.3212
18198TIP3   OH276008   4.103   2.952  16.381 -0.5448 -0.4960  0.1048
18198TIP3    H176009   4.071   3.035  16.415 -0.0875  0.0872 -0.8473
18198TIP3    H276010   4.181   2.975  16.330 -1.6874 -1.1690 -2.0856
18199TIP3   OH276011   3.378   1.047   2.814  0.1335  0.8575  0.2674
18199TIP3    H176012   3.344   1.082   2.897  0.7557  1.3144  0.3409
18199TIP3    H276013   3.446   1.109   2.789 -0.5100  1.0958 -0.9441
18200TIP3   OH276014   3.747   1.097  16.602 -0.0650  0.3159 -0.5614
18200TIP3    H176015   3.811   1.055  16.546  1.8470  1.7531  0.4308
18200TIP3    H276016   3.690   1.025  16.631  0.7405 -0.9214 -1.9011
18201TIP3   OH276017   1.699   2.903  16.607  0.0487  0.0268 -0.0229
18201TIP3    H176018   1.670   2.989  16.637 -1.5775 -0.1750 -0.9411
18201TIP3    H276019   1.715   2.915  16.513 -2.3761 -1.1729 -0.6502
18202TIP3   OH276020   5.457   6.020   0.499  0.2684 -0.7418  0.0541
18202TIP3    H176021   5.440   5.932   0.533 -1.1203 -0.4866  0.0641
18202TIP3    H276022   5.370   6.057   0.483  0.7380  1.2297  1.5903
18203TIP3   OH276023   2.490   3.770   5.268  0.2565 -0.4075 -0.1665
18203TIP3    H176024   2.522   3.745   5.181  1.3386 -1.8017  0.5750
18203TIP3    H276025   2.528   3.857   5.283  0.0394 -0.1416 -1.0893
18204TIP3   OH276026   5.994   6.656  14.588  0.2675  0.3964 -0.4286
18204TIP3    H176027   5.921   6.605  14.554  0.3527 -0.0760  0.0803
18204TIP3    H276028   6.053   6.591  14.625  1.6648  0.6201 -2.1335
18205TIP3   OH276029   2.000   0.917  15.183  0.2597 -0.0557 -0.3207
18205TIP3    H176030   2.022   0.930  15.276  0.5675 -0.0628 -0.3941
18205TIP3    H276031   2.076   0.948  15.135  0.0205  0.1362 -0.5839
18206TIP3   OH276032   3.424   5.979   1.731 -0.3047  0.5517  0.5004
18206TIP3    H176033   3.483   5.990   1.656 -0.2832  1.1472  0.5997
18206TIP3    H276034   3.365   5.909   1.704  0.1284  0.2963  0.1981
18207TIP3   OH276035   3.395   0.842   2.275  0.5303  0.5308  0.3476
18207TIP3    H176036   3.331   0.818   2.341  2.1613 -2.2683  1.0922
18207TIP3    H276037   3.480   0.825   2.316  1.6934  1.4215 -1.5332
18208TIP3   OH276038   3.285   2.050   1.398 -0.0796  0.1949  0.4222
18208TIP3    H176039   3.298   2.106   1.475  1.5451  0.3826  0.0453
18208TIP3    H276040   3.298   1.961   1.431 -2.7700 -0.0392  1.0445
18209TIP3   OH276041   5.008   3.044   5.417 -0.4630 -0.3109 -0.9363
18209TIP3    H176042   5.087   3.061   5.366  0.1435 -0.2264 -0.0041
18209TIP3    H276043   5.027   3.082   5.503 -1.7452  0.2105 -0.8643
18210TIP3   OH276044   1.041   6.540   3.898 -0.2232 -0.5846 -1.0688
18210TIP3    H176045   0.976   6.600   3.862 -0.6665 -0.5204 -0.1909
18210TIP3    H276046   1.034   6.461   3.844 -0.3811 -0.2438 -1.5569
18211TIP3   OH276047   3.854   1.002  12.882 -0.4714  0.5406  0.1911
18211TIP3    H176048   3.785   1.062  12.908 -1.3151 -0.9745  1.6130
18211TIP3    H276049   3.891   0.970  12.964  0.7149 -0.0476 -0.5317
18212TIP3   OH276050   0.913   4.411   5.164 -0.2071 -0.8282  0.1647
18212TIP3    H176051   0.868   4.492   5.189  0.1637 -0.2959 -0.8252
18212TIP3    H276052   0.995   4.413   5.214 -0.3359 -0.7412  0.3739
18213TIP3   OH276053   3.206   0.702  11.454 -0.7962 -0.0727  0.1590
18213TIP3    H176054   3.253   0.702  11.370 -1.0734  1.4687 -0.0178
18213TIP3    H276055   3.165   0.616  11.458 -1.4385  0.1029 -1.6859
18214TIP3   OH276056   1.127   0.767   4.537  0.0326  0.0728  0.0211
18214TIP3    H176057   1.119   0.811   4.452  0.5706 -0.1470 -0.1487
18214TIP3    H276058   1.142   0.837   4.600  0.4580  0.1738 -0.1869
18215TIP3   OH276059   0.026   4.663  13.696 -0.4862 -0.1937 -0.2451
18215TIP3    H176060   0.059   4.603  13.629 -2.1806 -2.4805  0.8373
18215TIP3    H276061  -0.054   4.699  13.659  1.3617  2.9432 -1.6001
18216TIP3   OH276062   5.774   5.706   3.709  0.0081 -0.8137 -0.2610
18216TIP3    H176063   5.712   5.637   3.732 -0.5882 -0.2542 -0.1405
18216TIP3    H276064   5.758   5.775   3.774 -0.7002  0.1918 -1.4613
18217TIP3   OH276065   6.170   0.651  11.773  0.3364  0.0284 -0.8371
18217TIP3    H176066   6.142   0.704  11.698 -0.5027 -1.2904 -1.4791
18217TIP3    H276067   6.115   0.573  11.770 -0.5254  0.4361  1.8347
18218TIP3   OH276068   5.950   2.021  14.793 -0.2286  0.0469  0.2003
18218TIP3    H176069   5.969   1.927  14.783  3.2512  0.4898  1.3609
18218TIP3    H276070   5.964   2.039  14.885  1.7902  2.1402 -0.4284
18219TIP3   OH276071   6.437   2.711   4.798 -0.6159  0.3379 -0.4066
18219TIP3    H176072   6.511   2.748   4.750 -1.1000 -1.2597 -2.4964
18219TIP3    H276073   6.373   2.688   4.731 -2.5439  0.5404  1.2451
18220TIP3   OH276074   4.392   6.442   5.366  0.3874 -0.3463 -0.0123
18220TIP3    H176075   4.347   6.358   5.360 -1.9639  0.7935  0.3844
18220TIP3    H276076   4.441   6.438   5.448  0.8148 -1.5294 -0.3073
18221TIP3   OH276077   4.496   5.542  15.041  0.2181 -0.2902  0.1811
18221TIP3    H176078   4.503   5.561  15.134  0.3199  0.5459  0.0128
18221TIP3    H276079   4.586   5.542  15.009  0.2999 -2.0859  0.3532
18222TIP3   OH276080   1.049   0.220  14.744  0.2011 -0.6344  0.4922
18222TIP3    H176081   1.027   0.146  14.801  2.6934 -0.7418  1.4134
18222TIP3    H276082   1.077   0.289  14.805 -0.1708  0.3940 -0.4705
18223TIP3   OH276083   4.087   2.064   1.543  0.0446 -0.0744  0.3319
18223TIP3    H176084   4.078   2.009   1.466  0.1510 -0.2320  0.4333
18223TIP3    H276085   4.178   2.054   1.570 -0.2346 -0.7939  1.0550
18224TIP3   OH276086   4.073   5.892   3.389  0.0803 -0.0697 -0.1109
18224TIP3    H176087   4.165   5.871   3.374 -0.0808  0.4998 -2.2078
18224TIP3    H276088   4.075   5.965   3.451  1.1670  1.1241 -1.4733
18225TIP3   OH276089   5.874   3.649  11.675  1.0320  0.9618 -0.7534
18225TIP3    H176090   5.782   3.633  11.654  1.5071 -0.9883 -1.6170
18225TIP3    H276091   5.877   3.652  11.771  0.0406  1.2599 -0.7299
18226TIP3   OH276092   2.833   0.482  11.004  0.1061 -0.3590  0.2482
18226TIP3    H176093   2.819   0.388  11.014 -0.2288 -0.1747  1.6596
18226TIP3    H276094   2.777   0.506  10.930  1.7402 -1.5863 -1.4942
18227TIP3   OH276095   3.699   6.491   4.800 -0.0148  0.5741  0.0318
18227TIP3    H176096   3.734   6.405   4.822  2.9633  0.2908 -4.5333
18227TIP3    H276097   3.776   6.547   4.788 -1.6269  2.7803 -0.9717
18228TIP3   OH276098   6.158   3.835  14.970 -0.1920  0.2170  0.6733
18228TIP3    H176099   6.229   3.778  15.000 -1.1499 -1.6070 -0.3578
18228TIP3    H276100   6.180   3.921  15.005  2.3097 -0.3673  0.7160
18229TIP3   OH276101   2.218   0.969  15.054 -0.0000  0.1908  0.1616
18229TIP3    H176102   2.262   1.048  15.024 -1.7299  0.7450 -1.0394
18229TIP3    H276103   2.277   0.898  15.027  0.7387  0.9546 -0.3184
18230TIP3   OH276104   6.656   5.457  13.110  0.5727  0.0613  0.2546
18230TIP3    H176105   6.701   5.377  13.082  1.5572  0.9503 -0.7846
18230TIP3    H276106   6.711   5.492  13.180  1.7007  1.2338 -1.1237
18231TIP3   OH276107   1.735   0.478   0.989 -0.3999  0.1886 -0.1910
18231TIP3    H176108   1.776   0.408   1.041 -1.1553  0.3800  0.6919
18231TIP3    H276109   1.647   0.486   1.026 -0.8707  0.5070 -1.3565
18232TIP3   OH276110   6.385   5.790   6.357  0.1919  0.8056 -0.0736
18232TIP3    H176111   6.434   5.868   6.331 -0.0465  0.6686 -0.9684
18232TIP3    H276112   6.361   5.748   6.274  1.2739 -0.8227  0.3975
18233TIP3   OH276113   4.044   0.048  11.940  0.2841  0.9069 -0.9547
18233TIP3    H176114   4.094  -0.021  11.984 -0.6468  1.6222  1.4278
18233TIP3    H276115   4.111   0.108  11.908  1.0533 -0.2390 -1.5731
18234TIP3   OH276116   0.004   4.172  13.085 -0.1717 -0.2712  1.2108
18234TIP3    H176117  -0.068   4.223  13.121 -0.9555  0.0877 -0.7516
18234TIP3    H276118   0.083   4.220  13.110 -0.8563  1.7152 -0.2229
18235TIP3   OH276119   4.445   5.121   0.991  0.6099 -0.3219  0.1196
18235TIP3    H176120   4.484   5.106   0.905  1.0493 -1.2792  0.4669
18235TIP3    H276121   4.358   5.156   0.973  0.7712 -0.3327 -0.7077
18236TIP3   OH276122   2.818   3.251  13.855  0.1621  0.3916  0.1799
18236TIP3    H176123   2.891   3.189  13.844  0.1852  0.3506  0.5560
18236TIP3    H276124   2.739   3.198  13.847  0.1841  0.1921  1.1546
18237TIP3   OH276125   4.861   3.458   6.451 -0.2532  0.4233 -0.2312
18237TIP3    H176126   4.842   3.545   6.487 -1.5654  1.4256 -3.0710
18237TIP3    H276127   4.939   3.471   6.397  1.1936 -0.8555  1.4450
18238TIP3   OH276128   6.603   3.447   0.283 -0.2251  0.3719 -0.0558
18238TIP3    H176129   6.635   3.364   0.320  1.4034  1.3365  0.8344
18238TIP3    H276130   6.608   3.435   0.189 -1.7144 -1.1420  0.0122
18239TIP3   OH276131   4.729   1.334   2.060 -0.2035 -0.1594  0.1057
18239TIP3    H176132   4.697   1.399   1.998  0.3679 -0.4188 -0.4716
18239TIP3    H276133   4.693   1.362   2.145 -0.0476  0.8520 -0.1448
18240TIP3   OH276134   2.031   1.475  14.708  0.3086 -0.0280  0.1911
18240TIP3    H176135   2.082   1.555  14.715  0.4400  0.3344 -3.1409
18240TIP3    H276136   2.096   1.407  14.688 -0.0846 -0.3430 -0.0429
18241TIP3   OH276137   3.284   2.837   2.707 -0.0044 -0.6924 -0.3170
18241TIP3    H176138   3.368   2.828   2.662 -0.0992 -0.1410 -0.6216
18241TIP3    H276139   3.222   2.789   2.651 -0.0303 -0.4366 -0.5110
18242TIP3   OH276140   2.323   1.449   3.090 -0.7718 -0.0504  0.2268
18242TIP3    H176141   2.291   1.539   3.097 -1.6513 -0.2917 -0.4927
18242TIP3    H276142   2.290   1.419   3.005 -0.7042 -1.1440  0.5772
18243TIP3   OH276143   0.582   1.660  15.384  0.5675  0.8982 -0.1272
18243TIP3    H176144   0.672   1.656  15.416  0.8616 -0.1969 -1.0136
18243TIP3    H276145   0.584   1.612  15.301 -1.3567 -1.5074  1.0839
18244TIP3   OH276146   3.718   0.060   0.894 -0.2419  0.2778  0.8668
18244TIP3    H176147   3.764   0.017   0.823 -0.5722  2.2040 -0.6104
18244TIP3    H276148   3.686  -0.011   0.949  0.0529 -1.2878 -0.8829
18245TIP3   OH276149   3.661   3.460   3.859 -0.6837  0.3914  0.2816
18245TIP3    H176150   3.730   3.394   3.848 -1.0623  0.1134 -0.4668
18245TIP3    H276151   3.588   3.427   3.807 -0.6239  1.7627 -0.7167
18246TIP3   OH276152   6.343   6.082   1.922 -0.1258 -0.2912 -0.1365
18246TIP3    H176153   6.302   6.026   1.855  0.9819 -4.1701  2.0907
18246TIP3    H276154   6.433   6.092   1.891 -0.6834  1.6803 -1.2626
18247TIP3   OH276155   2.645   3.318   0.667 -0.0751 -0.0963 -0.2497
18247TIP3    H176156   2.636   3.326   0.762  2.3332  1.9628 -0.0805
18247TIP3    H276157   2.639   3.224   0.650 -1.6873 -0.4276  1.7574
18248TIP3   OH276158   0.468   5.150  14.288  0.0652  0.3467  0.5935
18248TIP3    H176159   0.551   5.106  14.305  0.5161  0.7724 -0.4447
18248TIP3    H276160   0.403   5.079  14.287  0.8878 -0.4586 -1.8007
18249TIP3   OH276161   0.236   3.145   2.394  0.1117 -0.8118 -0.2724
18249TIP3    H176162   0.208   3.072   2.340  1.1201 -0.7763 -0.8690
18249TIP3    H276163   0.193   3.130   2.479  0.2669 -2.0568 -0.3957
18250TIP3   OH276164   2.511   1.945  16.578  0.1542 -0.0550 -0.6221
18250TIP3    H176165   2.574   2.017  16.568 -1.2364  0.9736 -2.9608
18250TIP3    H276166   2.525   1.890  16.501 -1.1589 -0.3214 -0.6961
18251TIP3   OH276167   4.438   3.177   4.183  0.1065  0.5670  0.1168
18251TIP3    H176168   4.383   3.105   4.152  0.6385  0.5763 -0.8616
18251TIP3    H276169   4.405   3.194   4.272 -0.5310 -0.3656  0.0841
18252TIP3   OH276170   3.452   0.436  15.094 -0.0909  0.4112 -0.3147
18252TIP3    H176171   3.478   0.344  15.090  0.9511  0.3979  3.4933
18252TIP3    H276172   3.359   0.436  15.069  0.5166 -1.1595 -3.0478
18253TIP3   OH276173   0.551   5.463  12.817 -0.1437 -0.6346  0.4911
18253TIP3    H176174   0.619   5.531  12.815 -0.1732 -0.5989  0.6397
18253TIP3    H276175   0.488   5.490  12.751 -0.5402 -0.1120  1.0705
18254TIP3   OH276176   0.162   5.830   1.245  0.1485 -0.1477  0.4708
18254TIP3    H176177   0.203   5.743   1.244  0.6496  0.0641  1.2442
18254TIP3    H276178   0.117   5.837   1.161 -0.2129 -1.3065  0.5519
18255TIP3   OH276179   5.041   2.567   2.689 -0.7447 -0.2374 -0.3112
18255TIP3    H176180   5.090   2.641   2.724  1.1425 -1.7343  0.3696
18255TIP3    H276181   4.997   2.603   2.611  1.5093  1.1900 -1.0312
18256TIP3   OH276182   5.551   2.237  12.592  0.4011  0.9505  0.4478
18256TIP3    H176183   5.528   2.281  12.674 -2.6834 -0.8021  0.6497
18256TIP3    H276184   5.566   2.146  12.617 -1.3480  0.2189 -0.9725
18257TIP3   OH276185   4.682   3.672  12.907  0.1218  0.1816 -0.1578
18257TIP3    H176186   4.668   3.733  12.979  2.0149 -1.8540  2.0841
18257TIP3    H276187   4.661   3.586  12.943  1.1812 -0.9342 -2.0156
18258TIP3   OH276188   4.301   0.607  13.102 -0.6358  0.4924 -0.2771
18258TIP3    H176189   4.306   0.585  13.009 -1.2689 -0.8002 -0.0290
18258TIP3    H276190   4.380   0.569  13.141 -0.1149  1.4632 -0.3427
18259TIP3   OH276191   3.593   2.805   4.395  0.2490 -0.1275 -0.5864
18259TIP3    H176192   3.553   2.826   4.479  0.1046  0.8159 -0.8826
18259TIP3    H276193   3.685   2.787   4.416  0.1747 -0.0659 -0.2012
18260TIP3   OH276194   2.285   1.260  11.697  0.9680 -0.5695  0.4183
18260TIP3    H176195   2.317   1.315  11.626 -1.5220 -2.2473 -2.2238
18260TIP3    H276196   2.254   1.321  11.764 -0.1015  1.2467 -1.6129
18261TIP3   OH276197   4.953   0.836  16.827 -0.1524 -0.0976 -0.7647
18261TIP3    H176198   4.948   0.770  16.896  1.4571 -1.3239 -1.7654
18261TIP3    H276199   4.861   0.853  16.804 -0.6631 -0.6848  0.6940
18262TIP3   OH276200   6.470   4.738   2.633 -0.3122  0.3736  0.3456
18262TIP3    H176201   6.429   4.752   2.718 -1.1578  1.0264 -0.1502
18262TIP3    H276202   6.453   4.819   2.585 -2.0437 -0.8579 -1.3069
18263TIP3   OH276203   5.183   3.244   3.150  0.2645 -0.1432  0.5251
18263TIP3    H176204   5.140   3.323   3.120  1.7986  0.7843  0.6506
18263TIP3    H276205   5.114   3.194   3.194 -0.9733  0.5811 -0.5198
18264TIP3   OH276206   0.004   3.616  15.528 -0.3683 -0.0760  0.1906
18264TIP3    H176207   0.056   3.683  15.484  1.0379 -1.7058 -0.7461
18264TIP3    H276208  -0.064   3.665  15.574  1.5630  2.1150  0.9139
18265TIP3   OH276209   5.904   1.306  12.996  0.5038 -0.1903  0.2029
18265TIP3    H176210   5.911   1.307  13.092 -0.4980 -0.8741  0.2940
18265TIP3    H276211   5.831   1.364  12.977  1.9062  1.5110 -0.3039
18266TIP3   OH276212   5.882   0.467   0.632 -0.1440  0.5367  0.4368
18266TIP3    H176213   5.868   0.553   0.670 -1.6902  0.7500 -0.5270
18266TIP3    H276214   5.796   0.426   0.632  0.6221 -1.1547  1.1726
18267TIP3   OH276215   0.629   1.059  16.764 -0.0129 -0.1549  0.9055
18267TIP3    H176216   0.539   1.036  16.788  0.5560 -1.3184  2.0682
18267TIP3    H276217   0.654   1.127  16.827  0.3331 -0.7437  1.4140
18268TIP3   OH276218   0.114   6.529   1.848 -0.7258 -0.3652 -0.1918
18268TIP3    H176219   0.063   6.589   1.793 -2.0488 -0.2500  1.0955
18268TIP3    H276220   0.193   6.578   1.871 -0.5088 -0.1480 -1.3740
18269TIP3   OH276221   3.624   0.526  16.007 -0.2078 -0.2423 -0.0321
18269TIP3    H176222   3.665   0.513  16.092 -0.9880  2.3116  0.8235
18269TIP3    H276223   3.553   0.588  16.024  1.8106  3.2678 -3.0342
18270TIP3   OH276224   3.828   6.111   1.042  0.0246  0.5925  0.5896
18270TIP3    H176225   3.816   6.145   0.953 -2.0914  1.7160  1.2555
18270TIP3    H276226   3.812   6.017   1.034  1.3842  0.4199 -0.4618
18271TIP3   OH276227   3.193   1.684  12.558  0.0170 -0.0452 -0.1434
18271TIP3    H176228   3.155   1.728  12.482  0.2981  1.7084  0.6779
18271TIP3    H276229   3.287   1.700  12.551  0.0170  0.3572  0.7041
18272TIP3   OH276230   1.380   0.514  11.708 -0.2178  0.0753  0.0124
18272TIP3    H176231   1.408   0.458  11.635  1.6120  1.9086 -0.7996
18272TIP3    H276232   1.293   0.543  11.683 -1.1521 -2.2087  0.3851
18273TIP3   OH276233   3.436   5.813   3.149  0.2919 -0.2308 -0.5737
18273TIP3    H176234   3.380   5.753   3.197  0.9556 -1.3100 -1.1170
18273TIP3    H276235   3.454   5.884   3.211 -0.9493 -0.2942 -0.1137
18274TIP3   OH276236   2.614   0.753  14.736  0.2461  0.3886 -0.2028
18274TIP3    H176237   2.540   0.805  14.707  0.5576  0.6793 -0.4877
18274TIP3    H276238   2.685   0.775  14.675  0.3831 -0.3696 -0.3298
18275TIP3   OH276239   0.886   1.603   0.887 -0.1977  0.2598  0.1625
18275TIP3    H176240   0.883   1.520   0.935  0.1720  1.0310  1.5882
18275TIP3    H276241   0.910   1.667   0.954 -2.3640  1.8210 -0.4625
18276TIP3   OH276242   6.655   2.991  11.672  0.5412  0.8085  0.5058
18276TIP3    H176243   6.571   2.978  11.628  0.4639  1.1551  0.5462
18276TIP3    H276244   6.684   3.078  11.642  1.8401 -0.1061 -1.0955
18277TIP3   OH276245   4.062   5.254  13.894  0.6631  0.4566 -0.3709
18277TIP3    H176246   4.102   5.258  13.807 -0.4121 -1.1192 -0.9634
18277TIP3    H276247   4.115   5.190  13.942 -0.0197 -0.2542 -0.5584
18278TIP3   OH276248   3.379   2.587  17.173  0.1696 -0.1729  0.6597
18278TIP3    H176249   3.300   2.641  17.168  1.3750  1.6478 -0.2277
18278TIP3    H276250   3.451   2.651  17.174  1.7075 -1.7638 -0.7333
18279TIP3   OH276251   5.134   1.352  12.533 -0.4113  0.6179 -0.5592
18279TIP3    H176252   5.191   1.358  12.610 -1.5966 -0.9006  0.5161
18279TIP3    H276253   5.068   1.287  12.557 -2.1766  1.7530 -2.0270
18280TIP3   OH276254   6.561   5.785   2.660 -0.1571  0.1380 -0.0521
18280TIP3    H176255   6.614   5.705   2.658  0.4577  0.5389 -0.3515
18280TIP3    H276256   6.603   5.840   2.726 -0.4804  0.2779  0.0389
18281TIP3   OH276257   0.871   2.292  12.494  0.1350  0.4195 -0.6075
18281TIP3    H176258   0.916   2.357  12.440  0.7322  0.1257 -0.4691
18281TIP3    H276259   0.778   2.307  12.476  0.3289 -0.1461 -2.2737
18282TIP3   OH276260   0.436   6.771  16.604  0.4564 -0.3089 -0.7579
18282TIP3    H176261   0.360   6.720  16.576 -0.8785  1.1405  0.0669
18282TIP3    H276262   0.435   6.848  16.548  0.6066  0.3024  0.0658
18283TIP3   OH276263   5.320   2.585  17.290  0.0799 -0.1318 -0.0528
18283TIP3    H176264   5.312   2.552  17.379  0.1175  2.6837  1.1077
18283TIP3    H276265   5.237   2.630  17.274  0.6066  0.5795 -0.8927
18284TIP3   OH276266   3.901   3.790  13.613 -0.2879  0.2558 -0.1426
18284TIP3    H176267   3.966   3.847  13.572 -0.0334  0.4602  0.5404
18284TIP3    H276268   3.923   3.702  13.584  0.9371  0.1950  0.9148
18285TIP3   OH276269   4.455   1.284  12.327  0.2009 -0.4144  0.0602
18285TIP3    H176270   4.497   1.259  12.409 -0.1596  1.3645  0.8264
18285TIP3    H276271   4.508   1.356  12.294  0.1267 -0.8696 -1.1124
18286TIP3   OH276272   5.769   3.738   6.214 -0.0186 -0.1656  0.6319
18286TIP3    H176273   5.753   3.646   6.195  2.0727 -0.9391  2.2532
18286TIP3    H276274   5.686   3.770   6.250 -1.8309 -0.4479 -2.7953
18287TIP3   OH276275   2.970   2.068  15.449  0.3662  0.1652 -0.3719
18287TIP3    H176276   3.025   2.076  15.527  0.5920 -0.0656 -0.5052
18287TIP3    H276277   2.981   2.152  15.404  1.4337 -0.2600 -0.9271
18288TIP3   OH276278   0.362   6.325  14.537  0.6393 -0.2011 -0.3920
18288TIP3    H176279   0.268   6.307  14.533 -0.0478  2.3828  1.4371
18288TIP3    H276280   0.399   6.275  14.464 -2.3762  0.1254 -2.3278
18289TIP3   OH276281   3.891   2.791  11.283 -0.2494 -0.1824  0.2987
18289TIP3    H176282   3.895   2.856  11.353  1.3506  0.6482 -0.5080
18289TIP3    H276283   3.866   2.840  11.205  1.4709 -0.3819 -0.4293
18290TIP3   OH276284   3.459   5.086   5.863 -0.3211  0.0316  0.2402
18290TIP3    H176285   3.450   5.036   5.944 -1.8467 -0.7944 -0.3933
18290TIP3    H276286   3.486   5.021   5.798 -0.6873  0.3598 -0.2429
18291TIP3   OH276287   5.038   3.619  17.334 -0.0189 -0.5629 -0.5543
18291TIP3    H176288   5.086   3.701  17.327 -0.5452 -0.2983 -1.1397
18291TIP3    H276289   4.970   3.636  17.399 -1.4058  0.1217 -2.1287
18292TIP3   OH276290   1.209   2.008  15.725  0.9025  0.6344 -0.2421
18292TIP3    H176291   1.237   1.916  15.720  0.7443  0.3538  2.5660
18292TIP3    H276292   1.279   2.056  15.681  0.6226 -0.8247 -2.4556
18293TIP3   OH276293   4.806   3.721   1.675 -0.0422 -0.5789  0.0270
18293TIP3    H176294   4.809   3.640   1.625  1.5506 -0.6632  0.2254
18293TIP3    H276295   4.866   3.780   1.630 -0.5265  0.2012  0.3806
18294TIP3   OH276296   3.932   0.968   4.336 -0.7852 -0.0432 -0.2613
18294TIP3    H176297   3.958   1.054   4.370  0.5366 -0.5881  0.1797
18294TIP3    H276298   3.921   0.982   4.242  2.1513  0.0726 -0.6875
18295TIP3   OH276299   1.464   6.507   1.261 -0.4276 -0.0622  0.0673
18295TIP3    H176300   1.406   6.547   1.196 -1.9525 -1.3903  0.5181
18295TIP3    H276301   1.446   6.413   1.253  0.6193 -0.3812  1.2404
18296TIP3   OH276302   5.558   6.346  11.570 -0.7651 -0.2402 -0.3889
18296TIP3    H176303   5.511   6.263  11.565  0.7307 -1.2340  1.1227
18296TIP3    H276304   5.611   6.348  11.490 -2.3704  0.3177 -1.4899
18297TIP3   OH276305   3.359   6.754  12.919 -0.0535 -0.0720 -0.7503
18297TIP3    H176306   3.327   6.664  12.915  3.4781 -1.4615 -1.3226
18297TIP3    H276307   3.363   6.783  12.827  1.0995 -0.2668 -0.7722
18298TIP3   OH276308   0.703   4.412   5.519  0.5402 -0.5553  0.0471
18298TIP3    H176309   0.762   4.363   5.577  1.0472  0.5939  0.5479
18298TIP3    H276310   0.760   4.475   5.475 -0.2845  0.5599  0.5191
18299TIP3   OH276311   2.786   2.385  14.767 -0.3065 -0.3352  0.5045
18299TIP3    H176312   2.728   2.310  14.761 -0.2689 -0.3541  0.3679
18299TIP3    H276313   2.855   2.367  14.703 -1.2671  0.6554 -0.8706
18300TIP3   OH276314   4.528   1.802   5.522 -0.0587  0.5209 -0.0122
18300TIP3    H176315   4.564   1.828   5.607 -0.5124 -0.2442  0.4197
18300TIP3    H276316   4.433   1.807   5.533 -0.1169  1.0796 -0.6899
18301TIP3   OH276317   5.998   3.524   2.275  0.5282  0.1832  0.2655
18301TIP3    H176318   5.940   3.452   2.298  0.1954 -0.0190 -1.1082
18301TIP3    H276319   5.944   3.603   2.285  1.0149  0.3247  2.1799
18302TIP3   OH276320   5.243   1.965  16.537  0.7115  0.2981  0.1263
18302TIP3    H176321   5.261   2.059  16.549  2.0850  0.0755 -0.0590
18302TIP3    H276322   5.191   1.961  16.457  0.5654  0.9086  0.1849
18303TIP3   OH276323   3.099   2.968   2.903 -0.2719 -0.5590  0.1136
18303TIP3    H176324   3.173   2.923   2.860 -0.5478 -1.4213  0.5279
18303TIP3    H276325   3.091   3.050   2.854  1.2141 -0.2575  0.3048
18304TIP3   OH276326   0.794   2.644  11.854 -0.5406  0.3984  0.1225
18304TIP3    H176327   0.879   2.685  11.869 -0.0751  0.0590 -1.4176
18304TIP3    H276328   0.778   2.592  11.932  0.7385  0.3363  0.3633
18305TIP3   OH276329   2.085   0.094   5.843  0.0493 -0.8777 -0.1132
18305TIP3    H176330   2.146   0.168   5.849  0.6111 -1.2643 -0.8252
18305TIP3    H276331   2.105   0.040   5.919 -0.7989  0.0092  0.7652
18306TIP3   OH276332   0.115   2.199   3.871  0.0554 -0.0674 -0.0169
18306TIP3    H176333   0.045   2.192   3.805  1.0898  0.5478 -1.2360
18306TIP3    H276334   0.186   2.144   3.836 -0.3300 -1.9852  1.9826
18307TIP3   OH276335   0.626   5.912  13.637 -0.7285 -0.5609  0.1071
18307TIP3    H176336   0.622   5.818  13.655 -0.3689 -0.4998  0.5299
18307TIP3    H276337   0.670   5.949  13.713  0.1736 -0.2004 -0.5582
18308TIP3   OH276338   3.441   5.417  14.525  0.2943 -0.5912 -0.1908
18308TIP3    H176339   3.490   5.350  14.573  0.3380 -0.0698  0.5114
18308TIP3    H276340   3.492   5.497  14.538 -0.0151 -0.3187 -0.6202
18309TIP3   OH276341   2.648   2.049  15.763 -0.6788  0.2565 -0.2276
18309TIP3    H176342   2.598   2.119  15.805 -1.1963 -1.3911  2.0623
18309TIP3    H276343   2.739   2.065  15.788 -1.1592 -1.7011  3.2758
18310TIP3   OH276344   5.538   6.561   0.195  0.3380  0.8879 -0.3606
18310TIP3    H176345   5.474   6.516   0.252 -0.2340  1.7528 -0.3046
18310TIP3    H276346   5.621   6.518   0.214 -0.4137 -1.1384 -1.3460
18311TIP3   OH276347   3.712   4.426  11.818  0.2842 -0.5355 -0.3011
18311TIP3    H176348   3.768   4.358  11.778  1.5049  1.0715 -1.4695
18311TIP3    H276349   3.656   4.378  11.878  2.6667 -2.3458  0.6653
18312TIP3   OH276350   6.198   6.036  16.394 -0.3497  0.3882 -0.1928
18312TIP3    H176351   6.118   6.051  16.444 -0.8824 -1.2243 -0.4972
18312TIP3    H276352   6.169   5.990  16.315  1.0926 -3.1048  1.0923
18313TIP3   OH276353   5.379   5.035  12.878  0.1955  0.2477 -0.3241
18313TIP3    H176354   5.396   4.942  12.894  2.4183  0.3868 -1.5303
18313TIP3    H276355   5.406   5.079  12.958  0.4445 -0.0152 -0.2631
18314TIP3   OH276356   3.254   1.760   5.823  0.0732 -0.0258  0.0394
18314TIP3    H176357   3.328   1.735   5.880  0.3388  0.7857  0.0644
18314TIP3    H276358   3.184   1.784   5.884  0.1342  0.1900  0.0270
18315TIP3   OH276359   4.218   4.798  10.813  0.3909 -0.8273 -0.0866
18315TIP3    H176360   4.313   4.806  10.803  0.1655  3.5154 -1.0298
18315TIP3    H276361   4.187   4.775  10.725  0.4931  1.0556 -0.6693
18316TIP3   OH276362   4.184   6.109  15.789  0.3671  0.0776  0.7873
18316TIP3    H176363   4.179   6.135  15.881  0.6587 -0.2444  0.8965
18316TIP3    H276364   4.129   6.172  15.743 -2.5000 -1.6653  1.5908
18317TIP3   OH276365   4.666   3.804   0.312 -0.1553 -0.3517  0.0408
18317TIP3    H176366   4.686   3.897   0.299  0.9099 -0.7982 -1.8798
18317TIP3    H276367   4.589   3.804   0.369 -0.8404  1.7322 -0.7812
18318TIP3   OH276368   6.687   2.467   1.763  0.0092 -0.6045 -0.4627
18318TIP3    H176369   6.669   2.556   1.732  1.8333  0.0417  0.2234
18318TIP3    H276370   6.718   2.421   1.686 -1.0335 -0.7007 -0.8437
18319TIP3   OH276371   6.399   3.912  13.175  0.4070 -0.6542 -0.1241
18319TIP3    H176372   6.369   3.946  13.091 -1.0689  1.1209  1.0431
18319TIP3    H276373   6.327   3.857  13.205 -0.1791  0.6822  1.0357
18320TIP3   OH276374   2.783   2.891   5.569 -0.1708 -0.6205  0.8345
18320TIP3    H176375   2.785   2.853   5.481  0.2771 -0.7628  0.9020
18320TIP3    H276376   2.690   2.891   5.594 -0.5657  1.2795 -0.4397
18321TIP3   OH276377   2.700   0.375  16.981 -0.3818  0.4281 -0.3990
18321TIP3    H176378   2.610   0.405  16.992 -0.0684  1.7072 -1.0369
18321TIP3    H276379   2.693   0.281  16.966 -1.7879  0.7660 -2.3199
18322TIP3   OH276380   3.442   3.480   4.759  0.0856 -0.6307  0.3210
18322TIP3    H176381   3.498   3.418   4.713 -1.7636 -0.9096 -1.7214
18322TIP3    H276382   3.356   3.438   4.760 -0.2238 -0.1670  3.2274
18323TIP3   OH276383   3.766   3.736   0.661  0.3193  0.8304  0.1080
18323TIP3    H176384   3.798   3.785   0.736  1.0026  3.0259 -1.5375
18323TIP3    H276385   3.737   3.802   0.598 -3.1132 -0.9283 -0.4523
18324TIP3   OH276386   0.509   1.365  11.498 -0.5698 -0.5095  0.1439
18324TIP3    H176387   0.452   1.355  11.421 -0.2841 -1.4650  0.0366
18324TIP3    H276388   0.536   1.275  11.518 -0.7470 -0.2784  1.4506
18325TIP3   OH276389   4.984   0.836  12.962 -0.4682  0.3245 -0.2003
18325TIP3    H176390   5.076   0.835  12.987 -0.4772 -1.4786 -0.0646
18325TIP3    H276391   4.937   0.828  13.044 -0.7418  1.1033 -0.2809
18326TIP3   OH276392   2.608   1.976  13.112 -0.2652 -0.3310  0.1193
18326TIP3    H176393   2.685   1.985  13.056 -1.3101 -0.2815 -1.3418
18326TIP3    H276394   2.615   1.887  13.147 -1.5778 -1.8788 -3.2093
18327TIP3   OH276395   3.324   2.022   0.959 -0.3302  0.6649 -0.1377
18327TIP3    H176396   3.270   1.946   0.939  2.3311 -1.3615 -0.1628
18327TIP3    H276397   3.287   2.058   1.040 -0.8377 -1.5447  0.6699
18328TIP3   OH276398   0.382   0.637  16.055 -0.1840  0.0380 -0.2798
18328TIP3    H176399   0.429   0.720  16.049 -0.2524  0.0548 -0.6062
18328TIP3    H276400   0.447   0.571  16.031 -0.0345 -0.0379  0.3111
18329TIP3   OH276401   4.610   4.328   3.531 -0.0145  0.2154 -0.1822
18329TIP3    H176402   4.598   4.264   3.461  0.9573  1.8600 -1.9332
18329TIP3    H276403   4.699   4.313   3.562 -0.2655 -0.1738  0.3569
18330TIP3   OH276404   6.119   3.210  15.809 -0.0370 -0.5824 -0.8856
18330TIP3    H176405   6.055   3.280  15.799  0.4573 -0.2793 -2.2776
18330TIP3    H276406   6.123   3.193  15.903  0.6414  2.0317 -0.3707
18331TIP3   OH276407   1.504   3.415   5.312 -1.0164  0.2296  0.0239
18331TIP3    H176408   1.498   3.442   5.220  0.6184  0.1444 -0.1270
18331TIP3    H276409   1.496   3.320   5.310  0.3819  0.1031 -0.1875
18332TIP3   OH276410   4.900   2.130  12.758 -0.1359 -0.4164 -0.4668
18332TIP3    H176411   4.935   2.216  12.781 -0.4058 -0.4176 -0.0464
18332TIP3    H276412   4.887   2.134  12.663 -1.3542  0.4548 -0.2895
18333TIP3   OH276413   5.430   0.972   4.640  0.0793 -0.2412  0.0945
18333TIP3    H176414   5.476   0.892   4.613 -1.1156 -1.0395  0.3131
18333TIP3    H276415   5.338   0.952   4.623 -0.1985  1.3226 -0.3793
18334TIP3   OH276416   5.255   5.201  10.979  0.1398 -0.4647  0.0189
18334TIP3    H176417   5.163   5.212  10.953  0.1059  2.3564  1.0029
18334TIP3    H276418   5.254   5.208  11.075  1.3870 -0.2507  0.0339
18335TIP3   OH276419   0.641   1.335  14.172  0.0751  0.1913 -0.0543
18335TIP3    H176420   0.706   1.327  14.242 -1.0094 -0.5245  0.9087
18335TIP3    H276421   0.571   1.274  14.196 -0.2959 -0.1360 -1.8177
18336TIP3   OH276422   2.978   0.128   5.441  0.0655  0.0520 -0.0829
18336TIP3    H176423   2.946   0.142   5.530 -1.7343  0.7275 -0.7902
18336TIP3    H276424   2.989   0.033   5.434  3.3215  0.1306  1.8071
18337TIP3   OH276425   6.460   2.373   6.944  0.1039 -0.2374 -0.6673
18337TIP3    H176426   6.507   2.440   6.993  1.0100  0.5566 -2.5456
18337TIP3    H276427   6.397   2.421   6.891 -1.6484 -1.1623  0.4645
18338TIP3   OH276428   2.400   4.167  13.084 -0.3548 -0.6184 -0.3398
18338TIP3    H176429   2.452   4.147  13.162 -0.7068 -1.4578 -0.3139
18338TIP3    H276430   2.464   4.177  13.014  0.2663  3.0909  0.5527
18339TIP3   OH276431   1.876   2.466   3.568  0.0881 -0.8859  0.0351
18339TIP3    H176432   1.879   2.518   3.648  0.5312 -0.6783 -0.1149
18339TIP3    H276433   1.791   2.422   3.571  0.2388 -1.1382  0.7816
18340TIP3   OH276434   2.677   5.351   4.314  0.4923 -0.2083 -0.5240
18340TIP3    H176435   2.734   5.400   4.374  0.1890  0.2457 -0.6013
18340TIP3    H276436   2.631   5.288   4.370 -0.7543  1.0731 -0.0328
18341TIP3   OH276437   0.854   6.115  11.917 -0.0779  0.2380  0.2598
18341TIP3    H176438   0.858   6.208  11.939  1.4815  0.5097 -0.9458
18341TIP3    H276439   0.946   6.089  11.905 -0.5220 -1.2607 -0.1699
18342TIP3   OH276440   4.732   4.534  13.618  0.7730 -0.0191 -0.4661
18342TIP3    H176441   4.729   4.630  13.621  5.1424  0.5166 -3.4715
18342TIP3    H276442   4.734   4.514  13.525  1.4309 -2.9735  0.1088
18343TIP3   OH276443   2.750   0.904   1.634  0.4562  0.0721  0.3262
18343TIP3    H176444   2.805   0.828   1.614 -1.5700 -1.2141 -0.6934
18343TIP3    H276445   2.809   0.979   1.627  1.5603 -0.9518 -3.3699
18344TIP3   OH276446   3.443   5.386  16.294 -0.1770 -0.5406  0.5314
18344TIP3    H176447   3.453   5.292  16.306  0.6717 -0.6435 -0.7298
18344TIP3    H276448   3.528   5.414  16.259 -0.7122  0.5405  0.0641
18345TIP3   OH276449   1.929   3.386   3.943 -0.1588  0.1371 -0.2639
18345TIP3    H176450   1.902   3.387   3.851  1.3233 -1.2622 -0.7562
18345TIP3    H276451   1.985   3.463   3.951 -1.4115  1.0684 -0.1325
18346TIP3   OH276452   1.685   0.464  16.774 -0.0358  0.2202 -0.9146
18346TIP3    H176453   1.713   0.532  16.835  3.5437 -0.6340 -1.3929
18346TIP3    H276454   1.691   0.383  16.825  1.1601 -0.2953 -1.8464
18347TIP3   OH276455   3.524   4.038   2.772  0.4313  0.0784 -0.2758
18347TIP3    H176456   3.601   4.055   2.718 -0.5574  0.8138 -1.4771
18347TIP3    H276457   3.500   4.123   2.807  0.4075 -0.2230  0.4678
18348TIP3   OH276458   1.272   5.420  12.139 -0.4026 -0.4996  0.2557
18348TIP3    H176459   1.227   5.469  12.208  0.7562  1.2449 -0.1591
18348TIP3    H276460   1.214   5.346  12.121 -1.2221 -0.4592  2.3788
18349TIP3   OH276461   3.754   2.365  13.725  0.2202 -0.3134 -0.3646
18349TIP3    H176462   3.758   2.357  13.820  0.3989  1.3498 -0.2051
18349TIP3    H276463   3.684   2.305  13.699  0.0100 -0.6095  0.8338
18350TIP3   OH276464   0.011   6.221  13.610  0.0171  0.2092 -0.1049
18350TIP3    H176465   0.054   6.271  13.540 -0.3049 -2.7725 -2.6803
18350TIP3    H276466   0.083   6.184  13.660  0.2670  1.4040  0.4623
18351TIP3   OH276467   6.086   1.834   1.437  0.3532 -0.2826 -0.5538
18351TIP3    H176468   6.074   1.770   1.368 -0.9274  0.6472 -1.2232
18351TIP3    H276469   6.052   1.792   1.516  0.9695 -0.9971 -0.6597
18352TIP3   OH276470   4.048   5.126  15.803 -0.9488  0.2270 -0.2378
18352TIP3    H176471   4.054   5.217  15.774 -2.7358  0.9031  1.2857
18352TIP3    H276472   4.031   5.076  15.723 -3.8021  1.7798 -0.7504
18353TIP3   OH276473   4.076   2.145  14.896  0.4259  0.0607 -0.4759
18353TIP3    H176474   4.098   2.235  14.873 -0.0536  0.7471  1.5609
18353TIP3    H276475   4.125   2.128  14.976 -1.7596 -0.4290  0.8310
18354TIP3   OH276476   5.122   6.277   3.760 -0.3533 -0.0530 -0.0379
18354TIP3    H176477   5.110   6.349   3.822 -1.1016  0.7943 -1.1298
18354TIP3    H276478   5.117   6.318   3.674  3.2127 -0.7918 -0.7376
18355TIP3   OH276479   2.415   0.136   0.649 -0.4375 -0.0512 -0.3020
18355TIP3    H176480   2.423   0.046   0.679  0.3200 -0.5108 -1.8052
18355TIP3    H276481   2.366   0.180   0.719  0.2666 -1.3132  1.0316
18356TIP3   OH276482   2.510   4.586  13.946 -0.0204  0.2004 -0.5268
18356TIP3    H176483   2.497   4.680  13.935 -0.6359  0.6165  2.8291
18356TIP3    H276484   2.604   4.573  13.935  0.3943  1.6031  0.9981
18357TIP3   OH276485   2.435   5.013  10.807  0.4461 -0.0095 -0.0408
18357TIP3    H176486   2.395   4.928  10.788  1.1268 -0.6348  1.2234
18357TIP3    H276487   2.363   5.066  10.842  0.0626 -0.1318 -0.6417
18358TIP3   OH276488   1.929   4.273   0.483  0.2038 -0.1216  0.0549
18358TIP3    H176489   1.869   4.277   0.557 -1.8560 -1.8702 -1.3950
18358TIP3    H276490   2.017   4.274   0.522 -0.7940 -1.6803  2.5692
18359TIP3   OH276491   4.492   2.773  10.569  0.0957  0.2113  0.0538
18359TIP3    H176492   4.445   2.704  10.520 -0.7923 -0.1080  1.3130
18359TIP3    H276493   4.489   2.849  10.511 -0.6847 -0.2415 -0.5247
18360TIP3   OH276494   1.878   5.278  11.981 -0.7334  0.8438 -0.3689
18360TIP3    H176495   1.837   5.360  12.008  1.2754  2.1328 -0.9937
18360TIP3    H276496   1.864   5.273  11.886  0.5364  1.3489 -0.6082
18361TIP3   OH276497   1.819   4.214   4.977  0.1860 -0.6847  0.1060
18361TIP3    H176498   1.807   4.309   4.975  0.1617 -0.6972 -0.7465
18361TIP3    H276499   1.898   4.198   4.926  0.1788 -1.1231  0.2217
18362TIP3   OH276500   1.229   0.199  11.214 -0.2029 -0.2930  0.0509
18362TIP3    H176501   1.192   0.196  11.126  0.8779  0.3780 -0.4527
18362TIP3    H276502   1.155   0.185  11.272 -1.2540  0.9929 -0.9133
18363TIP3   OH276503   0.090   5.678   2.796  0.0292  0.3197  0.2914
18363TIP3    H176504   0.160   5.722   2.748  0.4805 -0.3968  0.2821
18363TIP3    H276505   0.022   5.663   2.731 -0.3174  1.3654  0.3830
18364TIP3   OH276506   1.839   3.376   3.694  0.4477  0.8836 -0.5132
18364TIP3    H176507   1.749   3.345   3.682  0.5678  1.1227 -2.3131
18364TIP3    H276508   1.880   3.366   3.608  2.5413 -0.3723  0.5478
18365TIP3   OH276509   0.857   3.939   2.304  0.1477  0.5398 -0.4891
18365TIP3    H176510   0.821   3.882   2.373  0.8496  0.0191 -0.5402
18365TIP3    H276511   0.951   3.935   2.318  0.1700  3.7290  1.1217
18366TIP3   OH276512   1.589   2.306  15.167 -0.0937 -0.2722 -0.0105
18366TIP3    H176513   1.608   2.340  15.080  0.4680 -2.9381 -1.0261
18366TIP3    H276514   1.498   2.278  15.162 -0.4241  0.6168  0.6783
18367TIP3   OH276515   4.301   2.096  16.696  0.0179 -0.0146  0.3415
18367TIP3    H176516   4.228   2.061  16.747 -0.6669  0.8759  0.0009
18367TIP3    H276517   4.296   2.191  16.710  0.5936  0.1272 -0.3687
18368TIP3   OH276518   2.177   5.492  11.639  0.0795  0.1699  0.0492
18368TIP3    H176519   2.191   5.520  11.549  2.4577 -0.5895  0.0859
18368TIP3    H276520   2.263   5.502  11.680 -0.9691  0.6105  2.2837
18369TIP3   OH276521   0.925   2.225  16.915  0.5397 -0.1243  0.5129
18369TIP3    H176522   0.974   2.263  16.988 -0.6111 -0.3068  1.4044
18369TIP3    H276523   0.846   2.278  16.909 -0.0958 -1.0605  0.3985
18370TIP3   OH276524   2.357   5.554   1.267  0.8101  0.7566 -0.4795
18370TIP3    H176525   2.359   5.521   1.177  0.4183  0.2101 -0.2942
18370TIP3    H276526   2.291   5.500   1.311  0.8714  1.1369  0.0907
18371TIP3   OH276527   2.632   6.615   5.306 -0.2145  0.1179  0.0383
18371TIP3    H176528   2.565   6.547   5.319 -0.6577  0.2789 -1.2971
18371TIP3    H276529   2.630   6.666   5.387  0.5374 -1.7791  1.3286
18372TIP3   OH276530   5.643   5.431   3.769 -0.0443 -0.2022  0.2427
18372TIP3    H176531   5.684   5.346   3.752  0.6432  0.2546 -0.4714
18372TIP3    H276532   5.577   5.414   3.836  2.1803 -0.7299  2.3976
18373TIP3   OH276533   4.961   4.975   4.339  0.4246 -0.7692 -0.3913
18373TIP3    H176534   4.887   4.919   4.316  0.4887 -0.2110 -2.1619
18373TIP3    H276535   4.921   5.053   4.378  0.3352 -1.9484  2.0430
18374TIP3   OH276536   6.140   3.201   3.743  0.1420  0.3456 -0.0167
18374TIP3    H176537   6.150   3.198   3.648 -0.6808  1.5047 -0.1615
18374TIP3    H276538   6.124   3.293   3.763 -0.9121 -0.0458  1.1134
18375TIP3   OH276539   3.680   5.694   3.331  0.6066 -0.1687 -0.4477
18375TIP3    H176540   3.727   5.749   3.269  2.9349 -0.1670  1.2095
18375TIP3    H276541   3.743   5.627   3.357  0.1672  0.4808  2.6921
18376TIP3   OH276542   2.326   1.143  16.963 -0.0667 -0.3624  0.6188
18376TIP3    H176543   2.297   1.188  16.883  0.6916  0.2608  0.6855
18376TIP3    H276544   2.269   1.178  17.032 -1.5466 -1.7935  0.1847
18377TIP3   OH276545   3.442   2.020   0.562  0.0149  0.0678  0.1892
18377TIP3    H176546   3.347   2.025   0.550  0.1315  1.2163 -0.2967
18377TIP3    H276547   3.469   1.947   0.506 -0.5777 -0.2794  0.3423
18378TIP3   OH276548   5.984   1.223  15.884  0.1644  0.3509  0.1888
18378TIP3    H176549   6.067   1.263  15.909  0.9079 -1.2075  0.3053
18378TIP3    H276550   5.921   1.257  15.948  0.2283  3.0869 -1.0572
18379TIP3   OH276551   1.864   2.768   3.463 -0.5551 -0.9164  0.9815
18379TIP3    H176552   1.929   2.819   3.414  0.9115 -0.9292  2.7930
18379TIP3    H276553   1.865   2.682   3.421 -1.7042 -0.0439 -0.9372
18380TIP3   OH276554   1.590   6.321   3.755 -0.6286  0.1549  0.2118
18380TIP3    H176555   1.621   6.244   3.801 -0.7511 -0.8431 -1.3038
18380TIP3    H276556   1.667   6.357   3.712 -0.7667  0.2335  0.0256
18381TIP3   OH276557   2.238   1.916  12.819  0.1135 -0.4458  0.0626
18381TIP3    H176558   2.298   1.946  12.887  0.8068 -3.4627  0.9483
18381TIP3    H276559   2.159   1.891  12.866 -0.1678 -0.6522 -0.5176
18382TIP3   OH276560   4.146   0.667   0.928  0.2049  0.6090 -0.0740
18382TIP3    H176561   4.187   0.745   0.965  0.3077  0.4154  0.2251
18382TIP3    H276562   4.127   0.612   1.004  1.2141 -0.1822 -0.3642
18383TIP3   OH276563   4.914   0.491  14.465  0.2148  0.6483 -0.0357
18383TIP3    H176564   5.009   0.503  14.464  0.3055  0.4249  1.7401
18383TIP3    H276565   4.882   0.565  14.517 -0.3415 -0.4339  1.2210
18384TIP3   OH276566   0.912   4.034   5.838 -0.4587  0.2084  0.2652
18384TIP3    H176567   0.876   3.973   5.903 -0.8795  0.3300  0.1537
18384TIP3    H276568   0.977   4.085   5.886  0.8357 -1.1759  0.0532
18385TIP3   OH276569   2.523   4.234  10.985  1.2124 -0.0569 -0.1338
18385TIP3    H176570   2.586   4.299  10.952  1.6309 -1.1654 -1.6379
18385TIP3    H276571   2.456   4.229  10.916  1.1785 -1.1853 -0.0365
18386TIP3   OH276572   3.715   4.828   0.150  0.2783  0.2622  0.3300
18386TIP3    H176573   3.766   4.747   0.142 -0.9154 -0.5308  0.4849
18386TIP3    H276574   3.692   4.851   0.060  1.2613  0.8793  0.2187
18387TIP3   OH276575   0.780   2.897   2.802  0.0184 -0.0934  0.4560
18387TIP3    H176576   0.749   2.813   2.768  1.8168 -0.2301 -0.9854
18387TIP3    H276577   0.836   2.875   2.876 -1.5435  0.0471  1.7547
18388TIP3   OH276578   6.383   1.905   0.672 -0.8818 -0.2635 -0.2584
18388TIP3    H176579   6.473   1.874   0.682 -0.4841  0.7884 -0.3759
18388TIP3    H276580   6.336   1.867   0.745 -0.1792 -0.3036  0.1816
18389TIP3   OH276581   0.537   3.490  12.062  0.0494 -0.3415  0.3489
18389TIP3    H176582   0.494   3.448  12.136 -0.1972  0.0812  0.4488
18389TIP3    H276583   0.477   3.560  12.036  1.1204  0.9115  1.1252
18390TIP3   OH276584   0.599   4.674  14.403 -0.3125 -0.9257 -0.0790
18390TIP3    H176585   0.563   4.752  14.445 -1.2930 -0.8083 -1.0902
18390TIP3    H276586   0.522   4.629  14.368  0.4855 -0.8007 -2.0905
18391TIP3   OH276587   3.491   5.881   4.675  0.4683  0.1241  0.5340
18391TIP3    H176588   3.495   5.858   4.582 -0.3261  3.1119 -0.3459
18391TIP3    H276589   3.399   5.899   4.692  0.7319  0.4996  1.6942
18392TIP3   OH276590   5.485   2.597   5.167  0.1376  0.3863 -0.3727
18392TIP3    H176591   5.454   2.622   5.255 -2.2938 -0.9423 -0.7711
18392TIP3    H276592   5.441   2.658   5.108  0.7150  0.4279 -0.7643
18393TIP3   OH276593   5.615   5.844   2.461  0.2507 -0.3025  0.4592
18393TIP3    H176594   5.687   5.902   2.436  0.9127 -0.6623  1.4593
18393TIP3    H276595   5.542   5.903   2.479 -0.1121 -0.0083 -1.7604
18394TIP3   OH276596   6.682   0.139   0.438 -0.5220  0.5904  0.6832
18394TIP3    H176597   6.741   0.168   0.508 -2.1308  1.8391  1.5989
18394TIP3    H276598   6.695   0.203   0.368 -0.5905  0.7144  0.7824
18395TIP3   OH276599   2.208   1.879   3.903  0.1394 -0.6104 -0.0470
18395TIP3    H176600   2.281   1.821   3.923  2.3882  1.2813 -2.1649
18395TIP3    H276601   2.230   1.961   3.946 -0.6443  0.0527 -0.8744
18396TIP3   OH276602   1.061   0.774   5.759 -0.7395 -0.2880 -0.7997
18396TIP3    H176603   1.002   0.780   5.684 -1.2944 -0.6984 -0.4065
18396TIP3    H276604   1.055   0.860   5.801 -0.9844 -0.2918 -0.8214
18397TIP3   OH276605   6.068   2.652   2.984 -0.2205  0.2211 -0.6844
18397TIP3    H176606   6.067   2.573   2.930 -0.4401 -0.8543  0.8292
18397TIP3    H276607   5.989   2.699   2.958 -0.5158 -0.4647 -1.0634
18398TIP3   OH276608   2.747   1.059  13.157 -0.4125  0.1315  0.3058
18398TIP3    H176609   2.790   1.028  13.078  1.1955 -1.8493  1.8229
18398TIP3    H276610   2.671   1.002  13.167  0.6466 -1.1881  1.2961
18399TIP3   OH276611   4.318   1.816   2.706 -0.0529 -0.2436 -0.1856
18399TIP3    H176612   4.309   1.814   2.611  0.4666 -1.0585 -0.2237
18399TIP3    H276613   4.401   1.771   2.724  0.0812  0.2934  0.6271
18400TIP3   OH276614   1.928   5.579   1.555 -0.0640  0.0506 -0.2114
18400TIP3    H176615   1.986   5.601   1.627  0.1125  0.1101 -0.3718
18400TIP3    H276616   1.915   5.662   1.508 -0.1235 -0.0008 -0.2870
18401TIP3   OH276617   5.607   5.120   2.872  0.4540 -0.0282  0.4583
18401TIP3    H176618   5.580   5.171   2.795  0.8876 -1.0946 -0.4165
18401TIP3    H276619   5.542   5.142   2.939  0.0637  0.9088 -0.1976
18402TIP3   OH276620   5.849   6.216  13.189  0.2395 -0.2968  0.3897
18402TIP3    H176621   5.857   6.227  13.094 -1.5997  0.8664  0.3068
18402TIP3    H276622   5.922   6.266  13.225  0.7641 -0.4802 -0.4020
18403TIP3   OH276623   2.039   4.039   1.968 -0.5313  0.7871  0.1058
18403TIP3    H176624   1.999   3.957   1.998  0.8051  0.3753  0.8399
18403TIP3    H276625   2.027   4.037   1.873 -0.3668 -0.3594  0.0922
18404TIP3   OH276626   1.090   6.538   4.251  0.3733  0.1637  0.3841
18404TIP3    H176627   1.080   6.480   4.327  0.2788  0.4031  0.5534
18404TIP3    H276628   1.007   6.528   4.204  0.1594  0.5298  0.6715
18405TIP3   OH276629   0.418   5.647  17.147  0.5121 -0.0785  0.6607
18405TIP3    H176630   0.339   5.597  17.166 -0.5650  0.9139 -0.9867
18405TIP3    H276631   0.393   5.738  17.162  0.8834  0.3648 -1.1277
18406TIP3   OH276632   3.405   0.100  14.120 -0.0431  0.3273 -0.2899
18406TIP3    H176633   3.376   0.119  14.031  0.4495 -0.7877 -0.7101
18406TIP3    H276634   3.498   0.079  14.110 -0.2711 -1.0567  0.2861
18407TIP3   OH276635   1.885   1.174  16.961 -0.7035  0.2630 -0.1449
18407TIP3    H176636   1.937   1.224  16.898 -0.1731  0.2377  0.2580
18407TIP3    H276637   1.926   1.088  16.963 -0.5089  0.3648  0.4696
18408TIP3   OH276638   5.707   2.389   3.315 -0.2192  0.1724  0.8139
18408TIP3    H176639   5.799   2.367   3.330 -0.7928 -1.9291  1.6578
18408TIP3    H276640   5.706   2.430   3.229  1.5247  0.4929  0.9051
18409TIP3   OH276641   5.752   0.526  13.532  0.0213  0.0579 -0.1509
18409TIP3    H176642   5.737   0.436  13.560  1.1941 -0.3760 -0.8703
18409TIP3    H276643   5.800   0.567  13.604 -0.4891  0.1162  0.1633
18410TIP3   OH276644   5.676   0.105   0.472 -0.5476  1.0716 -0.0458
18410TIP3    H176645   5.646   0.111   0.381  0.5472 -1.5571 -0.6520
18410TIP3    H276646   5.597   0.122   0.524 -1.5547  1.0379 -1.4992
18411TIP3   OH276647   1.233   3.376  11.386  0.1121  0.3358  0.0873
18411TIP3    H176648   1.206   3.286  11.371 -2.3396  0.7909  1.2342
18411TIP3    H276649   1.208   3.422  11.306 -1.7825  0.5576  0.7539
18412TIP3   OH276650   5.486   4.659  12.654 -0.1964  0.9824 -0.0097
18412TIP3    H176651   5.550   4.646  12.584  1.6896 -1.0807  1.9436
18412TIP3    H276652   5.413   4.602  12.631  0.6856 -0.1687 -0.0158
18413TIP3   OH276653   0.269   2.393   3.975 -0.0474 -0.0199  0.2687
18413TIP3    H176654   0.194   2.346   3.937  0.0840  1.1454 -1.5569
18413TIP3    H276655   0.332   2.324   3.995 -0.3366 -0.7567 -1.1977
18414TIP3   OH276656   0.163   0.141  11.363  0.3539  0.0332  0.4868
18414TIP3    H176657   0.158   0.179  11.275 -1.6263 -1.0126  0.0996
18414TIP3    H276658   0.255   0.116  11.372  0.2639 -1.6830 -2.1139
18415TIP3   OH276659   3.252   5.289   0.901 -0.3933  0.3835 -0.3740
18415TIP3    H176660   3.168   5.331   0.917 -0.9446 -0.2127 -1.5537
18415TIP3    H276661   3.244   5.202   0.939 -1.0013 -0.3279 -2.0226
18416TIP3   OH276662   5.164   4.502   0.413 -0.1056  0.3779  0.0245
18416TIP3    H176663   5.180   4.515   0.320 -0.3060  2.0075  0.1877
18416TIP3    H276664   5.252   4.500   0.452  0.1499 -2.6831 -0.3857
18417TIP3   OH276665   2.421   6.083   3.363  0.0101  0.2095  0.1502
18417TIP3    H176666   2.378   6.017   3.418 -0.0718  0.4614  0.3891
18417TIP3    H276667   2.383   6.069   3.275 -1.9963  1.6504  0.7156
18418TIP3   OH276668   0.360   3.503  16.106  0.4932  0.4010 -0.1010
18418TIP3    H176669   0.344   3.410  16.119  0.3987  0.3624 -0.4846
18418TIP3    H276670   0.285   3.546  16.147  0.4501  0.3029 -0.0761
18419TIP3   OH276671   4.511   5.272  14.371  0.0091  0.0935 -0.7198
18419TIP3    H176672   4.533   5.283  14.464  0.6568  0.9837 -0.9695
18419TIP3    H276673   4.543   5.351  14.329  1.3848 -1.0806 -2.0131
18420TIP3   OH276674   1.837   1.817  13.367  0.0638  0.0029  0.4313
18420TIP3    H176675   1.891   1.806  13.289  0.3963 -2.2440  0.9100
18420TIP3    H276676   1.886   1.876  13.423  0.1244  1.1230 -0.7556
18421TIP3   OH276677   3.647   6.256  16.528  0.2660 -0.2132  0.2065
18421TIP3    H176678   3.571   6.306  16.559  0.5489  1.7459 -1.9250
18421TIP3    H276679   3.713   6.268  16.596  0.5860  3.1301 -0.5449
18422TIP3   OH276680   2.496   5.824  12.556 -0.1576 -0.0004 -0.1877
18422TIP3    H176681   2.427   5.811  12.621  0.0168  0.5651  0.1143
18422TIP3    H276682   2.537   5.737  12.547 -0.6171 -0.2350 -0.0431
18423TIP3   OH276683   6.641   6.136   4.270 -0.1933 -0.1817  0.4980
18423TIP3    H176684   6.576   6.152   4.339 -1.9739  0.9755 -1.3439
18423TIP3    H276685   6.708   6.202   4.284 -0.9018  0.5069  0.7234
18424TIP3   OH276686   1.232   3.251  16.193 -0.7735  0.4932  0.4658
18424TIP3    H176687   1.278   3.180  16.149 -0.0112 -0.1396  2.1688
18424TIP3    H276688   1.139   3.232  16.180 -0.5694  0.1616 -0.5627
18425TIP3   OH276689   1.771   0.438   3.097 -0.3858  0.1735  0.0838
18425TIP3    H176690   1.795   0.404   3.183 -3.4024 -2.1785  0.1861
18425TIP3    H276691   1.818   0.382   3.035  0.0225  0.3730  0.2119
18426TIP3   OH276692   5.083   1.698  14.298 -0.3256  0.2337 -0.2406
18426TIP3    H176693   5.094   1.604  14.286 -0.1159  0.1050  0.8708
18426TIP3    H276694   5.115   1.737  14.216 -1.3190 -0.6985 -1.0967
18427TIP3   OH276695   0.082   2.914  14.873  0.4542  0.1403  0.7162
18427TIP3    H176696   0.067   2.827  14.838  0.0022  0.1272  0.9352
18427TIP3    H276697   0.067   2.906  14.967 -0.1508  0.5729  0.6641
18428TIP3   OH276698   0.496   0.696  14.115  0.1134 -0.2658 -0.4632
18428TIP3    H176699   0.568   0.757  14.103 -0.6719  0.5045 -1.3273
18428TIP3    H276700   0.535   0.622  14.162  1.2080  0.6206  0.0563
18429TIP3   OH276701   5.463   6.264   1.139  0.0475  0.2007  0.6275
18429TIP3    H176702   5.403   6.311   1.081 -0.5547 -2.1083 -0.7451
18429TIP3    H276703   5.535   6.238   1.082  0.1406 -0.8988  1.2232
18430TIP3   OH276704   2.001   2.633   2.520  0.9322 -0.0909 -0.3459
18430TIP3    H176705   1.981   2.716   2.476  0.5309 -0.5282 -0.9910
18430TIP3    H276706   2.060   2.588   2.461 -1.3503 -1.6652 -1.5725
18431TIP3   OH276707   3.077   6.552   3.736  0.1235 -0.0774  0.2938
18431TIP3    H176708   3.011   6.585   3.797 -0.3939  0.5995 -0.5938
18431TIP3    H276709   3.143   6.621   3.732  0.2067 -0.1635  0.1803
18432TIP3   OH276710   5.216   0.925   1.724  0.1658  0.5476 -0.8971
18432TIP3    H176711   5.240   0.854   1.664  0.4180 -0.1198 -0.0254
18432TIP3    H276712   5.176   0.881   1.799  0.0527  1.3522 -0.4721
18433TIP3   OH276713   1.426   3.295  15.255 -0.0099  0.1327 -0.4681
18433TIP3    H176714   1.419   3.343  15.173  1.4521  0.2099 -0.5583
18433TIP3    H276715   1.398   3.358  15.322  1.4191  0.9718 -0.6335
18434TIP3   OH276716   4.805   0.051   5.030  0.2438 -0.9008  0.5960
18434TIP3    H176717   4.807   0.030   5.124 -0.6632  0.6553  1.0017
18434TIP3    H276718   4.820   0.146   5.026 -0.8084 -0.7515 -0.7318
18435TIP3   OH276719   0.027   0.776  14.234 -0.1291 -0.1957  0.0464
18435TIP3    H176720  -0.053   0.725  14.246  0.1177 -0.5239  0.3083
18435TIP3    H276721   0.097   0.720  14.266  0.7874 -1.6542 -3.8786
18436TIP3   OH276722   4.698   4.133  15.491 -0.5950 -0.4448  0.2550
18436TIP3    H176723   4.747   4.115  15.411 -0.0873 -0.5750  0.5929
18436TIP3    H276724   4.762   4.123  15.561 -0.6162  1.2964  0.5678
18437TIP3   OH276725   4.741   6.614   5.465 -0.2246  0.7216  0.4213
18437TIP3    H176726   4.650   6.638   5.449  0.4083  1.6511 -2.4127
18437TIP3    H276727   4.772   6.679   5.529 -1.2691  1.0296  0.6340
18438TIP3   OH276728   2.869   4.608   6.075 -0.1455  0.1656 -0.4097
18438TIP3    H176729   2.927   4.684   6.082 -0.1288  0.0685  0.5493
18438TIP3    H276730   2.788   4.643   6.038  0.2548  0.4343 -1.0511
18439TIP3   OH276731   5.688   3.887  15.402  0.5585  0.3322 -0.3309
18439TIP3    H176732   5.665   3.859  15.491 -0.2768 -1.4112 -1.0478
18439TIP3    H276733   5.724   3.975  15.414  2.0686 -0.4761  1.9198
18440TIP3   OH276734   1.147   1.178  12.569 -0.3883 -0.1537 -0.9498
18440TIP3    H176735   1.184   1.246  12.626 -3.9615 -0.7925  2.6077
18440TIP3    H276736   1.212   1.107  12.572  0.2275  0.4216  1.2548
18441TIP3   OH276737   1.796   4.400  14.330  0.2085  0.0343  0.2642
18441TIP3    H176738   1.764   4.310  14.332 -3.3211  1.0401 -1.5305
18441TIP3    H276739   1.858   4.403  14.258  0.8186 -1.0503  0.7333
18442TIP3   OH276740   2.335   5.898  12.778  0.3386 -0.3731  0.0830
18442TIP3    H176741   2.355   5.991  12.779  0.2534 -0.3547  0.0497
18442TIP3    H276742   2.244   5.893  12.751 -0.0392 -0.3976  1.3291
18443TIP3   OH276743   6.698   2.151  12.604 -0.0612  0.2016 -0.2218
18443TIP3    H176744   6.778   2.198  12.628  0.1614 -0.1229 -0.3273
18443TIP3    H276745   6.657   2.207  12.538  0.5469 -0.0730 -0.8476
18444TIP3   OH276746   4.909   2.146   1.187 -0.1452 -0.7965 -0.3744
18444TIP3    H176747   4.916   2.076   1.122 -0.1695 -0.5444 -0.6491
18444TIP3    H276748   4.829   2.193   1.163  0.2223 -0.2737 -0.5878
18445TIP3   OH276749   1.327   5.035   5.754  0.2051 -0.1536  0.3169
18445TIP3    H176750   1.245   5.069   5.789 -0.2998 -0.3681 -0.6316
18445TIP3    H276751   1.353   4.966   5.815 -0.1031  0.1850  0.8376
18446TIP3   OH276752   5.044   2.857  17.061 -0.3136 -0.1457  0.2851
18446TIP3    H176753   5.098   2.931  17.032 -0.2432 -0.9142 -1.7561
18446TIP3    H276754   4.969   2.897  17.104  0.4030  1.0556  0.4471
18447TIP3   OH276755   2.448   1.208   5.538  0.3829 -0.2337 -0.3919
18447TIP3    H176756   2.392   1.172   5.607  3.2461 -0.5336  2.0071
18447TIP3    H276757   2.429   1.154   5.461 -1.0287 -1.7093  0.9143
18448TIP3   OH276758   0.650   6.176  16.156  0.1966 -0.7642 -0.0127
18448TIP3    H176759   0.617   6.241  16.094  1.3166 -0.0482  0.1046
18448TIP3    H276760   0.709   6.122  16.104  0.3962 -0.7630  0.2118
18449TIP3   OH276761   2.230   1.787   0.373 -0.1385 -0.5789  0.2584
18449TIP3    H176762   2.171   1.830   0.435 -0.6448  0.8341 -1.1370
18449TIP3    H276763   2.317   1.810   0.404 -0.3791 -0.0161  0.5398
18450TIP3   OH276764   3.394   5.527   5.580  0.5793  0.1575 -0.0414
18450TIP3    H176765   3.401   5.432   5.579  0.5082  0.1417 -1.3375
18450TIP3    H276766   3.320   5.546   5.523  1.8046  1.0457 -1.4152
18451TIP3   OH276767   6.597   1.111  12.813 -0.3111  0.5533 -0.8086
18451TIP3    H176768   6.593   1.019  12.838  1.0795  1.3079  2.8842
18451TIP3    H276769   6.686   1.123  12.778 -0.2712  0.6105 -0.6883
18452TIP3   OH276770   5.023   0.013  10.791  0.2880 -0.2682  0.1551
18452TIP3    H176771   5.040  -0.035  10.711 -0.0543 -1.1140  0.5787
18452TIP3    H276772   4.952  -0.035  10.834 -0.6488  1.0855  0.1925
18453TIP3   OH276773   5.120   3.040   6.051 -0.6987  0.2657 -0.6004
18453TIP3    H176774   5.080   3.058   5.965  1.7877 -0.0211 -1.9209
18453TIP3    H276775   5.128   3.126   6.092  0.2344  0.7707 -1.7434
18454TIP3   OH276776   4.697   2.066   2.347 -0.3716  0.0248  0.4410
18454TIP3    H176777   4.611   2.108   2.335 -0.8518  0.1295  3.4410
18454TIP3    H276778   4.744   2.084   2.265 -2.0797  2.7270 -0.0789
18455TIP3   OH276779   1.550   6.488  14.280 -0.6971 -0.0641 -0.3551
18455TIP3    H176780   1.463   6.473  14.242 -0.9900  1.1486 -0.2197
18455TIP3    H276781   1.586   6.561  14.229 -0.9450  1.3532  1.3799
18456TIP3   OH276782   1.357   2.389  17.202 -0.1009  0.0420 -0.0264
18456TIP3    H176783   1.372   2.389  17.297 -0.8502 -1.9138  0.1257
18456TIP3    H276784   1.401   2.469  17.171 -1.0143  1.4747  2.1345
18457TIP3   OH276785   6.284   5.981  11.956  0.1431 -0.2225 -0.1807
18457TIP3    H176786   6.272   6.064  11.910  0.7173  0.4298  0.7987
18457TIP3    H276787   6.196   5.958  11.986 -0.3221 -0.8903 -1.9246
18458TIP3   OH276788   6.073   5.002  12.179 -0.4802  0.0052 -0.3893
18458TIP3    H176789   6.038   4.991  12.268 -0.5892 -1.8967 -0.6321
18458TIP3    H276790   6.144   5.065  12.190  0.6078 -1.3986  1.3977
18459TIP3   OH276791   6.288   5.643  16.979 -0.0758  0.2806  0.1889
18459TIP3    H176792   6.219   5.688  16.930  0.6485  0.7073 -0.4420
18459TIP3    H276793   6.260   5.552  16.981 -0.9038  0.5300  0.3557
18460TIP3   OH276794   2.829   3.894  12.132  0.2340 -0.2947  0.6053
18460TIP3    H176795   2.863   3.955  12.066 -0.0231 -1.2235 -0.4162
18460TIP3    H276796   2.734   3.900  12.124 -0.0316  2.4656  3.6155
18461TIP3   OH276797   4.812   2.454  16.443  0.0350 -0.1973 -0.2527
18461TIP3    H176798   4.882   2.492  16.497 -0.7463  0.5031  0.2855
18461TIP3    H276799   4.772   2.389  16.500  0.2007 -0.5606 -0.5457
18462TIP3   OH276800   5.130   2.311  11.108  0.1625 -0.2216  0.2522
18462TIP3    H176801   5.190   2.385  11.104 -0.5514  0.3333 -0.7148
18462TIP3    H276802   5.046   2.350  11.131 -0.2339 -0.7128 -0.3360
18463TIP3   OH276803   6.772   3.289   3.920 -0.0414 -0.3715 -0.2148
18463TIP3    H176804   6.847   3.303   3.978 -0.1179 -1.9576  0.3343
18463TIP3    H276805   6.704   3.254   3.978 -1.9674  2.8566 -0.3007
18464TIP3   OH276806   1.355   6.561  12.367 -0.0655 -0.2320  0.6091
18464TIP3    H176807   1.415   6.490  12.388  1.1310  0.7681  0.6460
18464TIP3    H276808   1.346   6.558  12.272  0.8526  0.2439  0.5017
18465TIP3   OH276809   3.432   5.811   4.966 -0.1261  0.1946 -0.3921
18465TIP3    H176810   3.378   5.888   4.984  1.0015  0.9623 -0.1510
18465TIP3    H276811   3.511   5.847   4.925  0.9198 -0.7056  0.7562
18466TIP3   OH276812   0.153   0.250  14.891  0.8443  0.3684  0.6158
18466TIP3    H176813   0.132   0.250  14.798 -0.9480  0.8831  0.9778
18466TIP3    H276814   0.087   0.307  14.931  2.1216  0.9152  2.0990
18467TIP3   OH276815   4.094   5.231  13.370 -0.9857 -0.0325  0.4855
18467TIP3    H176816   4.140   5.173  13.431  0.9293  1.2297  0.3399
18467TIP3    H276817   4.043   5.289  13.427 -2.3889 -1.3810  0.6564
18468TIP3   OH276818   0.971   0.764  13.043  0.2570  0.2329  0.5302
18468TIP3    H176819   1.025   0.685  13.033 -0.0117 -0.0319  1.1376
18468TIP3    H276820   0.884   0.738  13.012  0.1763  0.3028  0.6981
18469TIP3   OH276821   1.668   4.008  14.730  0.6396 -0.5277  0.5861
18469TIP3    H176822   1.720   4.072  14.779  0.5792  0.4687 -0.6154
18469TIP3    H276823   1.581   4.012  14.771  1.0955 -1.1501  1.6581
18470TIP3   OH276824   4.362   5.578  14.140  0.6732  0.4827  0.2791
18470TIP3    H176825   4.360   5.656  14.196  2.3538 -0.0905  1.2044
18470TIP3    H276826   4.362   5.614  14.051  0.7634  1.5128  0.6759
18471TIP3   OH276827   2.379   1.999   2.546 -0.5715  0.0543 -0.3088
18471TIP3    H176828   2.420   1.974   2.463  1.5205 -2.5927  1.3484
18471TIP3    H276829   2.439   2.065   2.583 -2.3574  2.4876 -1.4996
18472TIP3   OH276830   4.574   1.831  16.412 -0.6722  0.1250  0.1172
18472TIP3    H176831   4.489   1.787  16.415  0.0370 -1.5371 -1.6410
18472TIP3    H276832   4.638   1.761  16.428  0.4819  0.5671 -2.1215
18473TIP3   OH276833   0.548   1.453   4.931 -0.3098 -0.2449  0.6333
18473TIP3    H176834   0.536   1.358   4.933 -0.5772 -0.2203  0.2877
18473TIP3    H276835   0.547   1.479   5.023  1.5202 -0.7899  0.8373
18474TIP3   OH276836   1.222   5.384   0.734 -0.2182 -0.3280  0.6813
18474TIP3    H176837   1.314   5.378   0.710 -0.8113  1.1439 -2.5211
18474TIP3    H276838   1.189   5.294   0.732  0.9760 -0.8024  1.3727
18475TIP3   OH276839   5.955   4.456  15.838 -0.3363 -0.1865 -0.4344
18475TIP3    H176840   5.948   4.550  15.852 -1.6781 -0.3336  0.0639
18475TIP3    H276841   5.865   4.428  15.820 -0.0055 -1.4183 -0.2576
18476TIP3   OH276842   5.896   4.422   3.772  0.0978  0.0627  0.0652
18476TIP3    H176843   5.884   4.377   3.689  1.1629  0.3817 -0.2726
18476TIP3    H276844   5.836   4.497   3.768  0.8876  0.6662 -0.8682
18477TIP3   OH276845   0.940   1.184   3.513 -0.2618 -0.0420  0.3641
18477TIP3    H176846   0.941   1.265   3.562 -0.0606  0.1033  0.1236
18477TIP3    H276847   0.985   1.205   3.431 -0.5588 -0.2873  0.1341
18478TIP3   OH276848   2.418   6.650   2.323  0.0661 -0.5210 -0.2798
18478TIP3    H176849   2.386   6.561   2.339  0.0072 -0.6653 -1.1831
18478TIP3    H276850   2.448   6.650   2.232 -0.2173  0.4675 -0.3926
18479TIP3   OH276851   3.700   2.944   5.577 -0.5019 -0.4993 -0.1633
18479TIP3    H176852   3.631   2.982   5.523 -1.7831 -1.7205  0.5469
18479TIP3    H276853   3.686   2.981   5.664 -1.5719 -2.2429  0.4632
18480TIP3   OH276854   4.857   5.437   2.116 -0.5971  0.0612 -0.0516
18480TIP3    H176855   4.775   5.486   2.111  0.1984  1.4837  0.3389
18480TIP3    H276856   4.913   5.476   2.050  0.3249  0.2128  0.8050
18481TIP3   OH276857   6.246   1.238  11.641  0.0491 -0.1739  0.6387
18481TIP3    H176858   6.209   1.313  11.595 -1.3169 -0.8156  0.6558
18481TIP3    H276859   6.316   1.275  11.695 -1.3829  1.2924  1.5757
18482TIP3   OH276860   1.832   1.906  13.749  0.2102 -0.1003  0.0112
18482TIP3    H176861   1.884   1.849  13.806 -0.7916  0.0482  1.1172
18482TIP3    H276862   1.889   1.924  13.675  1.2430 -1.0051  0.5546
18483TIP3   OH276863   2.463   2.230   3.316  0.2545  0.0737  0.0986
18483TIP3    H176864   2.512   2.303   3.278  0.4281 -0.2030 -0.2206
18483TIP3    H276865   2.518   2.154   3.300 -0.5291 -0.3369 -0.7803
18484TIP3   OH276866   4.817   6.657   5.847  0.2869  0.7798  0.2975
18484TIP3    H176867   4.741   6.701   5.884  0.2844 -0.1481  1.4487
18484TIP3    H276868   4.835   6.704   5.765 -3.2360 -0.7133 -1.5526
18485TIP3   OH276869   4.780   5.708   2.633 -0.6202  0.5319  0.8614
18485TIP3    H176870   4.858   5.689   2.686  0.2572 -0.6213 -0.7580
18485TIP3    H276871   4.712   5.653   2.671  0.8450 -3.0011 -1.1481
18486TIP3   OH276872   3.310   2.568   2.875 -0.1492 -0.3426 -0.4363
18486TIP3    H176873   3.340   2.478   2.867  3.1859  0.6740 -1.2348
18486TIP3    H276874   3.234   2.574   2.819 -1.2872 -2.9135  0.6679
18487TIP3   OH276875   1.082   4.744  14.876 -0.2040 -0.0821  0.2232
18487TIP3    H176876   1.071   4.718  14.968 -1.7845  1.8683  0.6872
18487TIP3    H276877   1.115   4.834  14.881  2.8248 -0.9935 -1.2207
18488TIP3   OH276878   6.283   5.333   6.019 -0.3019 -0.6295  0.4174
18488TIP3    H176879   6.221   5.398   6.055  0.3987 -0.0795  0.6483
18488TIP3    H276880   6.251   5.249   6.054 -0.9234 -0.3583  0.5284
18489TIP3   OH276881   1.719   2.375  16.177 -0.2460 -0.7583 -0.5909
18489TIP3    H176882   1.718   2.334  16.091 -1.1781 -1.3301 -0.3278
18489TIP3    H276883   1.811   2.388  16.197  0.0434 -1.9979 -1.0299
18490TIP3   OH276884   6.214   6.004  11.569 -0.5913 -0.0989  0.0543
18490TIP3    H176885   6.206   5.908  11.574 -0.5949 -0.1613 -0.9925
18490TIP3    H276886   6.215   6.023  11.476 -1.6233  1.0264  0.2607
18491TIP3   OH276887   6.629   1.688   4.928  0.0865  0.4903 -0.1521
18491TIP3    H176888   6.700   1.739   4.967 -0.0008  1.0557 -0.7173
18491TIP3    H276889   6.617   1.615   4.988  1.8632 -0.2155 -0.5855
18492TIP3   OH276890   4.757   0.541  15.552  0.4319  0.1017  0.0632
18492TIP3    H176891   4.766   0.631  15.584 -0.2382  0.0032  0.5518
18492TIP3    H276892   4.748   0.550  15.457  0.9192  0.5084  0.0535
18493TIP3   OH276893   3.658   3.583   1.426 -0.5380 -0.1866 -0.2980
18493TIP3    H176894   3.684   3.492   1.440 -2.0292 -0.4543  0.9797
18493TIP3    H276895   3.672   3.626   1.510 -0.4333  0.6410 -0.7190
18494TIP3   OH276896   5.145   0.703  13.437  0.1255 -0.4628  0.1672
18494TIP3    H176897   5.226   0.746  13.410 -1.3149  0.6375 -2.8452
18494TIP3    H276898   5.091   0.774  13.472 -1.2229 -0.2074 -2.2458
18495TIP3   OH276899   2.340   0.708  14.474  0.5875 -0.1024  0.3099
18495TIP3    H176900   2.355   0.618  14.502 -0.6064 -0.3262  0.2697
18495TIP3    H276901   2.316   0.755  14.553 -2.1200 -0.5894 -0.1202
18496TIP3   OH276902   4.110   6.153   5.534  0.0406  0.2367  0.1338
18496TIP3    H176903   4.107   6.180   5.626  0.5020  4.1840 -0.8084
18496TIP3    H276904   4.019   6.158   5.505  0.1127  0.7384 -0.0157
18497TIP3   OH276905   1.849   2.416   1.712  0.2810 -0.1191  0.4951
18497TIP3    H176906   1.781   2.439   1.775 -0.3233  2.0911 -0.8678
18497TIP3    H276907   1.814   2.340   1.665 -0.0812 -0.5940  1.4942
18498TIP3   OH276908   3.497   1.053  15.168 -0.6437  0.1140  0.3092
18498TIP3    H176909   3.553   1.015  15.235 -0.0815 -0.1127 -0.2734
18498TIP3    H276910   3.459   1.131  15.209  0.2921  0.4081  0.6333
18499TIP3   OH276911   6.073   1.205  14.916 -0.0329 -0.2728  0.0155
18499TIP3    H176912   6.005   1.258  14.875  1.1797  1.0824 -0.3342
18499TIP3    H276913   6.147   1.265  14.926  2.3721 -2.4694 -2.8032
18500TIP3   OH276914   3.032   2.084  14.258  0.0719  0.5568 -0.1249
18500TIP3    H176915   3.072   2.115  14.177 -1.0890  0.1166 -0.9021
18500TIP3    H276916   3.088   2.013  14.288  0.5064  0.7252 -0.5294
18501TIP3   OH276917   5.652   2.647   0.795  0.2969  0.0435 -0.5808
18501TIP3    H176918   5.726   2.598   0.832 -0.4235 -0.6878 -0.0871
18501TIP3    H276919   5.622   2.593   0.722  1.2227  1.1058 -1.8117
18502TIP3   OH276920   0.224   4.479   3.507 -0.1192  0.3158  0.4147
18502TIP3    H176921   0.233   4.419   3.580  2.2116  0.5168  0.3515
18502TIP3    H276922   0.288   4.449   3.443 -1.6403  0.5459 -1.3093
18503TIP3   OH276923   4.806   6.320  17.287 -0.3426  0.3372 -0.2746
18503TIP3    H176924   4.776   6.232  17.309 -1.7653  1.1381  1.2745
18503TIP3    H276925   4.726   6.372  17.284  0.5864  1.8918  0.4746
18504TIP3   OH276926   1.148   1.130   1.428  0.1754  0.1998  0.3262
18504TIP3    H176927   1.085   1.123   1.500  1.0153  0.5862  1.1203
18504TIP3    H276928   1.233   1.116   1.470  0.5347 -1.8621 -0.9670
18505TIP3   OH276929   1.989   6.672   4.868 -0.4304 -0.1356  0.4557
18505TIP3    H176930   1.977   6.722   4.948 -2.1555  1.9644 -1.0146
18505TIP3    H276931   1.904   6.631   4.852 -0.1500 -0.4035 -0.3925
18506TIP3   OH276932   4.517   2.676   1.727 -0.5218  0.1367  0.0055
18506TIP3    H176933   4.428   2.680   1.692 -0.4540 -0.9985 -0.3559
18506TIP3    H276934   4.533   2.763   1.763 -1.0257  1.0117 -1.7527
18507TIP3   OH276935   4.275   3.821  11.962  0.5311  0.7351 -0.3497
18507TIP3    H176936   4.230   3.789  11.884  1.7259  1.0578 -1.2014
18507TIP3    H276937   4.303   3.741  12.008  0.2611  0.5507 -0.5019
18508TIP3   OH276938   2.486   2.770  12.835 -0.0188 -0.1903  0.1611
18508TIP3    H176939   2.392   2.782  12.819  0.0285 -0.6590 -0.5228
18508TIP3    H276940   2.527   2.846  12.795  0.1294 -1.5466 -2.4406
18509TIP3   OH276941   3.287   0.010   3.124 -0.0197 -0.2491  0.2785
18509TIP3    H176942   3.197  -0.016   3.146  0.3322 -0.4700  1.5663
18509TIP3    H276943   3.305   0.085   3.182  1.2661 -1.4227  1.4835
18510TIP3   OH276944   3.222   3.956  13.758 -0.4465 -0.1607  0.1778
18510TIP3    H176945   3.272   3.977  13.836  0.0831 -0.7171 -0.0052
18510TIP3    H276946   3.183   4.039  13.732  1.2347  0.5305 -0.2763
18511TIP3   OH276947   1.921   0.892   3.974  0.1189  0.0960  0.3820
18511TIP3    H176948   1.886   0.846   4.050  1.7563 -2.2317 -0.1788
18511TIP3    H276949   1.968   0.967   4.011  0.1492 -0.4961  1.5797
18512TIP3   OH276950   3.309   5.742   1.927  0.1124  0.1776  0.0963
18512TIP3    H176951   3.374   5.691   1.974  0.9875  1.1424 -0.0306
18512TIP3    H276952   3.345   5.750   1.838 -0.0744  0.8849  0.0812
18513TIP3   OH276953   6.664   0.858  16.407  0.4297  0.3095 -0.3345
18513TIP3    H176954   6.623   0.898  16.330  0.4903 -1.5889 -1.4367
18513TIP3    H276955   6.732   0.801  16.371  2.0056  1.0457  1.2906
18514TIP3   OH276956   6.162   1.796   6.240  0.1629  0.0878  0.0842
18514TIP3    H176957   6.071   1.823   6.246 -0.0098 -0.5656  0.5624
18514TIP3    H276958   6.212   1.875   6.258 -0.3149  0.2845  0.5625
18515TIP3   OH276959   5.829   3.699  15.008 -0.3814 -0.2322  0.8436
18515TIP3    H176960   5.857   3.666  14.923 -0.1222  2.2521 -0.1165
18515TIP3    H276961   5.736   3.677  15.012 -0.2846 -0.8256  0.1757
18516TIP3   OH276962   4.824   1.945  13.668 -0.3516  0.1639  0.3184
18516TIP3    H176963   4.834   1.946  13.763 -0.5011  1.1483  0.3326
18516TIP3    H276964   4.902   1.991  13.636 -1.3883  1.8218  0.0887
18517TIP3   OH276965   3.011   5.061  16.701  0.5833  0.0472  0.2682
18517TIP3    H176966   3.030   4.974  16.734  0.5120 -0.4436 -0.9163
18517TIP3    H276967   2.927   5.084  16.741  0.1503 -0.8201 -0.1118
18518TIP3   OH276968   1.156   3.500  14.806 -0.1838 -0.2034 -0.2343
18518TIP3    H176969   1.201   3.456  14.734  1.3352 -0.4275  0.8195
18518TIP3    H276970   1.131   3.429  14.866  0.8745  0.1901  0.7050
18519TIP3   OH276971   4.605   3.706  12.625  0.6092  0.3768 -0.2486
18519TIP3    H176972   4.593   3.611  12.619 -1.3801  0.4743  1.2051
18519TIP3    H276973   4.628   3.721  12.717  1.7724  1.2412 -0.6684
18520TIP3   OH276974   3.115   1.860   0.043  0.4567 -0.1877 -0.4930
18520TIP3    H176975   3.084   1.907  -0.035 -1.1338 -2.8868 -1.6574
18520TIP3    H276976   3.066   1.778   0.042  0.7890 -0.5852  3.1235
18521TIP3   OH276977   2.844   2.446  13.131  0.7737  0.0913 -0.7239
18521TIP3    H176978   2.806   2.521  13.087  1.0629  1.0281  0.5665
18521TIP3    H276979   2.770   2.404  13.174  0.7109  0.0022 -0.9170
18522TIP3   OH276980   6.230   0.447  17.230  0.5161 -0.0165  0.2905
18522TIP3    H176981   6.215   0.378  17.295  1.8676  1.7418  2.6850
18522TIP3    H276982   6.325   0.463  17.235  0.7561 -0.1343 -2.5739
18523TIP3   OH276983   0.086   1.343  14.545 -0.1303  0.2885 -0.2018
18523TIP3    H176984   0.129   1.318  14.463 -0.1649  0.5902 -0.3128
18523TIP3    H276985   0.062   1.260  14.585  0.3278  0.1286 -0.2606
18524TIP3   OH276986   4.571   1.390  12.814  0.0594  0.0803 -0.8451
18524TIP3    H176987   4.506   1.355  12.875  1.0774 -0.5248 -0.0758
18524TIP3    H276988   4.543   1.480  12.799 -0.5760  0.0429  0.0155
18525TIP3   OH276989   5.981   1.124  17.349 -0.1563 -0.0941 -0.0666
18525TIP3    H176990   6.075   1.136  17.335 -0.4943  1.4508 -1.1581
18525TIP3    H276991   5.947   1.097  17.264 -0.8448  0.3067  0.0715
18526TIP3   OH276992   0.516   4.204   2.432 -0.4485  0.0869 -0.1010
18526TIP3    H176993   0.502   4.112   2.407  2.0642  0.3382 -2.9953
18526TIP3    H276994   0.571   4.199   2.509  0.2764 -0.8861 -0.6530
18527TIP3   OH276995   4.011   6.017  14.936 -0.1700 -0.0022  0.2001
18527TIP3    H176996   4.062   6.098  14.944 -0.6774  0.2127  1.3954
18527TIP3    H276997   4.059   5.953  14.987 -0.5359 -0.0630  0.4767
18528TIP3   OH276998   0.443   6.601  13.064  0.4975 -0.2899 -0.4524
18528TIP3    H176999   0.401   6.517  13.049  1.3812 -0.7261 -0.5660
18528TIP3    H277000   0.422   6.653  12.987  0.5711 -0.6662 -0.7258
18529TIP3   OH277001   6.761   6.125  15.272 -0.2962 -0.1793  0.5778
18529TIP3    H177002   6.757   6.031  15.285 -3.1147 -0.1643  0.3180
18529TIP3    H277003   6.670   6.153  15.266  0.4574  2.5412  0.3849
18530TIP3   OH277004   1.299   4.347   3.737 -0.2637 -0.2339 -0.1271
18530TIP3    H177005   1.303   4.278   3.670 -0.3028 -0.2172 -0.1469
18530TIP3    H277006   1.328   4.426   3.692 -0.5460 -0.1680 -0.1980
18531TIP3   OH277007   1.141   4.640  12.322  0.1144  0.2082 -0.2173
18531TIP3    H177008   1.133   4.673  12.412 -0.5088 -1.5635  0.4166
18531TIP3    H277009   1.070   4.682  12.274 -0.3820  0.1458  0.4505
18532TIP3   OH277010   1.244   5.477   2.139  0.2654 -0.1669  0.0509
18532TIP3    H177011   1.219   5.461   2.230  0.2097  0.7168  0.2022
18532TIP3    H277012   1.161   5.475   2.091  0.1081  0.7553  0.2477
18533TIP3   OH277013   1.706   1.122  14.534 -0.2469  0.1390 -0.8628
18533TIP3    H177014   1.713   1.044  14.480  1.6017  0.7051 -1.5208
18533TIP3    H277015   1.655   1.183  14.481  1.1048  0.5025 -1.8136
18534TIP3   OH277016   1.713   1.410  11.536 -0.4404  0.9069  0.5084
18534TIP3    H177017   1.674   1.490  11.501 -2.2067 -0.1194 -0.0130
18534TIP3    H277018   1.657   1.340  11.502  1.1002 -0.5633  0.8869
18535TIP3   OH277019   5.837   3.197  14.721 -0.6953  0.1363 -0.4624
18535TIP3    H177020   5.753   3.155  14.703 -1.4055  0.4844  1.6878
18535TIP3    H277021   5.813   3.287  14.746  0.5961  1.1901 -2.7375
18536TIP3   OH277022   2.255   6.280   4.327  0.3968  0.0107  0.3736
18536TIP3    H177023   2.350   6.289   4.317  0.7141 -1.6082  1.5864
18536TIP3    H277024   2.232   6.205   4.273 -0.7035  1.9630 -2.1071
18537TIP3   OH277025   4.951   4.188   1.498 -0.0232 -0.1672 -0.1533
18537TIP3    H177026   4.907   4.160   1.418 -0.8579 -0.0292  0.2474
18537TIP3    H277027   4.979   4.278   1.480  1.2436 -0.6917 -0.8670
18538TIP3   OH277028   5.620   0.857   5.235 -0.1805 -0.1666 -0.0059
18538TIP3    H177029   5.601   0.810   5.316  0.7002 -0.1935  0.1980
18538TIP3    H277030   5.613   0.790   5.167 -0.7274 -0.1871  0.0662
18539TIP3   OH277031   0.572   6.501  15.618  0.2410  0.0168 -0.6344
18539TIP3    H177032   0.486   6.488  15.657  0.2674 -1.9153 -1.0944
18539TIP3    H277033   0.632   6.499  15.693  0.0784 -1.1890 -0.5141
18540TIP3   OH277034   1.179   2.558  15.655  0.5898  0.0322  0.2133
18540TIP3    H177035   1.220   2.473  15.674  2.0136  0.4477 -0.8527
18540TIP3    H277036   1.226   2.591  15.579 -0.7364  1.2658 -0.1131
18541TIP3   OH277037   0.833   1.388  14.385  0.1821 -0.2490  0.5089
18541TIP3    H177038   0.744   1.422  14.397  0.0287  0.0267 -1.1900
18541TIP3    H277039   0.889   1.465  14.396  0.2842 -0.5017  2.0199
18542TIP3   OH277040   5.488   6.586  12.692  0.2646  0.0933 -0.0376
18542TIP3    H177041   5.399   6.559  12.717 -0.2896  1.1307 -0.8066
18542TIP3    H277042   5.529   6.506  12.660 -0.1021 -0.5718  1.0658
18543TIP3   OH277043   0.205   1.787   4.384  0.0234  0.0561 -0.2605
18543TIP3    H177044   0.184   1.810   4.293  1.6747 -0.3081 -0.7733
18543TIP3    H277045   0.126   1.809   4.433 -0.7493  0.6877 -1.7132
18544TIP3   OH277046   1.329   3.223  14.578 -0.0195 -0.2029 -0.6353
18544TIP3    H177047   1.325   3.141  14.529 -3.2713 -1.4399  1.3837
18544TIP3    H277048   1.279   3.285  14.525 -2.9105 -1.3443  0.5366
18545TIP3   OH277049   6.505   3.093  14.878 -0.0039  0.3069 -0.3036
18545TIP3    H177050   6.542   3.178  14.904 -0.6520  0.5331 -0.0953
18545TIP3    H277051   6.522   3.036  14.952  0.9214  0.0948 -0.6636
18546TIP3   OH277052   6.207   0.046  17.157  0.5121  0.5206  0.5575
18546TIP3    H177053   6.129   0.095  17.130  0.6505  0.9187  0.8734
18546TIP3    H277054   6.174  -0.042  17.177 -0.4374  1.4662  3.7099
18547TIP3   OH277055   0.883   1.575   5.965  0.2857  0.1021 -0.5516
18547TIP3    H177056   0.928   1.576   6.049  0.5362  1.1725 -0.6760
18547TIP3    H277057   0.792   1.597   5.986  0.6842  2.0902 -0.6973
18548TIP3   OH277058   3.716   4.399  15.195  0.0642  0.4034  0.3066
18548TIP3    H177059   3.744   4.478  15.240 -2.3364  0.5288  1.7351
18548TIP3    H277060   3.695   4.337  15.265  0.5757 -1.0294 -0.7543
18549TIP3   OH277061   1.015   2.422   0.591 -1.0833  0.0879 -0.1277
18549TIP3    H177062   1.003   2.504   0.542  0.5027 -0.2357 -1.1037
18549TIP3    H277063   0.960   2.433   0.669 -1.7789  1.6095 -0.7946
18550TIP3   OH277064   1.029   1.570   6.189 -0.0188  0.0442 -0.1821
18550TIP3    H177065   1.123   1.553   6.202 -0.3681 -1.8769  0.1921
18550TIP3    H277066   0.986   1.517   6.256 -1.4059  0.1299 -0.9780
18551TIP3   OH277067   2.302   0.986  16.646  0.3111  0.2502 -0.3673
18551TIP3    H177068   2.377   1.041  16.623  2.3094 -1.2365  2.0651
18551TIP3    H277069   2.239   1.047  16.685 -0.0003  1.5793 -2.7716
18552TIP3   OH277070   5.984   1.468   4.499  0.1734 -0.2209  0.4100
18552TIP3    H177071   5.913   1.529   4.477  1.9110  1.4073 -1.0669
18552TIP3    H277072   6.044   1.520   4.552  0.9288 -1.1277  0.4594
18553TIP3   OH277073   2.199   2.149   1.116  0.0115 -0.2268 -0.4835
18553TIP3    H177074   2.179   2.151   1.210 -1.3707  0.5470 -0.7714
18553TIP3    H277075   2.288   2.184   1.110  0.7154 -1.6991  0.6519
18554TIP3   OH277076   3.435   2.269  12.869  0.0764 -0.3871  0.4354
18554TIP3    H177077   3.461   2.206  12.801  0.3561  0.3019 -0.1065
18554TIP3    H277078   3.352   2.305  12.836  1.4337  1.7798 -0.8258
18555TIP3   OH277079   4.860   6.470  13.436  0.2902  0.0104 -0.6911
18555TIP3    H177080   4.815   6.485  13.353 -1.5003  0.3984  0.2945
18555TIP3    H277081   4.839   6.379  13.458  0.3345  0.0628 -0.4309
18556TIP3   OH277082   1.485   6.274  12.256 -0.7958 -0.1864  0.2524
18556TIP3    H177083   1.545   6.348  12.267 -0.0877 -0.8703  1.1533
18556TIP3    H277084   1.524   6.222  12.186 -0.4637 -0.4915  0.6570
18557TIP3   OH277085   0.769   3.202   2.744  0.3082 -0.1454  0.2436
18557TIP3    H177086   0.697   3.206   2.806 -0.3576  0.8943 -0.5525
18557TIP3    H277087   0.833   3.143   2.784  0.8701  2.0569  2.9740
18558TIP3   OH277088   0.659   4.474   4.770 -0.0590 -0.3205 -0.4092
18558TIP3    H177089   0.632   4.530   4.842  1.1622 -1.5838  1.0869
18558TIP3    H277090   0.732   4.424   4.804 -0.0152 -1.6035 -2.2467
18559TIP3   OH277091   3.588   2.340   4.127 -0.3450 -0.2257 -0.0405
18559TIP3    H177092   3.527   2.270   4.151  0.1022 -0.6815 -0.2053
18559TIP3    H277093   3.591   2.397   4.204 -0.2864 -0.6975  0.3098
18560TIP3   OH277094   5.340   0.146   6.718  0.1304  0.4698  0.5568
18560TIP3    H177095   5.325   0.194   6.799  1.7663  0.9490  0.6042
18560TIP3    H277096   5.435   0.146   6.707  0.0307 -0.9421 -0.5531
18561TIP3   OH277097   2.034   4.082  14.820 -0.7024 -0.1450  0.4669
18561TIP3    H177098   1.957   4.132  14.848 -0.3334  0.2393  0.8241
18561TIP3    H277099   2.106   4.146  14.823 -0.7019  0.0400 -1.7715
18562TIP3   OH277100   4.281   0.856  12.519 -0.9377  0.5592  0.3525
18562TIP3    H177101   4.376   0.873  12.518 -0.7787 -0.2903 -0.7963
18562TIP3    H277102   4.249   0.903  12.596  0.5637  0.0889  1.3086
18563TIP3   OH277103   3.000   3.259  13.378  0.1023 -0.5239 -0.1072
18563TIP3    H177104   2.989   3.350  13.406  0.6885 -0.6969  0.7379
18563TIP3    H277105   2.997   3.209  13.459 -0.2569 -1.2753 -0.5690
18564TIP3   OH277106   4.847   5.193   4.456 -0.4191 -0.3914  0.1400
18564TIP3    H177107   4.884   5.280   4.445  1.1271 -1.1015 -0.4785
18564TIP3    H277108   4.758   5.209   4.488 -0.3187  1.4086 -0.3895
18565TIP3   OH277109   0.732   3.263   2.176  0.1458 -0.1916 -0.4702
18565TIP3    H177110   0.801   3.275   2.242  1.0329 -2.1106 -0.9722
18565TIP3    H277111   0.656   3.236   2.227  0.7559 -1.4159 -0.1539
18566TIP3   OH277112   2.710   2.875  16.483  0.6585 -0.3261  0.0803
18566TIP3    H177113   2.750   2.915  16.406  1.4348 -1.2591 -0.0082
18566TIP3    H277114   2.637   2.934  16.505 -1.4419 -1.4918 -3.0443
18567TIP3   OH277115   1.540   4.264   1.940  0.0030  0.0607 -0.1069
18567TIP3    H177116   1.499   4.350   1.943  0.6830  0.4776 -1.8244
18567TIP3    H277117   1.597   4.262   2.016 -0.4447  0.9034  0.2651
18568TIP3   OH277118   1.470   5.480   1.985 -0.0667  0.4799  0.0807
18568TIP3    H177119   1.402   5.492   2.051  1.1469  1.1265  1.2541
18568TIP3    H277120   1.546   5.528   2.019  0.6530  0.6836 -1.7001
18569TIP3   OH277121   6.525   2.737  12.878 -0.1688 -0.4266 -0.7025
18569TIP3    H177122   6.607   2.786  12.890 -0.1086 -0.7181  0.0879
18569TIP3    H277123   6.464   2.777  12.939 -1.1034  0.8021 -2.3486
18570TIP3   OH277124   0.666   0.757   3.458  0.7461  0.0348  0.1378
18570TIP3    H177125   0.636   0.732   3.546  2.5855  0.1225  0.8279
18570TIP3    H277126   0.651   0.851   3.454 -2.0147 -0.3546 -0.7813
18571TIP3   OH277127   2.174   4.293   5.858 -0.0957 -0.4532  0.1235
18571TIP3    H177128   2.213   4.356   5.798  2.0486 -1.2307  0.6109
18571TIP3    H277129   2.238   4.285   5.929 -0.8269 -2.3375  0.6341
18572TIP3   OH277130   2.115   2.241  11.407  0.6439 -0.3575  0.0982
18572TIP3    H177131   2.172   2.316  11.389  1.9301 -1.3139  0.0785
18572TIP3    H277132   2.054   2.273  11.474 -0.2066  1.3223 -1.3762
18573TIP3   OH277133   0.417   4.594   3.899  0.2760 -0.0215  0.1218
18573TIP3    H177134   0.490   4.647   3.931  0.7834 -1.1303  0.8801
18573TIP3    H277135   0.339   4.636   3.933  0.6394  0.5088  0.3063
18574TIP3   OH277136   6.323   2.515  11.605  0.3745  0.1092  0.7302
18574TIP3    H177137   6.356   2.505  11.516  0.9501  0.3067  0.9218
18574TIP3    H277138   6.365   2.445  11.655 -1.9212 -1.7078  0.3331
18575TIP3   OH277139   0.489   0.227   1.517  0.6306 -0.4501 -0.0141
18575TIP3    H177140   0.418   0.290   1.501  0.3478 -0.7790 -0.0486
18575TIP3    H277141   0.445   0.143   1.528  1.0100 -0.6428  0.0411
18576TIP3   OH277142   6.274   3.843   5.155  0.2923 -0.3278 -0.1412
18576TIP3    H177143   6.260   3.895   5.234  2.7375 -0.4172  0.4370
18576TIP3    H277144   6.342   3.890   5.107 -1.3101 -0.1487 -2.3721
18577TIP3   OH277145   3.696   4.954  14.073 -0.7118 -0.1673  0.2967
18577TIP3    H177146   3.726   4.973  14.162  0.7320 -1.6817  0.1914
18577TIP3    H277147   3.746   5.013  14.017  0.2485 -0.9417  0.3188
18578TIP3   OH277148   5.021   0.493   3.756 -0.3553 -0.1824 -0.2483
18578TIP3    H177149   4.985   0.576   3.724  1.2548  0.2625 -1.0120
18578TIP3    H277150   5.052   0.449   3.677  0.0136 -0.9078  0.2944
18579TIP3   OH277151   3.710   3.963   6.376  0.6444 -0.0345 -0.0864
18579TIP3    H177152   3.797   3.983   6.342  1.0134 -0.5642  0.5094
18579TIP3    H277153   3.702   4.015   6.456 -0.2266  1.2218 -0.9477
18580TIP3   OH277154   3.508   6.386  13.419  0.0605 -0.1624  0.3308
18580TIP3    H177155   3.513   6.480  13.400  1.0448 -0.6589 -2.3519
18580TIP3    H277156   3.592   6.366  13.460  0.3850 -0.0624 -0.2684
18581TIP3   OH277157   3.190   3.444  13.105 -0.3442 -0.5180 -0.1705
18581TIP3    H177158   3.179   3.356  13.069  0.5485 -0.9818  0.6325
18581TIP3    H277159   3.285   3.459  13.102 -0.2572 -0.4665  1.6902
18582TIP3   OH277160   3.638   3.039  13.145  0.2902  0.0652 -0.0187
18582TIP3    H177161   3.629   2.948  13.174  1.8932  0.2066  1.0291
18582TIP3    H277162   3.703   3.035  13.074  2.7603  0.6987  2.0818
18583TIP3   OH277163   0.030   5.753  17.386  0.2121  0.8614 -0.4282
18583TIP3    H177164   0.034   5.820  17.454 -1.8666  1.4904 -0.8480
18583TIP3    H277165   0.020   5.803  17.304  0.9110  0.0791 -1.0062
18584TIP3   OH277166   0.659   1.182   2.782  0.6711 -0.0138  0.1416
18584TIP3    H177167   0.588   1.171   2.719  0.1385 -1.5257  0.9425
18584TIP3    H277168   0.635   1.125   2.855  2.7939 -0.7561  0.3412
18585TIP3   OH277169   2.412   6.768   1.829  0.1893 -0.2984  0.2082
18585TIP3    H177170   2.461   6.689   1.804  0.7156  0.7799 -2.5916
18585TIP3    H277171   2.480   6.833   1.848 -0.2339 -0.1727  1.3316
18586TIP3   OH277172   0.328   0.039  14.830  0.0072  0.0207  0.2026
18586TIP3    H177173   0.371   0.068  14.750 -1.0386 -0.0832 -0.4141
18586TIP3    H277174   0.277   0.114  14.859 -1.5724 -0.6928 -0.6104
18587TIP3   OH277175   0.385   5.049   5.369  0.6341  0.4063 -0.2568
18587TIP3    H177176   0.370   4.983   5.301  0.2454  0.6996 -0.4597
18587TIP3    H277177   0.460   5.016   5.418 -0.0842 -0.6270  0.1875
18588TIP3   OH277178   2.836   6.159   1.215 -0.1673 -0.0559 -0.1061
18588TIP3    H177179   2.774   6.196   1.277  1.0051 -0.8918  1.6246
18588TIP3    H277180   2.882   6.235   1.179 -0.1602  0.3959  0.8260
18589TIP3   OH277181   3.439   3.434   7.079  0.1995 -0.3168 -0.0931
18589TIP3    H177182   3.418   3.379   7.154  2.5622 -1.5176 -0.1898
18589TIP3    H277183   3.355   3.459   7.041 -1.0207 -0.3771  2.4348
18590TIP3   OH277184   4.585   2.112  13.803  0.3974  0.2248 -0.5791
18590TIP3    H177185   4.611   2.025  13.773  0.9222  0.3457 -0.4888
18590TIP3    H277186   4.650   2.135  13.869 -0.1150  0.4176 -0.1365
18591TIP3   OH277187   0.065   1.452  14.910 -0.1957 -0.0795 -0.0396
18591TIP3    H177188   0.110   1.392  14.850 -2.1525 -1.3313 -0.3292
18591TIP3    H277189   0.041   1.527  14.855 -0.7391 -0.5851 -0.4973
18592TIP3   OH277190   1.356   2.232  15.148 -0.5211 -0.1082 -0.5726
18592TIP3    H177191   1.271   2.226  15.192 -0.0247 -0.8775  0.3325
18592TIP3    H277192   1.352   2.163  15.082 -0.5730 -0.2015 -0.4736
18593TIP3   OH277193   6.388   6.113   6.628  0.0705  0.0737 -0.3183
18593TIP3    H177194   6.370   6.149   6.541 -1.3745 -0.8252 -0.4056
18593TIP3    H277195   6.348   6.026   6.627 -1.7830  0.8134  1.9034
18594TIP3   OH277196   4.147   3.686  17.104 -0.2649 -0.2872 -0.5054
18594TIP3    H177197   4.119   3.762  17.154 -1.8610  0.4805 -2.3902
18594TIP3    H277198   4.080   3.619  17.123  0.5509 -0.8841  0.3349
18595TIP3   OH277199   4.411   2.385   0.621 -0.0703 -0.3835 -0.2857
18595TIP3    H177200   4.394   2.339   0.703 -1.4529 -0.6488 -0.6996
18595TIP3    H277201   4.328   2.428   0.600 -0.0977 -1.2277 -2.1034
18596TIP3   OH277202   1.429   1.151   0.626 -1.0518 -0.9910 -0.0389
18596TIP3    H177203   1.490   1.082   0.598 -1.7609 -0.8650 -2.1058
18596TIP3    H277204   1.470   1.232   0.598 -0.2288 -0.4947  2.3729
18597TIP3   OH277205   3.209   2.172  16.583 -0.2955 -0.0746  0.4636
18597TIP3    H177206   3.132   2.147  16.532 -0.9211 -1.8406  2.1503
18597TIP3    H277207   3.283   2.145  16.529 -0.8856 -0.1486 -0.3317
18598TIP3   OH277208   0.517   4.953   1.437  0.3117  0.3403  0.1789
18598TIP3    H177209   0.514   4.895   1.361  3.0072 -0.5818  0.6406
18598TIP3    H277210   0.470   4.905   1.505  0.1975 -0.0675 -0.1778
18599TIP3   OH277211   1.991   4.899  13.632 -0.1842  0.4654  0.1719
18599TIP3    H177212   1.938   4.964  13.587  1.1277  1.5090  0.0670
18599TIP3    H277213   1.928   4.834  13.665 -1.4825  1.6053 -0.0036
18600TIP3   OH277214   1.114   0.385   2.595  0.1699  0.0629 -0.1272
18600TIP3    H177215   1.062   0.466   2.595 -0.8147 -0.5452  0.4447
18600TIP3    H277216   1.135   0.370   2.503 -0.8941  0.1935 -0.4030
18601TIP3   OH277217   3.190   0.761   4.243 -0.3898 -0.4716 -0.4462
18601TIP3    H177218   3.284   0.772   4.253 -0.4465 -0.8420  0.6274
18601TIP3    H277219   3.163   0.834   4.186 -0.0239  2.0347  2.3382
18602TIP3   OH277220   6.132   2.321  12.837 -0.3191 -0.5548  0.3481
18602TIP3    H177221   6.108   2.412  12.854  0.8631 -0.1167 -0.2104
18602TIP3    H277222   6.222   2.325  12.805 -0.4716 -1.8624 -0.3308
18603TIP3   OH277223   3.196   3.570   3.031  0.5795 -0.0832  0.4848
18603TIP3    H177224   3.192   3.604   3.121  0.2280 -0.0378  0.4534
18603TIP3    H277225   3.272   3.614   2.992 -0.8616  2.0416 -0.0984
18604TIP3   OH277226   4.655   1.550  11.224  0.0870 -0.0417 -0.0467
18604TIP3    H177227   4.611   1.469  11.249  0.0247 -0.5746 -1.7693
18604TIP3    H277228   4.589   1.618  11.237 -0.4033 -0.4883 -0.1581
18605TIP3   OH277229   6.415   2.287  15.711  0.5058  0.2520  0.3429
18605TIP3    H177230   6.369   2.262  15.631  0.5432 -0.2619  0.4767
18605TIP3    H277231   6.384   2.225  15.777  1.8244 -0.5008  0.3003
18606TIP3   OH277232   1.183   0.197   0.164 -0.3968  0.2766 -0.1131
18606TIP3    H177233   1.253   0.138   0.135 -0.2246  0.6065 -0.3879
18606TIP3    H277234   1.145   0.230   0.082 -2.3389 -1.5546 -0.0321
18607TIP3   OH277235   4.017   5.001  10.878  0.2933 -0.6740  0.0265
18607TIP3    H177236   4.081   4.933  10.859  0.4268 -0.7854  0.8299
18607TIP3    H277237   3.935   4.955  10.891 -0.6460 -0.3510 -3.6644
18608TIP3   OH277238   4.527   4.732  13.201 -0.6923 -0.4849  0.3938
18608TIP3    H177239   4.449   4.787  13.209 -0.5206  0.1143 -1.4862
18608TIP3    H277240   4.493   4.645  13.182 -0.9235 -0.1621 -0.7296
18609TIP3   OH277241   5.900   2.468  13.284 -0.3374  0.2058  0.3150
18609TIP3    H177242   5.896   2.395  13.221 -2.5469  0.4944  0.0439
18609TIP3    H277243   5.833   2.447  13.349 -0.7618  1.7917  0.4324
18610TIP3   OH277244   3.629   6.108  14.166  0.1353  0.7385 -0.1656
18610TIP3    H177245   3.634   6.070  14.254  0.3552  0.7484 -0.1738
18610TIP3    H277246   3.577   6.188  14.178  1.2509  1.4317  0.1952
18611TIP3   OH277247   5.971   3.917   5.307 -0.3526  0.7214 -0.4857
18611TIP3    H177248   5.919   3.893   5.385  0.0927 -0.3890 -0.5063
18611TIP3    H277249   5.984   3.834   5.261 -0.0770  1.2726 -1.4237
18612TIP3   OH277250   6.094   0.804  11.557  0.1072 -0.1292  0.1503
18612TIP3    H177251   6.138   0.744  11.496  0.2503 -0.4052  0.5270
18612TIP3    H277252   6.002   0.803  11.529  0.0971 -0.5685  0.1885
18613TIP3   OH277253   1.525   2.053   2.616  0.1296  0.1185 -0.9968
18613TIP3    H177254   1.537   2.008   2.700  0.3627 -0.5102 -1.3614
18613TIP3    H277255   1.479   2.134   2.639 -1.7196 -1.0039 -0.4853
18614TIP3   OH277256   0.672   3.236  12.633 -0.3369  0.2623 -0.4723
18614TIP3    H177257   0.619   3.311  12.605 -2.3007 -0.6195  0.6302
18614TIP3    H277258   0.634   3.161  12.588 -1.3959 -0.6780  1.8054
18615TIP3   OH277259   4.588   0.375  14.604 -0.0070 -0.5117  0.3252
18615TIP3    H177260   4.550   0.343  14.686  0.0387 -0.0421  0.5275
18615TIP3    H277261   4.675   0.406  14.628 -0.5115  0.9254  0.3729
18616TIP3   OH277262   1.434   1.322  16.894 -0.2300 -0.4801 -0.7215
18616TIP3    H177263   1.520   1.319  16.937 -0.6176  0.3706  0.1607
18616TIP3    H277264   1.413   1.415  16.890 -0.8907 -0.6526 -1.3900
18617TIP3   OH277265   6.260   6.717  15.925 -0.5889 -0.1612 -0.4653
18617TIP3    H177266   6.215   6.772  15.990 -0.3762  1.7388 -1.8384
18617TIP3    H277267   6.327   6.671  15.975 -0.5911  1.0582  0.7220
18618TIP3   OH277268   0.778   0.211   3.339  0.4590 -0.3617 -0.2818
18618TIP3    H177269   0.748   0.217   3.248 -0.6485  0.0266  0.0937
18618TIP3    H277270   0.873   0.211   3.332  0.4672  2.2333 -1.3413
18619TIP3   OH277271   4.023   6.496   0.227 -0.3333  0.0282  0.5542
18619TIP3    H177272   4.052   6.422   0.174 -1.3962 -0.5929  0.8104
18619TIP3    H277273   3.935   6.515   0.197  0.3716  2.0836 -0.4208
18620TIP3   OH277274   4.280   5.847   1.159  0.2653 -0.4951 -0.4274
18620TIP3    H177275   4.326   5.764   1.150  0.6590 -0.1870 -1.3936
18620TIP3    H277276   4.188   5.825   1.154  0.3815 -0.8074 -1.4206
18621TIP3   OH277277   0.422   0.931  17.263 -0.0860 -0.4283 -0.0528
18621TIP3    H177278   0.448   1.022  17.280  2.8366 -1.3480  0.8714
18621TIP3    H277279   0.428   0.922  17.168 -0.1349  0.2421 -0.1276
18622TIP3   OH277280   2.467   6.710  15.184  0.0215 -0.7471  0.1676
18622TIP3    H177281   2.382   6.668  15.186 -0.3173 -0.0369  1.1719
18622TIP3    H277282   2.454   6.788  15.129 -0.3885  0.1858  1.5469
18623TIP3   OH277283   3.048   0.717  15.607  0.1708 -0.1311 -0.2735
18623TIP3    H177284   3.139   0.704  15.632  0.4620  0.0965 -1.1801
18623TIP3    H277285   3.051   0.738  15.514 -0.7460  0.6517 -0.1455
18624TIP3   OH277286   5.193   0.350   4.797 -0.3301  0.3524 -0.1337
18624TIP3    H177287   5.216   0.262   4.827  0.8893  0.3519 -1.0312
18624TIP3    H277288   5.254   0.408   4.842 -0.7624  0.7024  0.0184
18625TIP3   OH277289   6.656   3.146   2.396  0.0403  0.3148 -0.5890
18625TIP3    H177290   6.604   3.088   2.451 -0.9173 -0.9787 -2.7547
18625TIP3    H277291   6.689   3.212   2.457 -0.4952 -1.3247  1.6127
18626TIP3   OH277292   5.095   0.625  11.987  0.8533 -0.5826  0.4545
18626TIP3    H177293   5.031   0.679  11.941 -1.2026 -1.0751  2.5570
18626TIP3    H277294   5.121   0.558  11.924  0.2618  0.3744 -0.8312
18627TIP3   OH277295   4.024   3.272   4.871  0.1556 -0.3566  0.5281
18627TIP3    H177296   4.023   3.177   4.856 -0.0534 -0.3933  0.7672
18627TIP3    H277297   3.934   3.293   4.896 -0.0299  0.0530 -0.4313
18628TIP3   OH277298   2.979   1.327   4.134  0.2845 -0.1353  0.4607
18628TIP3    H177299   2.913   1.337   4.065 -0.3553  0.2929  1.1267
18628TIP3    H277300   2.936   1.357   4.214  2.1125  2.7734  0.4806
18629TIP3   OH277301   4.417   5.101  13.350 -0.3114 -0.1147  0.0655
18629TIP3    H177302   4.340   5.075  13.402  0.2035 -0.8974  0.4569
18629TIP3    H277303   4.474   5.024  13.352  0.4651  0.4462 -0.2558
18630TIP3   OH277304   0.622   0.497   3.150 -0.0723  0.2211  0.2406
18630TIP3    H177305   0.547   0.511   3.092 -0.2158 -0.4689  0.2541
18630TIP3    H277306   0.684   0.566   3.125 -1.1826  1.5452  1.0495
18631TIP3   OH277307   6.030   5.143  10.801  0.5523  0.0334 -0.1903
18631TIP3    H177308   5.951   5.176  10.759  2.4723  1.1519 -3.2948
18631TIP3    H277309   6.085   5.114  10.728  3.7353  0.9882  1.6445
18632TIP3   OH277310   4.635   2.053  17.275  0.5651  0.4800 -0.2982
18632TIP3    H177311   4.604   2.015  17.194 -0.4568 -0.7317  0.6226
18632TIP3    H277312   4.584   2.134  17.285 -0.1314  0.0412 -0.2936
18633TIP3   OH277313   1.943   3.366   3.420  0.0917  0.7490 -0.0596
18633TIP3    H177314   1.987   3.391   3.338 -1.3332 -0.3560 -1.2237
18633TIP3    H277315   1.975   3.278   3.438 -0.5716  0.4794 -0.1626
18634TIP3   OH277316   0.137   3.439   0.212 -0.1062 -0.0136  0.0369
18634TIP3    H177317   0.215   3.431   0.265 -2.0873  0.1818  3.2428
18634TIP3    H277318   0.067   3.400   0.265 -2.3006  0.1752 -2.4569
18635TIP3   OH277319   1.259   5.984   0.537 -0.4089  0.0460  0.2403
18635TIP3    H177320   1.240   5.913   0.476 -2.4336 -0.4385  1.3500
18635TIP3    H277321   1.355   5.990   0.537 -0.2914 -0.5299 -2.2464
18636TIP3   OH277322   6.065   3.603  11.375  0.4455  0.0203 -0.1739
18636TIP3    H177323   5.997   3.537  11.384 -0.5753  0.8993 -1.0853
18636TIP3    H277324   6.041   3.652  11.295  1.9325  0.5954 -0.3075
18637TIP3   OH277325   0.743   2.785   3.199  0.0678  0.2800 -0.3906
18637TIP3    H177326   0.830   2.808   3.168  0.2856 -0.4356 -0.3143
18637TIP3    H277327   0.720   2.855   3.261  1.6973 -0.8821  1.6681
18638TIP3   OH277328   2.121   0.019   3.261 -0.1622  0.5254  0.4512
18638TIP3    H177329   2.216   0.022   3.249  0.0978 -1.2335  1.7191
18638TIP3    H277330   2.101   0.100   3.308  0.8299  0.5826  0.8103
18639TIP3   OH277331   2.933   3.930   4.535 -0.7691  0.3912  0.1435
18639TIP3    H177332   2.875   3.899   4.464 -1.0128  1.2531 -0.0428
18639TIP3    H277333   2.875   3.978   4.594 -0.6115 -0.5394  1.0827
18640TIP3   OH277334   3.902   1.738   6.745  0.3657  0.0774 -0.3294
18640TIP3    H177335   3.909   1.766   6.653  0.5815  1.9520  0.2200
18640TIP3    H277336   3.991   1.718   6.771  0.3965  0.1944 -0.3436
18641TIP3   OH277337   4.424   1.603  14.269 -0.2689 -0.3361  0.2305
18641TIP3    H177338   4.433   1.680  14.213  0.9085 -0.7126 -0.1350
18641TIP3    H277339   4.478   1.623  14.346  1.6762 -1.5466 -0.7469
18642TIP3   OH277340   1.470   5.681  10.671 -0.0159 -0.5240 -0.4941
18642TIP3    H177341   1.552   5.675  10.621  0.2776 -0.2774 -0.0524
18642TIP3    H277342   1.481   5.759  10.725 -0.8531 -0.0641 -0.9693
18643TIP3   OH277343   0.304   2.497   2.424 -0.0375 -0.0253  0.5651
18643TIP3    H177344   0.302   2.509   2.518 -1.2267  1.1338  0.4194
18643TIP3    H277345   0.213   2.508   2.396  0.0746 -1.6185 -0.5858
18644TIP3   OH277346   1.810   4.701  13.558 -0.5410 -0.6996  0.0160
18644TIP3    H177347   1.765   4.762  13.500  1.0607  0.4516 -0.0809
18644TIP3    H277348   1.839   4.629  13.501  1.9217  0.9108 -0.9279
18645TIP3   OH277349   2.044   2.824  14.078 -0.2606 -0.2190  0.1486
18645TIP3    H177350   2.079   2.744  14.116 -1.0963 -0.2302  0.9211
18645TIP3    H277351   1.949   2.819  14.093 -0.5253  0.1444 -1.2457
18646TIP3   OH277352   3.601   3.958  12.110 -0.0766 -0.4179 -0.6615
18646TIP3    H177353   3.632   3.989  12.195 -1.3586  0.2538 -0.4058
18646TIP3    H277354   3.654   4.005  12.046 -0.1616  0.2636 -0.2366
18647TIP3   OH277355   4.414   1.420  15.919 -0.5723 -0.0058  0.4147
18647TIP3    H177356   4.491   1.365  15.903 -0.6091 -0.1390  0.6985
18647TIP3    H277357   4.347   1.383  15.862 -0.2919  0.4155 -0.2086
18648TIP3   OH277358   6.585   0.902  13.967 -0.1997 -0.3926 -0.5491
18648TIP3    H177359   6.680   0.894  13.966 -0.2033 -0.8877  0.7135
18648TIP3    H277360   6.568   0.996  13.972  0.2577 -0.3452  0.3247
18649TIP3   OH277361   1.520   3.127  12.840 -0.0320  0.4408  0.7864
18649TIP3    H177362   1.441   3.073  12.837  0.3890 -0.1863  0.8377
18649TIP3    H277363   1.524   3.168  12.753  0.0060 -0.1400  0.5087
18650TIP3   OH277364   0.796   4.726  15.177  0.1182  0.1322  0.0415
18650TIP3    H177365   0.798   4.685  15.263  2.2353  0.9670  0.4595
18650TIP3    H277366   0.834   4.661  15.118 -0.5060 -0.1103 -0.0903
18651TIP3   OH277367   1.102   1.748  11.837  0.2196 -0.5382  0.7822
18651TIP3    H177368   1.149   1.665  11.844  0.8306 -0.1419  1.6444
18651TIP3    H277369   1.054   1.755  11.920  1.0049  0.4484  1.1693
18652TIP3   OH277370   6.307   2.791   2.192  0.2433 -0.7071  0.3584
18652TIP3    H177371   6.223   2.790   2.239  1.3705 -2.6747  2.5607
18652TIP3    H277372   6.284   2.783   2.100 -2.0023  0.4826  0.7496
18653TIP3   OH277373   0.068   6.511   0.090  0.3322  0.3162  0.1642
18653TIP3    H177374   0.017   6.587   0.122  0.6113  0.1528  1.0392
18653TIP3    H277375   0.003   6.456   0.046  0.3242  1.6076 -1.5392
18654TIP3   OH277376   6.648   5.516   5.496  0.0599  0.5736 -0.3689
18654TIP3    H177377   6.612   5.600   5.468 -2.9472 -0.6568 -0.5141
18654TIP3    H277378   6.650   5.521   5.592 -0.7634  0.5831 -0.3469
18655TIP3   OH277379   4.014   3.826  15.107  0.5233  0.1232 -0.1850
18655TIP3    H177380   4.087   3.886  15.121  0.3730  0.0666  0.9092
18655TIP3    H277381   3.961   3.867  15.039  1.0799  0.6169 -0.3235
18656TIP3   OH277382   4.290   4.244  12.271  0.0310 -0.0626  0.1424
18656TIP3    H177383   4.348   4.238  12.194 -0.6978 -0.1353 -0.4102
18656TIP3    H277384   4.350   4.239  12.346  0.7021 -0.6202 -0.4084
18657TIP3   OH277385   6.273   0.799  15.551  0.1398  0.8988 -0.4326
18657TIP3    H177386   6.300   0.772  15.464  1.5689 -1.3790  0.6343
18657TIP3    H277387   6.189   0.755  15.565  0.5564  0.1792 -0.1719
18658TIP3   OH277388   6.071   4.551   3.319  0.3754 -0.4314  0.3109
18658TIP3    H177389   6.055   4.612   3.391  1.0393  0.5219 -0.3313
18658TIP3    H277390   6.145   4.498   3.348  0.4564 -0.2422  0.4548
18659TIP3   OH277391   6.288   1.981   4.593  0.2751  0.5134  0.4449
18659TIP3    H177392   6.230   1.959   4.520  1.7653 -0.8160 -0.4297
18659TIP3    H277393   6.250   2.059   4.632 -1.2107  0.5947 -1.0482
18660TIP3   OH277394   1.594   1.275   5.616  0.3253 -0.3158  0.0618
18660TIP3    H177395   1.621   1.272   5.708  1.3268  0.8618 -0.1747
18660TIP3    H277396   1.670   1.310   5.570 -0.5320  0.0986 -1.0729
18661TIP3   OH277397   0.497   0.795   1.752  0.2008  0.3342 -0.3955
18661TIP3    H177398   0.497   0.704   1.723  0.8059 -0.4736  1.9668
18661TIP3    H277399   0.426   0.836   1.702 -0.8418 -1.7114 -0.6953
18662TIP3   OH277400   1.906   1.546  13.841 -0.1167  0.6535 -0.1572
18662TIP3    H177401   1.907   1.550  13.745 -0.0226  0.7942 -0.1504
18662TIP3    H277402   1.997   1.563  13.866 -0.1387  0.5999 -0.0439
18663TIP3   OH277403   2.099   0.642  16.434 -0.0770  0.1896  0.3220
18663TIP3    H177404   2.121   0.617  16.524  1.6453 -1.2377 -0.4289
18663TIP3    H277405   2.132   0.732  16.426 -1.1029  0.6918  1.3634
18664TIP3   OH277406   6.600   1.401  15.370 -0.2625  0.3496 -0.0513
18664TIP3    H177407   6.648   1.483  15.381  0.9573 -0.2990 -0.3808
18664TIP3    H277408   6.602   1.385  15.276 -1.2169  0.3495 -0.0800
18665TIP3   OH277409   2.765   0.594  15.608  0.5288 -0.2985  1.2236
18665TIP3    H177410   2.786   0.583  15.701  0.7792  0.4031  1.2617
18665TIP3    H277411   2.838   0.645  15.573  0.2826 -0.2899  0.7079
18666TIP3   OH277412   1.085   4.853   1.160 -0.6555 -0.0885  0.3388
18666TIP3    H177413   1.164   4.842   1.107 -1.5638 -1.5959 -0.7830
18666TIP3    H277414   1.115   4.849   1.250  0.8964  2.1865  0.0126
18667TIP3   OH277415   1.841   3.174  13.631  0.2542 -0.3504 -0.2060
18667TIP3    H177416   1.885   3.230  13.567  1.8954 -1.2675  0.0829
18667TIP3    H277417   1.882   3.195  13.714 -1.1016  0.0291  0.3987
18668TIP3   OH277418   5.706   0.334  15.442 -0.5459 -0.3308  0.0169
18668TIP3    H177419   5.737   0.285  15.519 -2.1587 -0.6959  0.4651
18668TIP3    H277420   5.619   0.364  15.466 -0.2684  1.3446 -0.9062
18669TIP3   OH277421   2.649   5.081  14.342  0.0423  0.4753 -0.1816
18669TIP3    H177422   2.667   5.068  14.435 -0.5366  1.6728  0.1134
18669TIP3    H277423   2.663   5.174  14.327  1.4422  0.0862 -1.6055
18670TIP3   OH277424   6.091   1.738  14.293  0.3263  0.0022  0.3037
18670TIP3    H177425   6.160   1.678  14.263  0.1962  0.0406 -0.0755
18670TIP3    H277426   6.082   1.802  14.222  0.6868  0.6653  0.8471
18671TIP3   OH277427   4.193   2.972  14.773  0.1705  0.2900 -0.2495
18671TIP3    H177428   4.123   2.913  14.742 -0.5510 -1.7652  4.4637
18671TIP3    H277429   4.157   3.059  14.761 -0.9662 -0.4240 -2.6703
18672TIP3   OH277430   4.167   2.684  15.381  0.1414 -0.0481 -0.0055
18672TIP3    H177431   4.168   2.770  15.339  1.3563 -0.2377 -0.4245
18672TIP3    H277432   4.083   2.680  15.426 -0.8088  0.5381 -1.6509
18673TIP3   OH277433   0.830   6.681   3.228 -0.0156 -0.0069 -0.0340
18673TIP3    H177434   0.904   6.700   3.171 -0.0103  0.0583 -0.0059
18673TIP3    H277435   0.862   6.699   3.317 -0.1563  0.3152 -0.0469
18674TIP3   OH277436   5.096   3.638  15.070  0.2249 -0.3862  0.2789
18674TIP3    H177437   5.046   3.621  14.990  0.7344 -0.2937 -0.0650
18674TIP3    H277438   5.148   3.559  15.083  0.6112 -0.1574  0.1619
18675TIP3   OH277439   4.046   0.524   2.736  0.0442  0.0393 -0.2210
18675TIP3    H177440   4.104   0.531   2.812 -0.0353  0.4088 -0.1912
18675TIP3    H277441   3.973   0.583   2.757 -0.5565 -0.7455 -0.0581
18676TIP3   OH277442   5.679   4.368   5.406  0.1873  0.1884 -0.0521
18676TIP3    H177443   5.704   4.364   5.498 -1.4757 -1.3226  0.4139
18676TIP3    H277444   5.716   4.288   5.368 -2.1579 -1.1533  0.2512
18677TIP3   OH277445   3.025   6.603   4.322 -0.0830 -0.1011 -0.1641
18677TIP3    H177446   2.975   6.684   4.318  1.9316  1.1622 -1.9970
18677TIP3    H277447   3.102   6.625   4.374  0.8399 -0.5703 -1.2785
18678TIP3   OH277448   2.499   3.089  12.090  0.0203 -0.1670  0.2969
18678TIP3    H177449   2.429   3.050  12.142 -0.9074 -0.0313 -0.7974
18678TIP3    H277450   2.516   3.174  12.130 -1.2167  0.2639 -0.0509
18679TIP3   OH277451   6.702   4.594   0.254 -0.1384  0.7669 -0.1835
18679TIP3    H177452   6.744   4.573   0.170  0.1385  1.4285 -0.2154
18679TIP3    H277453   6.631   4.530   0.262  0.3043  0.2197 -0.5656
18680TIP3   OH277454   6.453   5.680   6.707 -0.3876 -0.0259 -0.4053
18680TIP3    H177455   6.362   5.699   6.728  0.0017  0.2528  1.1671
18680TIP3    H277456   6.496   5.766   6.705  0.0029 -0.2154 -0.2984
18681TIP3   OH277457   6.048   2.050   3.699  0.0564  0.2028 -0.6271
18681TIP3    H177458   6.080   2.139   3.685 -0.4744  0.5257  0.1494
18681TIP3    H277459   6.081   2.000   3.624  0.9467  0.8931 -0.6993
18682TIP3   OH277460   3.152   3.219   5.500  0.2262 -0.1393  0.5269
18682TIP3    H177461   3.080   3.255   5.447 -0.2893 -0.2357  1.1525
18682TIP3    H277462   3.207   3.174   5.436 -1.6245 -2.2786  0.3217
18683TIP3   OH277463   1.596   6.207  11.755  0.2177 -0.3335  0.2881
18683TIP3    H177464   1.638   6.145  11.695  2.5632  0.6969  0.7510
18683TIP3    H277465   1.655   6.282  11.756 -0.2799  0.1103  3.1003
18684TIP3   OH277466   0.002   6.596   0.799  0.2156  0.2004 -0.1393
18684TIP3    H177467   0.032   6.519   0.751 -0.1000 -0.4989  0.7539
18684TIP3    H277468  -0.093   6.595   0.790  0.2212  0.6015 -0.2854
18685TIP3   OH277469   5.181   5.302  13.522 -0.4924  0.2524 -0.2981
18685TIP3    H177470   5.160   5.259  13.439 -1.3031  1.4847 -0.7569
18685TIP3    H277471   5.245   5.370  13.499 -0.1164  0.0898  0.2266
18686TIP3   OH277472   4.448   3.036  16.701 -0.1389 -0.1422  0.2939
18686TIP3    H177473   4.451   3.020  16.607  1.3654  0.6221  0.1697
18686TIP3    H277474   4.363   3.003  16.729 -0.2910 -1.0880 -1.1996
18687TIP3   OH277475   6.059   1.663  15.659 -0.4380  0.4480 -0.3076
18687TIP3    H177476   5.998   1.736  15.668  1.7683  2.3382  0.3503
18687TIP3    H277477   6.064   1.625  15.746  0.3436  1.1987 -0.0132
18688TIP3   OH277478   0.149   2.276  15.436 -0.6660  0.2155  0.8970
18688TIP3    H177479   0.232   2.230  15.425 -1.0061 -0.3962  0.8347
18688TIP3    H277480   0.092   2.213  15.481 -2.3285 -0.9401 -2.4018
18689TIP3   OH277481   0.431   1.153  16.931 -0.4088 -0.8171  0.5395
18689TIP3    H177482   0.358   1.107  16.889  2.6887 -4.8174 -1.1143
18689TIP3    H277483   0.459   1.218  16.867 -1.4897 -0.3110  0.5544
18690TIP3   OH277484   0.510   1.505  12.031  0.0477  0.1577  0.0456
18690TIP3    H177485   0.442   1.474  11.972  0.7108  0.8588 -1.1206
18690TIP3    H277486   0.561   1.567  11.979  0.1998  1.3875  1.5890
18691TIP3   OH277487   5.267   5.221  11.753 -0.1704 -0.4407  0.6106
18691TIP3    H177488   5.309   5.140  11.725 -1.3749 -0.5572 -0.9985
18691TIP3    H277489   5.223   5.254  11.674 -1.5224  0.6366  1.7669
18692TIP3   OH277490   6.240   6.062  17.170  0.3876  0.4911  0.1373
18692TIP3    H177491   6.145   6.066  17.177  0.2395 -0.4876 -1.0149
18692TIP3    H277492   6.270   6.148  17.200 -0.9109  1.1660 -0.4322
18693TIP3   OH277493   1.550   2.137  14.072  0.0565 -0.1775 -0.1451
18693TIP3    H177494   1.590   2.145  14.158 -1.6395  1.6948  0.5633
18693TIP3    H277495   1.620   2.158  14.011  0.8441  0.2506  0.8721
18694TIP3   OH277496   4.321   1.856   6.524 -0.2489  0.0123 -0.0050
18694TIP3    H177497   4.400   1.864   6.577 -1.3397  1.0894  1.5005
18694TIP3    H277498   4.306   1.761   6.519  0.8861 -0.1876  0.0361
18695TIP3   OH277499   6.059   3.045   3.463 -0.3325  0.9876  0.1469
18695TIP3    H177500   6.010   3.126   3.449  0.6627  1.5465 -0.2519
18695TIP3    H277501   6.019   3.006   3.540 -1.3514  1.4518 -0.1287
18696TIP3   OH277502   2.122   1.581  13.974  0.1681 -0.0693  0.0089
18696TIP3    H177503   2.204   1.538  13.998  0.2771  1.0441  1.9061
18696TIP3    H277504   2.057   1.547  14.036 -0.6362 -0.3410 -0.9481
18697TIP3   OH277505   6.742   1.405  13.387  0.1208  0.5547 -0.2680
18697TIP3    H177506   6.693   1.390  13.468 -0.7974  0.5017 -0.8130
18697TIP3    H277507   6.829   1.433  13.416  0.4502 -1.3545  0.7624
18698TIP3   OH277508   4.526   4.928  15.037 -0.2749 -0.5825 -0.2741
18698TIP3    H177509   4.474   4.942  14.958 -1.3418  1.3969  0.6950
18698TIP3    H277510   4.607   4.887  15.006 -1.0291 -0.6661 -2.2606
18699TIP3   OH277511   3.708   0.162  14.182 -0.4164  0.3024 -0.3324
18699TIP3    H177512   3.665   0.150  14.267  0.8269 -1.0257  0.1495
18699TIP3    H277513   3.680   0.249  14.154  0.5359  1.5755  2.2934
18700TIP3   OH277514   4.687   3.265  15.479  0.0458 -0.6674  0.1615
18700TIP3    H177515   4.658   3.235  15.393 -1.3318  0.5015  0.1809
18700TIP3    H277516   4.637   3.211  15.541 -0.7140  0.0598  0.2006
18701TIP3   OH277517   3.217   5.356  12.907  0.8050  0.0730  0.1487
18701TIP3    H177518   3.299   5.403  12.891  1.9084 -0.8390  2.6343
18701TIP3    H277519   3.236   5.265  12.881 -0.0978  0.2063 -1.0905
18702TIP3   OH277520   5.062   3.418   5.023  0.0280  0.5831  0.0771
18702TIP3    H177521   5.091   3.441   5.111  0.4462  0.0881  0.0743
18702TIP3    H277522   5.071   3.499   4.973  0.7803  0.6070  0.2445
18703TIP3   OH277523   2.401   5.113   0.438  0.2704  0.2166  0.3501
18703TIP3    H177524   2.340   5.074   0.500  1.9748 -2.9066  0.2771
18703TIP3    H277525   2.433   5.191   0.482 -1.0168 -0.0856  1.9450
18704TIP3   OH277526   2.431   1.987   4.825 -0.2170  0.1674 -0.0338
18704TIP3    H177527   2.513   1.940   4.838  1.0874  1.6780 -2.1342
18704TIP3    H277528   2.457   2.073   4.792 -2.6311  0.0382 -2.7113
18705TIP3   OH277529   1.086   4.877  15.325  0.2694  0.0223  0.2322
18705TIP3    H177530   1.155   4.938  15.350 -1.2486  1.5733  0.8757
18705TIP3    H277531   1.042   4.920  15.252 -1.7652  0.4912  1.6558
18706TIP3   OH277532   4.404   3.881  16.971  0.1986  0.3549  0.3834
18706TIP3    H177533   4.310   3.891  16.954  0.4082  1.4558 -0.1930
18706TIP3    H277534   4.443   3.868  16.884  0.2660 -3.3621  0.8071
18707TIP3   OH277535   0.240   2.184   2.631  0.6412  0.2109  0.3696
18707TIP3    H177536   0.205   2.154   2.715  0.1274  0.6115  0.3040
18707TIP3    H277537   0.266   2.275   2.646 -1.2620  0.9431 -0.3832
18708TIP3   OH277538   0.687   6.007   1.793  0.1412  0.1875  0.0092
18708TIP3    H177539   0.654   5.940   1.733  0.2741  0.6794 -0.6307
18708TIP3    H277540   0.769   6.036   1.752 -0.9134  2.1941 -0.8380
18709TIP3   OH277541   2.726   3.180   1.470 -0.1978  0.5067 -0.5626
18709TIP3    H177542   2.680   3.260   1.445  1.0301  1.0516 -1.1729
18709TIP3    H277543   2.809   3.212   1.508 -0.7337 -0.3930  1.4910
18710TIP3   OH277544   4.566   5.363  14.619  0.4574  0.6172  0.0312
18710TIP3    H177545   4.487   5.415  14.631 -0.6547 -0.8541 -0.5776
18710TIP3    H277546   4.570   5.307  14.696  0.5017  0.1836 -0.2829
18711TIP3   OH277547   5.748   0.529  15.250 -0.2183 -0.2392 -0.4584
18711TIP3    H177548   5.732   0.446  15.294 -0.1573  0.0096  0.0386
18711TIP3    H277549   5.841   0.529  15.230 -0.0573  0.0517  0.2620
18712TIP3   OH277550   1.984   5.364  11.363  0.0496  0.0418  0.7760
18712TIP3    H177551   1.908   5.422  11.357 -0.0925 -0.3023 -1.9364
18712TIP3    H277552   1.946   5.276  11.369  0.2193 -0.0898 -0.0084
18713TIP3   OH277553   2.535   3.053  16.667 -0.0774  0.0252  0.1270
18713TIP3    H177554   2.440   3.050  16.656  0.0366 -0.6052 -0.7954
18713TIP3    H277555   2.558   3.145  16.655 -0.6698  0.3557  1.3702
18714TIP3   OH277556   5.658   0.336   6.333 -0.0186  0.1525  0.0349
18714TIP3    H177557   5.659   0.256   6.385 -0.9921 -0.6000 -1.0679
18714TIP3    H277558   5.741   0.379   6.354  0.6714 -1.2928  0.3877
18715TIP3   OH277559   5.521   3.115  13.882 -0.3693 -0.3144 -0.0790
18715TIP3    H177560   5.561   3.158  13.958  1.3970 -1.5541 -0.2564
18715TIP3    H277561   5.460   3.180  13.848  0.4290  1.1197  1.0823
18716TIP3   OH277562   4.455   4.665  12.115  0.8353 -0.4917  0.4176
18716TIP3    H177563   4.517   4.633  12.181 -0.4026  0.5730  2.1836
18716TIP3    H277564   4.473   4.758  12.108  1.5116 -0.7226 -1.4493
18717TIP3   OH277565   3.303   1.542   6.408  0.2872 -0.1222 -1.0922
18717TIP3    H177566   3.257   1.603   6.350  0.8383  1.1080 -0.2632
18717TIP3    H277567   3.373   1.594   6.448  0.2793 -1.0864  0.2446
18718TIP3   OH277568   6.091   5.779   6.262  0.3886 -0.1679 -0.2422
18718TIP3    H177569   6.052   5.801   6.347 -2.3954 -2.1244 -0.8586
18718TIP3    H277570   6.185   5.789   6.275  0.0041  0.5718  2.7537
18719TIP3   OH277571   4.078   6.771  13.474  0.1164  0.3176  0.1413
18719TIP3    H177572   4.081   6.822  13.555 -1.0136  0.1614  0.3084
18719TIP3    H277573   4.014   6.701  13.493 -0.5163  0.5545 -1.0313
18720TIP3   OH277574   0.807   4.007  16.056  0.4248  0.3053 -0.1382
18720TIP3    H177575   0.896   3.994  16.089  0.9456  0.2961 -1.4987
18720TIP3    H277576   0.793   3.936  15.994 -1.3043 -0.8908  1.4853
18721TIP3   OH277577   2.431   5.210   0.896 -0.2733  0.6974  0.5987
18721TIP3    H177578   2.473   5.293   0.876 -2.1128  1.1812 -1.7463
18721TIP3    H277579   2.337   5.228   0.887 -0.7348 -1.5794  0.1913
18722TIP3   OH277580   2.061   0.595  11.579  0.0882  0.0836 -0.0622
18722TIP3    H177581   1.977   0.552  11.562  1.3712 -2.8564  0.3718
18722TIP3    H277582   2.095   0.617  11.493 -0.6893  0.4473 -0.2899
18723TIP3   OH277583   0.891   5.218  13.912 -0.1894  0.1842  0.2410
18723TIP3    H177584   0.857   5.243  13.998  1.8103  0.2168  1.0823
18723TIP3    H277585   0.938   5.136  13.928 -2.2917 -1.5133 -1.4725
18724TIP3   OH277586   4.051   4.699   1.225 -0.4675 -0.8881 -0.5322
18724TIP3    H177587   4.059   4.783   1.271 -0.9240  0.1754 -2.2889
18724TIP3    H277588   4.036   4.635   1.294 -2.0686  0.7660  0.7521
18725TIP3   OH277589   2.530   2.416   6.567 -0.2060 -0.0326 -0.0312
18725TIP3    H177590   2.477   2.457   6.635  1.4772  0.7876  0.8434
18725TIP3    H277591   2.574   2.344   6.612  0.8396  0.4513 -0.2494
18726TIP3   OH277592   5.061   6.284   0.616 -0.1968 -0.0781 -0.4479
18726TIP3    H177593   4.996   6.224   0.653  0.7313 -0.4299  0.6500
18726TIP3    H277594   5.011   6.337   0.554 -1.1842 -1.4858 -0.9093
18727TIP3   OH277595   1.163   3.439  11.876  0.5260 -0.2094 -0.3361
18727TIP3    H177596   1.102   3.420  11.804 -0.3325  0.8277  0.1007
18727TIP3    H277597   1.118   3.406  11.954 -0.4623  2.3352  0.2811
18728TIP3   OH277598   3.090   3.860   0.766 -0.0782  0.0559  0.8220
18728TIP3    H177599   3.175   3.849   0.724  0.6254  1.1154  1.8844
18728TIP3    H277600   3.026   3.839   0.698  0.9958 -2.8504  0.5887
18729TIP3   OH277601   5.004   5.312   5.239  0.0543  0.0961  0.1003
18729TIP3    H177602   5.031   5.249   5.172 -2.7248 -0.2464 -0.8469
18729TIP3    H277603   4.992   5.394   5.191 -2.4434 -0.2682 -0.0615
18730TIP3   OH277604   1.832   3.141   3.197 -0.4117  0.0201  0.7586
18730TIP3    H177605   1.842   3.217   3.140 -1.2651 -0.8004 -0.5157
18730TIP3    H277606   1.914   3.093   3.187 -0.1966  0.3400  0.9414
18731TIP3   OH277607   2.422   4.940  17.268 -0.5041  0.0707  0.4525
18731TIP3    H177608   2.334   4.914  17.240 -0.2628 -0.7779  0.4659
18731TIP3    H277609   2.450   4.871  17.328  0.6360 -0.2821 -0.4507
18732TIP3   OH277610   3.004   1.441   6.428  0.6002  0.1625  0.4575
18732TIP3    H177611   3.098   1.457   6.419  0.4225  2.1075  1.5487
18732TIP3    H277612   2.985   1.457   6.520 -0.7416 -0.6720  0.3557
18733TIP3   OH277613   0.654   3.132  12.180  0.3067 -0.3166  0.5382
18733TIP3    H177614   0.647   3.147  12.085  1.1464  1.1565  0.6816
18733TIP3    H277615   0.695   3.046  12.187  3.5560  0.9918 -0.5652
18734TIP3   OH277616   0.608   2.813   4.337 -0.9464 -0.1082 -0.3696
18734TIP3    H177617   0.532   2.780   4.290 -1.6697 -1.6109  1.6967
18734TIP3    H277618   0.572   2.854   4.416  0.2972  0.6331 -0.1602
18735TIP3   OH277619   2.361   6.231  13.164 -0.3018  0.2298  0.1620
18735TIP3    H177620   2.350   6.283  13.084 -0.7698 -0.1672 -0.0352
18735TIP3    H277621   2.385   6.295  13.231  3.3507  0.2355 -0.9482
18736TIP3   OH277622   4.258   5.237   0.669  0.3942 -0.6927 -0.1384
18736TIP3    H177623   4.171   5.277   0.677 -0.3790 -2.2550 -0.3668
18736TIP3    H277624   4.319   5.307   0.693 -0.8060  1.0127 -1.7593
18737TIP3   OH277625   2.511   4.624   3.766  0.3382  0.4974 -0.0553
18737TIP3    H177626   2.425   4.639   3.805 -0.2087 -1.2383 -0.4839
18737TIP3    H277627   2.511   4.676   3.685  0.2314  1.5478  0.6034
18738TIP3   OH277628   2.003   6.706  11.797 -0.2094  0.2672  0.3867
18738TIP3    H177629   1.943   6.778  11.779 -0.1365  0.0995 -0.5524
18738TIP3    H277630   2.060   6.702  11.720  1.1942  0.6008  1.3651
18739TIP3   OH277631   2.915   5.602   6.387  0.2715  0.4147  0.3009
18739TIP3    H177632   2.842   5.638   6.438  0.2030  3.6095 -1.8204
18739TIP3    H277633   2.991   5.612   6.445 -0.1062  2.2735  0.5499
18740TIP3   OH277634   5.764   6.552  12.412  0.2600 -0.1361  0.0051
18740TIP3    H177635   5.785   6.461  12.433 -0.7405  0.0986  2.3437
18740TIP3    H277636   5.778   6.599  12.494 -1.0124  1.4808 -0.6511
18741TIP3   OH277637   5.339   5.454   4.794  0.0255 -0.0158  0.5657
18741TIP3    H177638   5.401   5.461   4.867 -0.5182  0.0142  1.0359
18741TIP3    H277639   5.382   5.397   4.731  0.8436  0.5966  0.5494
18742TIP3   OH277640   2.357   2.975  11.031 -0.8248 -0.2054  0.0451
18742TIP3    H177641   2.264   2.996  11.041 -1.3872 -2.5020  0.0013
18742TIP3    H277642   2.360   2.911  10.960  0.6230 -1.2248  0.9706
18743TIP3   OH277643   0.489   2.489   0.861  0.1208 -0.1676  0.5895
18743TIP3    H177644   0.541   2.566   0.882  1.2218 -0.6397 -0.2959
18743TIP3    H277645   0.474   2.447   0.946 -1.0252  1.3172  1.1559
18744TIP3   OH277646   5.579   4.500   2.777 -0.0774 -0.3771  0.4429
18744TIP3    H177647   5.608   4.421   2.731 -0.9154 -1.4725  1.7396
18744TIP3    H277648   5.660   4.539   2.811  0.5756  0.4499 -1.8212
18745TIP3   OH277649   1.457   6.030  16.325  0.2648  0.4035 -0.0846
18745TIP3    H177650   1.478   6.082  16.247 -0.4395  0.0348 -0.5341
18745TIP3    H277651   1.446   6.094  16.395  1.4900  0.6991 -0.1478
18746TIP3   OH277652   5.187   6.059  10.905 -0.1945  0.0202 -0.0333
18746TIP3    H177653   5.104   6.012  10.892  0.7778 -1.6535 -0.4779
18746TIP3    H277654   5.249   5.991  10.930  0.4603  1.6371  3.2279
18747TIP3   OH277655   1.238   3.844   5.907 -0.5392 -0.1860  0.2876
18747TIP3    H177656   1.182   3.891   5.969 -0.4527 -0.0505  0.2635
18747TIP3    H277657   1.282   3.913   5.857  0.1967 -0.2730  0.7910
18748TIP3   OH277658   3.846   6.499  16.409  0.4639  0.3243 -0.8483
18748TIP3    H177659   3.879   6.448  16.482  1.7928  2.0492 -0.1817
18748TIP3    H277660   3.831   6.435  16.339  0.8557 -1.1085  0.3478
18749TIP3   OH277661   2.981   3.881   0.240 -0.2468  0.0502 -0.5291
18749TIP3    H177662   3.072   3.852   0.231 -0.6966 -1.2734 -1.2059
18749TIP3    H277663   2.930   3.799   0.239 -1.3980  0.7127  0.5820
18750TIP3   OH277664   0.527   3.324  13.685 -0.0319 -0.1884  0.1623
18750TIP3    H177665   0.601   3.370  13.725 -0.6803 -0.2811  1.5029
18750TIP3    H277666   0.554   3.310  13.594  0.9528  1.1569  0.2270
18751TIP3   OH277667   4.919   4.283  14.960 -0.3112  0.2381  0.0366
18751TIP3    H177668   4.956   4.226  15.028 -1.0018  0.4875  0.6471
18751TIP3    H277669   4.932   4.236  14.878  1.8835  0.5875  0.1242
18752TIP3   OH277670   1.217   1.924  16.243  0.0779 -0.3873 -0.2023
18752TIP3    H177671   1.237   1.993  16.179  2.8947  0.9928  1.9162
18752TIP3    H277672   1.276   1.852  16.221  1.3152  0.2295  0.9290
18753TIP3   OH277673   4.837   1.169  16.280 -0.2930  0.3933 -0.0025
18753TIP3    H177674   4.881   1.106  16.223 -0.3966 -0.7509  1.1406
18753TIP3    H277675   4.871   1.151  16.368 -1.5610  0.7902  0.6025
18754TIP3   OH277676   3.871   4.327  16.579  0.6924  0.1906  0.0163
18754TIP3    H177677   3.845   4.373  16.499  1.5953 -1.3303 -1.2068
18754TIP3    H277678   3.938   4.264  16.551  0.4429 -0.9792  1.8198
18755TIP3   OH277679   2.017   4.636   2.807 -0.3657  0.0134 -0.4900
18755TIP3    H177680   2.029   4.602   2.719 -1.3605 -1.5176 -0.0799
18755TIP3    H277681   2.086   4.595   2.859 -0.7452 -0.3549 -0.2627
18756TIP3   OH277682   2.648   6.739   0.036 -0.2682  0.1089 -0.1712
18756TIP3    H177683   2.637   6.655   0.081  0.6599 -0.5216 -1.0442
18756TIP3    H277684   2.743   6.750   0.032 -0.3416  2.4809  2.1451
18757TIP3   OH277685   1.351   1.592   3.590  0.0566 -0.0402  0.5797
18757TIP3    H177686   1.436   1.621   3.624 -0.8188  0.9590  2.0280
18757TIP3    H277687   1.287   1.649   3.632 -1.2029  0.9607 -2.3961
18758TIP3   OH277688   5.873   1.019  11.949 -0.8153 -0.0808 -0.1722
18758TIP3    H177689   5.914   1.023  11.862 -0.7827 -1.1531 -0.2217
18758TIP3    H277690   5.901   0.935  11.985 -0.1530  0.7114  1.2330
18759TIP3   OH277691   0.379   2.761   4.186  0.1070  0.0385  0.0209
18759TIP3    H177692   0.352   2.786   4.274 -2.0725 -0.5730 -0.4256
18759TIP3    H277693   0.365   2.839   4.133  1.3356  0.3783  0.1481
18760TIP3   OH277694   5.127   1.789  12.849  0.3465  0.1507 -0.1642
18760TIP3    H177695   5.165   1.876  12.851 -0.5785  0.5983 -1.2467
18760TIP3    H277696   5.081   1.781  12.933 -1.5903  1.6709 -1.0064
18761TIP3   OH277697   1.913   5.791  11.452  0.1843  0.4059 -1.1903
18761TIP3    H177698   1.914   5.742  11.535 -1.7871  1.5255 -0.4234
18761TIP3    H277699   1.898   5.724  11.385 -2.2650 -0.1833 -0.1839
18762TIP3   OH277700   2.736   0.399   2.015 -0.2131 -0.1653  0.0285
18762TIP3    H177701   2.763   0.449   2.092 -0.1277 -0.3474  0.1173
18762TIP3    H277702   2.773   0.447   1.941  1.8687 -1.3459  0.2245
18763TIP3   OH277703   1.758   0.769  12.631 -0.3489 -0.7949  0.1089
18763TIP3    H177704   1.738   0.704  12.564 -1.6375  0.3404 -0.6844
18763TIP3    H277705   1.821   0.828  12.588  0.4231 -1.2268  0.6401
18764TIP3   OH277706   4.831   1.277   1.423  0.3309  0.6724 -0.3590
18764TIP3    H177707   4.841   1.248   1.514  0.0959  0.7351 -0.3121
18764TIP3    H277708   4.739   1.262   1.403  0.7262 -0.9052 -1.1348
18765TIP3   OH277709   3.768   5.032   2.038 -0.2634  0.3538 -0.3959
18765TIP3    H177710   3.797   5.100   2.098 -1.9926 -0.3438  1.3387
18765TIP3    H277711   3.847   4.983   2.017  0.4276  0.6740  1.2813
18766TIP3   OH277712   3.739   5.481  12.912 -0.2496 -0.0899  0.0768
18766TIP3    H177713   3.701   5.398  12.940  1.9552 -1.4207 -0.6165
18766TIP3    H277714   3.774   5.520  12.992 -0.9722  0.0037  0.3498
18767TIP3   OH277715   5.754   2.982  15.583  0.7331 -0.3466 -0.0519
18767TIP3    H177716   5.675   2.969  15.531  0.0730  1.2985  0.4744
18767TIP3    H277717   5.777   2.895  15.614 -0.7437 -0.8910 -0.4059
18768TIP3   OH277718   4.555   5.191   5.370 -0.1179 -0.3535  0.2053
18768TIP3    H177719   4.577   5.164   5.459  0.4013 -0.2703  0.1107
18768TIP3    H277720   4.460   5.197   5.369 -0.1011  3.5221  1.9341
18769TIP3   OH277721   0.618   4.429  12.975 -0.2069  0.0078 -0.0242
18769TIP3    H177722   0.583   4.459  13.058  2.3071  0.5987  0.9059
18769TIP3    H277723   0.550   4.450  12.911 -1.7858  0.4355  1.7216
18770TIP3   OH277724   0.391   1.012  12.635 -0.7094 -0.2145 -0.0931
18770TIP3    H177725   0.306   1.006  12.591 -0.6177 -2.1537 -0.0917
18770TIP3    H277726   0.451   1.046  12.568 -1.3832  0.7269 -0.2261
18771TIP3   OH277727   2.775   1.548  17.233  0.1227 -0.2940  0.1618
18771TIP3    H177728   2.805   1.557  17.143 -0.5650  1.9526  0.0968
18771TIP3    H277729   2.680   1.542  17.226 -0.0271  1.0011  0.7443
18772TIP3   OH277730   2.932   5.307  14.350 -0.0830 -0.3637 -0.3481
18772TIP3    H177731   2.953   5.400  14.352 -0.2550 -0.3347  0.4806
18772TIP3    H277732   2.861   5.300  14.286  1.2351 -0.2239 -1.8852
18773TIP3   OH277733   0.757   0.637   3.822  0.0844 -0.6761 -0.4103
18773TIP3    H177734   0.672   0.623   3.780 -2.3811  1.4538  3.2343
18773TIP3    H277735   0.771   0.559   3.876  0.5671 -1.0944 -1.1261
18774TIP3   OH277736   4.639   5.306  15.726 -0.0013 -0.0389  0.2869
18774TIP3    H177737   4.681   5.298  15.640 -2.9720 -1.3741 -1.1851
18774TIP3    H277738   4.632   5.400  15.741  1.6657  0.2155 -0.2959
18775TIP3   OH277739   1.678   2.640   4.548 -0.6627  0.0923  0.8191
18775TIP3    H177740   1.621   2.584   4.495 -1.1775 -0.2096  1.6658
18775TIP3    H277741   1.662   2.729   4.516 -0.3149 -0.1692 -0.1084
18776TIP3   OH277742   2.548   3.578   3.360 -0.2064  0.1464  0.6303
18776TIP3    H177743   2.579   3.495   3.324 -1.0187  0.3596 -0.6507
18776TIP3    H277744   2.607   3.597   3.433  0.0364 -1.5102  0.9007
18777TIP3   OH277745   5.941   0.177   6.545 -0.5323 -0.6418  0.0054
18777TIP3    H177746   5.913   0.106   6.487 -0.6173 -0.6497  0.0551
18777TIP3    H277747   5.920   0.145   6.633 -3.9026  0.8518 -0.1154
18778TIP3   OH277748   6.024   4.795   2.805  0.2475  0.0979 -0.3806
18778TIP3    H177749   5.994   4.869   2.857 -2.0156 -0.5768 -0.6191
18778TIP3    H277750   6.072   4.834   2.732 -0.7457  1.3416 -0.3904
18779TIP3   OH277751   4.296   4.192   2.276 -0.3569  0.4242 -0.6835
18779TIP3    H177752   4.299   4.210   2.370  0.2501 -0.2480 -0.5571
18779TIP3    H277753   4.386   4.208   2.246 -0.3064 -0.3065 -0.9524
18780TIP3   OH277754   4.218   4.384   6.923  0.4966  0.8986  0.0487
18780TIP3    H177755   4.132   4.426   6.933  0.1465  0.5556 -1.3821
18780TIP3    H277756   4.212   4.306   6.978 -0.7172  0.0183 -1.2508
18781TIP3   OH277757   0.637   0.398  13.161  0.1302  0.6415 -0.2217
18781TIP3    H177758   0.596   0.398  13.075 -1.5470  1.2661  0.5309
18781TIP3    H277759   0.604   0.477  13.203  0.1034 -0.1810  1.3622
18782TIP3   OH277760   2.625   5.920  12.303  0.4923 -0.4986  0.2599
18782TIP3    H177761   2.714   5.931  12.337  0.3382 -0.5978  0.6933
18782TIP3    H277762   2.574   5.890  12.377 -0.0264  0.0900  0.1526
18783TIP3   OH277763   5.013   1.152   3.395 -0.0335  0.8718  0.0434
18783TIP3    H177764   4.992   1.144   3.302  0.8268 -0.0520 -0.0779
18783TIP3    H277765   5.105   1.176   3.397  0.1052  0.3026  0.6803
18784TIP3   OH277766   1.426   4.202  11.523  0.7194 -0.1338 -0.2729
18784TIP3    H177767   1.352   4.196  11.463  0.0422  1.8366  0.2935
18784TIP3    H277768   1.491   4.141  11.488 -0.6381 -0.8921 -1.5466
18785TIP3   OH277769   2.177   2.363   2.711  0.1625  0.1159  0.6122
18785TIP3    H177770   2.089   2.385   2.680  0.5987  0.7219 -0.2126
18785TIP3    H277771   2.188   2.417   2.790  0.2755  1.0080 -0.0029
18786TIP3   OH277772   1.314   3.889  11.421  0.2772  0.0293 -0.3739
18786TIP3    H177773   1.269   3.902  11.338 -0.5557 -2.1688 -0.3323
18786TIP3    H277774   1.406   3.879  11.398  0.0517 -0.5453 -1.0488
18787TIP3   OH277775   1.818   6.544   0.371  0.1295  0.4721  0.4799
18787TIP3    H177776   1.804   6.631   0.409  0.2418  0.2105  1.1252
18787TIP3    H277777   1.840   6.488   0.446 -1.1240 -0.3745  0.2636
18788TIP3   OH277778   6.075   2.359   4.411  0.0338  0.5476  0.5409
18788TIP3    H177779   6.151   2.395   4.366 -0.6631 -0.1461 -1.3105
18788TIP3    H277780   6.036   2.435   4.455  0.8333  1.2516  0.0859
18789TIP3   OH277781   4.206   1.438   4.233 -0.2265  0.5452  0.6231
18789TIP3    H177782   4.155   1.450   4.314 -2.4628 -0.9135 -0.4568
18789TIP3    H277783   4.150   1.474   4.164 -0.3364 -1.9880 -0.7454
18790TIP3   OH277784   6.759   1.893   4.523 -0.7461  0.4335  1.1114
18790TIP3    H177785   6.746   1.953   4.597 -1.6104  1.4673  0.1649
18790TIP3    H277786   6.670   1.866   4.499 -0.6294  1.3605 -0.5118
18791TIP3   OH277787   4.165   2.123  14.160  0.8613 -0.3487 -0.6333
18791TIP3    H177788   4.106   2.048  14.169  0.2523 -0.2840 -3.1834
18791TIP3    H277789   4.123   2.178  14.094  2.1341  1.4279 -0.0540
18792TIP3   OH277790   1.274   3.966   2.135  0.2675 -0.1548  0.1986
18792TIP3    H177791   1.360   3.927   2.148  0.8903  1.4280  1.1846
18792TIP3    H277792   1.280   4.010   2.050  0.2855 -0.3890  0.0781
18793TIP3   OH277793   3.492   0.199   3.675 -0.4368  0.2306 -0.5620
18793TIP3    H177794   3.450   0.189   3.589  1.0443  0.4839 -1.3498
18793TIP3    H277795   3.569   0.253   3.657  0.0941 -0.0164  0.8829
18794TIP3   OH277796   6.544   3.600  14.996  0.8309 -0.3618 -0.6895
18794TIP3    H177797   6.633   3.577  14.970  0.9502 -1.3651  0.4881
18794TIP3    H277798   6.488   3.561  14.929  1.2291 -0.7489 -0.8003
18795TIP3   OH277799   1.054   0.528  12.758  0.6153 -0.0257 -0.2189
18795TIP3    H177800   1.052   0.522  12.854 -1.5590 -0.5461 -0.2341
18795TIP3    H277801   1.057   0.437  12.728 -3.0350 -0.1904 -0.5489
18796TIP3   OH277802   1.934   3.123   1.084  0.6797  0.3096 -0.3104
18796TIP3    H177803   1.924   3.188   1.153  0.6988 -0.4140  0.3887
18796TIP3    H277804   2.028   3.119   1.067  0.7242  0.1011 -0.0046
18797TIP3   OH277805   6.436   6.496   2.342  0.1754 -0.0729  0.1466
18797TIP3    H177806   6.523   6.526   2.313 -0.7329  1.6742 -1.0073
18797TIP3    H277807   6.454   6.422   2.399  2.3911 -0.2806 -0.6958
18798TIP3   OH277808   3.422   5.810  15.106  0.2840 -0.1413 -0.4223
18798TIP3    H177809   3.413   5.843  15.016 -0.8074  1.0732  0.0952
18798TIP3    H277810   3.377   5.725  15.105  1.6363 -0.8849 -1.3719
18799TIP3   OH277811   1.221   0.524  16.658  0.0987 -0.1687  0.0626
18799TIP3    H177812   1.216   0.446  16.603 -0.0135 -0.7417  0.8589
18799TIP3    H277813   1.180   0.498  16.740 -1.7173  1.3338 -0.3037
18800TIP3   OH277814   3.846   1.842  15.329  0.1271  0.5010  0.2314
18800TIP3    H177815   3.751   1.833  15.319  0.5259 -2.0610 -2.4548
18800TIP3    H277816   3.866   1.794  15.409 -0.8248  1.5372  1.1378
18801TIP3   OH277817   1.141   0.953   2.102  0.3167 -0.4462 -0.0903
18801TIP3    H177818   1.199   0.892   2.148 -0.2776 -0.3246  0.8558
18801TIP3    H277819   1.072   0.898   2.065 -0.4131 -0.3583  1.0590
18802TIP3   OH277820   5.389   2.331  10.707 -0.2772  0.3666  0.3030
18802TIP3    H177821   5.415   2.248  10.748 -1.5735 -0.0402  0.3634
18802TIP3    H277822   5.293   2.329  10.710 -0.3610  1.0945 -1.2417
18803TIP3   OH277823   4.578   4.255   4.551  0.3046  0.2900  0.4272
18803TIP3    H177824   4.583   4.341   4.593  0.9922  0.0021  0.9524
18803TIP3    H277825   4.664   4.216   4.567  0.5441  0.1116 -1.1561
18804TIP3   OH277826   5.504   4.279   5.104 -0.2706  0.0587  0.2352
18804TIP3    H177827   5.592   4.246   5.086 -0.4125 -0.3754  0.3151
18804TIP3    H277828   5.516   4.371   5.126  0.2987 -0.2898  1.4557
18805TIP3   OH277829   3.935   6.144  10.626  0.0093  0.2320  0.3862
18805TIP3    H177830   3.956   6.192  10.706  1.8502 -1.9925  1.3409
18805TIP3    H277831   3.879   6.072  10.655 -0.9579  0.5260 -0.6778
18806TIP3   OH277832   6.172   3.559   2.624  0.3994 -0.1050 -0.7256
18806TIP3    H177833   6.202   3.567   2.714 -1.8393 -0.1910  0.1012
18806TIP3    H277834   6.244   3.516   2.578  1.7749  0.3733  0.8962
18807TIP3   OH277835   3.622   6.234   5.879  0.3814  0.4295 -0.0265
18807TIP3    H177836   3.684   6.270   5.816 -1.1672  1.7476 -0.8878
18807TIP3    H277837   3.614   6.142   5.856 -1.8192  1.2982 -3.3430
18808TIP3   OH277838   6.329   4.734   2.852  0.2954 -0.3250  0.3974
18808TIP3    H177839   6.259   4.738   2.787  2.1880  2.1904 -1.7298
18808TIP3    H277840   6.310   4.807   2.912  0.1928 -0.7136  0.8407
18809TIP3   OH277841   2.382   3.514  13.388 -0.0301  0.4311 -0.4321
18809TIP3    H177842   2.464   3.518  13.437  0.2728  1.3189 -0.9904
18809TIP3    H277843   2.386   3.429  13.343 -0.1659 -0.2472  0.8037
18810TIP3   OH277844   6.318   2.787   2.923  0.0620  0.5862  0.4690
18810TIP3    H177845   6.291   2.873   2.890  1.0658  0.5751 -0.4139
18810TIP3    H277846   6.236   2.747   2.953 -0.7234  1.0926 -0.8926
18811TIP3   OH277847   2.229   0.317  12.713 -0.0500  0.1521  0.7977
18811TIP3    H177848   2.179   0.345  12.790 -0.1402 -1.4648  1.3574
18811TIP3    H277849   2.183   0.359  12.639  0.0423  1.7217  1.5936
18812TIP3   OH277850   4.434   6.297   2.930  0.0337  0.0859 -0.0190
18812TIP3    H177851   4.353   6.260   2.896 -0.2153 -0.4034  1.0509
18812TIP3    H277852   4.474   6.341   2.855 -1.0691  0.0789 -0.6302
18813TIP3   OH277853   4.537   0.267   4.376  0.7445 -0.1265  0.3729
18813TIP3    H177854   4.460   0.292   4.326  1.9306 -1.0471 -2.0918
18813TIP3    H277855   4.504   0.244   4.463 -1.6336  0.0467 -0.4384
18814TIP3   OH277856   1.398   5.355   5.765  0.0968  0.2258 -0.2878
18814TIP3    H177857   1.442   5.369   5.849  1.2285  2.5001 -1.1712
18814TIP3    H277858   1.305   5.356   5.785  0.3514 -0.5169  1.0684
18815TIP3   OH277859   2.523   5.909  10.707  0.3393  0.3381  0.5559
18815TIP3    H177860   2.573   5.977  10.663 -0.7361  0.5712 -0.3681
18815TIP3    H277861   2.433   5.924  10.679 -0.1765 -0.3994  1.7301
18816TIP3   OH277862   3.651   5.054   0.563 -0.1060 -0.4838 -0.3761
18816TIP3    H177863   3.618   4.964   0.573 -0.1451 -0.4315  0.0098
18816TIP3    H277864   3.601   5.104   0.628 -1.2734  0.1496 -1.7216
18817TIP3   OH277865   2.429   3.955   0.084 -0.0328 -0.5841  0.0043
18817TIP3    H177866   2.525   3.960   0.090  0.0876  0.7011 -2.0548
18817TIP3    H277867   2.407   3.871   0.125  1.8139 -0.3021  1.7649
18818TIP3   OH277868   0.245   1.217   1.234  0.0185  0.1653  0.0405
18818TIP3    H177869   0.267   1.300   1.276 -2.1609  0.7968  0.0713
18818TIP3    H277870   0.303   1.153   1.275  2.0698  1.7209 -0.3207
18819TIP3   OH277871   5.337   1.270   0.410 -0.2118 -0.5550  0.5401
18819TIP3    H177872   5.404   1.247   0.345 -0.0430  0.0244  0.5044
18819TIP3    H277873   5.276   1.326   0.362  0.6561  1.0226  1.2193
18820TIP3   OH277874   1.126   3.237  13.272 -0.7741 -0.3958 -0.5414
18820TIP3    H177875   1.088   3.194  13.349 -0.7729 -1.2993 -1.0346
18820TIP3    H277876   1.051   3.260  13.218 -0.9300  1.9839  0.5753
18821TIP3   OH277877   1.996   1.114   3.726 -0.2832 -0.0352  0.2328
18821TIP3    H177878   1.917   1.102   3.779 -1.2916 -1.1310 -1.4195
18821TIP3    H277879   2.065   1.132   3.790 -1.3923 -1.4759  1.9546
18822TIP3   OH277880   2.731   5.735  16.550  0.3787 -0.0209  0.3858
18822TIP3    H177881   2.650   5.717  16.503  1.5337 -1.2572 -1.2234
18822TIP3    H277882   2.717   5.697  16.637 -0.8207 -0.0684  0.1823
18823TIP3   OH277883   4.635   5.415   6.049  0.3199 -0.4806 -0.3366
18823TIP3    H177884   4.644   5.505   6.080 -0.7317 -0.1474 -0.9415
18823TIP3    H277885   4.555   5.383   6.091  1.5965 -1.7490  1.2565
18824TIP3   OH277886   4.558   6.238   6.309 -0.1379 -0.0056  0.4142
18824TIP3    H177887   4.624   6.178   6.274 -0.2149 -1.1920  2.1707
18824TIP3    H277888   4.608   6.315   6.335  0.3114 -0.1985  0.1366
18825TIP3   OH277889   5.012   1.416   3.846  0.2991 -0.5112  0.5472
18825TIP3    H177890   4.960   1.467   3.783  0.3829 -0.7043  0.3210
18825TIP3    H277891   5.100   1.452   3.838  0.2249 -0.2527  0.8581
18826TIP3   OH277892   2.660   6.703   1.667 -0.2428 -0.0262  0.1375
18826TIP3    H177893   2.606   6.662   1.600  2.9037 -2.3991 -1.1879
18826TIP3    H277894   2.723   6.756   1.619  1.1479 -0.5610  1.3009
18827TIP3   OH277895   1.733   1.188   4.723 -0.2610 -0.0350 -0.0601
18827TIP3    H177896   1.801   1.223   4.781 -0.0079 -0.2155 -0.2498
18827TIP3    H277897   1.659   1.248   4.735 -0.6740 -0.8017  1.4346
18828TIP3   OH277898   0.942   2.971   5.113  0.6352 -0.2312  0.1193
18828TIP3    H177899   0.933   2.921   5.194  0.0593  1.1598  0.9536
18828TIP3    H277900   0.874   2.936   5.055 -1.8871  1.5763  1.7973
18829TIP3   OH277901   6.550   4.527   5.916  0.1670  0.0707  0.3783
18829TIP3    H177902   6.637   4.524   5.875 -0.2837  0.6556 -0.6648
18829TIP3    H277903   6.567   4.559   6.005  0.9470  0.9962 -0.0812
18830TIP3   OH277904   5.954   6.281   6.075 -0.4110 -0.0157 -0.5573
18830TIP3    H177905   6.027   6.335   6.105 -0.9737 -0.3607  1.5493
18830TIP3    H277906   5.962   6.283   5.979  0.7149  2.1933 -0.4991
18831TIP3   OH277907   6.231   2.292   2.289 -0.1981 -0.5867 -0.0219
18831TIP3    H177908   6.152   2.345   2.295 -0.6786 -1.4210  2.1588
18831TIP3    H277909   6.236   2.247   2.374  1.3822 -2.3133 -0.9485
18832TIP3   OH277910   2.598   6.728   3.888 -0.0582  0.1932  0.3146
18832TIP3    H177911   2.607   6.822   3.868 -0.0753  0.7958  2.8102
18832TIP3    H277912   2.607   6.723   3.983  0.5093 -2.4442  0.1901
18833TIP3   OH277913   0.677   5.563  16.069  0.1623 -0.3013 -0.3054
18833TIP3    H177914   0.699   5.650  16.102 -0.8949  0.4871 -1.5632
18833TIP3    H277915   0.721   5.503  16.129  1.2508  1.0926  0.3582
18834TIP3   OH277916   4.494   1.742  12.006  0.8318 -0.5900  0.3845
18834TIP3    H177917   4.479   1.828  11.967 -0.5558 -1.0513 -0.1490
18834TIP3    H277918   4.559   1.758  12.074  0.6997  0.8581  0.2038
18835TIP3   OH277919   6.398   1.285   0.425 -0.4408  0.1305 -0.5463
18835TIP3    H177920   6.335   1.267   0.354 -0.6637 -1.2277 -0.0356
18835TIP3    H277921   6.475   1.233   0.402 -0.2674  0.2007 -0.1322
18836TIP3   OH277922   6.505   1.245  13.061  0.4008 -0.9606  0.5480
18836TIP3    H177923   6.473   1.278  13.145 -0.1292 -2.0398  0.7828
18836TIP3    H277924   6.570   1.180  13.084  2.8843  1.1713  0.0865
18837TIP3   OH277925   3.959   0.679  17.208 -0.2224 -0.7565 -0.0311
18837TIP3    H177926   3.907   0.759  17.201 -2.1318 -1.8948  0.2807
18837TIP3    H277927   4.044   0.708  17.241  0.1267  1.4515 -2.5090
18838TIP3   OH277928   5.795   1.441  12.288 -0.5483  0.3351  0.9911
18838TIP3    H177929   5.774   1.424  12.196 -0.4489 -0.1525  1.0568
18838TIP3    H277930   5.870   1.385  12.306  0.7422  1.9330  0.8039
18839TIP3   OH277931   1.411   2.004  14.963  0.0158 -0.3150 -0.4204
18839TIP3    H177932   1.480   2.055  14.921  0.5361  0.3355  1.1415
18839TIP3    H277933   1.427   1.914  14.937  0.9973 -0.0770 -0.6623
18840TIP3   OH277934   4.624   3.037   0.824  0.2453 -0.3365  0.1398
18840TIP3    H177935   4.695   3.099   0.809 -1.2384  1.9281  1.8900
18840TIP3    H277936   4.560   3.057   0.756 -0.9617  1.2752  1.6879
18841TIP3   OH277937   2.205   3.016   2.859  0.5854  0.3654  0.4010
18841TIP3    H177938   2.162   2.932   2.873 -2.0139  1.4920 -0.0839
18841TIP3    H277939   2.286   2.995   2.814 -0.5055 -1.8092 -0.6909
18842TIP3   OH277940   2.364   2.376  13.170  0.1918 -0.4942  0.6230
18842TIP3    H177941   2.459   2.370  13.184  0.3208  0.3577  0.1320
18842TIP3    H277942   2.352   2.454  13.116 -0.7142 -1.1143 -0.1019
18843TIP3   OH277943   6.546   3.014  15.192 -0.1259  0.0700  0.5414
18843TIP3    H177944   6.506   3.010  15.279  1.0422 -1.2497  1.0508
18843TIP3    H277945   6.541   3.107  15.168  0.2960  0.6131  2.3833
18844TIP3   OH277946   2.860   1.251  11.636 -0.0187  0.1220 -0.2294
18844TIP3    H177947   2.895   1.314  11.574  1.0094 -0.3050 -0.1056
18844TIP3    H277948   2.930   1.239  11.700  0.1665 -1.7963 -0.7359
18845TIP3   OH277949   0.289   0.941   1.594  0.0811  0.0718  0.3781
18845TIP3    H177950   0.227   1.013   1.585  2.0274  1.6763 -0.9830
18845TIP3    H277951   0.270   0.884   1.519  0.3745  0.6591 -0.1467
18846TIP3   OH277952   2.033   2.854  11.332 -0.3529 -0.6879  0.2721
18846TIP3    H177953   2.012   2.940  11.368 -0.5166 -0.6047 -0.0204
18846TIP3    H277954   1.970   2.795  11.373 -2.0062 -0.2558 -1.5017
18847TIP3   OH277955   0.799   1.727   0.048 -0.0965 -0.6515 -0.2811
18847TIP3    H177956   0.732   1.705  -0.016 -1.1694 -0.2027  0.6537
18847TIP3    H277957   0.830   1.643   0.081  0.0304 -0.8700 -0.9398
18848TIP3   OH277958   2.044   5.310  13.184 -0.0205  0.3093 -0.2850
18848TIP3    H177959   2.044   5.393  13.231  1.5136  0.5188 -0.6006
18848TIP3    H277960   2.011   5.246  13.247  3.2069  0.3240  1.6272
18849TIP3   OH277961   0.675   3.335   5.534  0.0371 -0.1382 -0.2480
18849TIP3    H177962   0.615   3.341   5.608 -3.3337 -0.6962 -2.6632
18849TIP3    H277963   0.677   3.242   5.512  1.2823 -0.0372 -0.6756
18850TIP3   OH277964   5.693   3.039   2.985 -0.4110  0.1489  0.1101
18850TIP3    H177965   5.600   3.019   2.992 -0.7909  1.6379 -0.3480
18850TIP3    H277966   5.697   3.134   2.978  1.1845  0.1652  0.6972
18851TIP3   OH277967   2.608   4.282   6.009  0.4910 -0.4473  0.2219
18851TIP3    H177968   2.673   4.212   6.011 -0.2651 -1.1528  1.9319
18851TIP3    H277969   2.576   4.288   6.099 -0.1983  1.4202 -0.1048
18852TIP3   OH277970   0.763   5.279   6.333 -0.5151  0.1542  0.3432
18852TIP3    H177971   0.679   5.244   6.303 -0.8157  1.5266 -0.5511
18852TIP3    H277972   0.745   5.371   6.353  0.6034  0.2740  0.8780
18853TIP3   OH277973   3.580   6.197  11.112 -0.1036 -0.1496  0.1329
18853TIP3    H177974   3.512   6.230  11.054  0.0954  0.2899  0.1459
18853TIP3    H277975   3.662   6.225  11.071  0.1226 -1.5447 -0.4274
18854TIP3   OH277976   6.262   3.305   0.260 -0.2654 -0.3437  0.3614
18854TIP3    H177977   6.295   3.302   0.349 -0.6130 -2.1474  0.4683
18854TIP3    H277978   6.340   3.315   0.205  0.0600 -0.4233  0.8077
18855TIP3   OH277979   5.687   5.949   1.683 -0.1562  0.0417  0.3266
18855TIP3    H177980   5.713   5.975   1.771  0.9860  2.1323 -0.5618
18855TIP3    H277981   5.599   5.985   1.672 -0.7942 -1.2384  0.9729
18856TIP3   OH277982   2.002   0.360  13.321 -0.6797 -0.9792 -0.0258
18856TIP3    H177983   1.916   0.325  13.345 -0.3808 -2.0645 -0.4774
18856TIP3    H277984   2.053   0.358  13.402 -1.2091  0.1286  0.3575
18857TIP3   OH277985   1.517   5.806  13.985 -0.0396 -0.8425  0.2875
18857TIP3    H177986   1.445   5.856  13.947 -0.1148 -0.9812  0.2470
18857TIP3    H277987   1.595   5.855  13.962 -0.1572 -0.4423  0.7239
18858TIP3   OH277988   1.506   1.826  12.497 -0.0114  0.1220  0.1156
18858TIP3    H177989   1.505   1.873  12.580 -1.5463  0.4408 -0.0437
18858TIP3    H277990   1.497   1.893  12.430 -1.8290 -0.3020 -0.1316
18859TIP3   OH277991   1.394   6.189   4.271 -0.2957  0.4228 -0.2441
18859TIP3    H177992   1.385   6.209   4.364 -0.4322  0.1884 -0.2067
18859TIP3    H277993   1.306   6.169   4.241 -0.5234  2.0675 -0.7992
18860TIP3   OH277994   0.464   6.250   1.560 -0.0680  0.3654 -0.0464
18860TIP3    H177995   0.426   6.337   1.563 -2.5287 -0.5804 -1.2345
18860TIP3    H277996   0.554   6.264   1.530 -0.0188  2.5479  0.9414
18861TIP3   OH277997   3.731   0.513  15.057  0.3904 -0.9761 -0.4759
18861TIP3    H177998   3.708   0.582  14.995 -1.0154  0.3089  1.3662
18861TIP3    H277999   3.650   0.462  15.068  0.2730 -0.5279  1.0486
18862TIP3   OH278000   3.951   2.059  13.730  0.3195  0.5790  0.1996
18862TIP3    H178001   3.878   2.023  13.781  1.2097 -2.6466 -0.5882
18862TIP3    H278002   4.015   2.085  13.796 -0.2366  0.3973  0.8260
18863TIP3   OH278003   3.836   0.608  13.824  0.1673  0.1607  0.4052
18863TIP3    H178004   3.918   0.645  13.790 -1.1129  0.6459 -2.4329
18863TIP3    H278005   3.811   0.667  13.896  0.2043  2.5565 -1.4370
18864TIP3   OH278006   2.840   4.578  13.005  0.2703  0.1440 -0.0215
18864TIP3    H178007   2.832   4.508  13.070 -0.3188  0.0963 -0.1419
18864TIP3    H278008   2.923   4.622  13.027 -0.3095  0.6415  1.2677
18865TIP3   OH278009   2.473   2.574  15.633  0.0649 -0.6521  0.1904
18865TIP3    H178010   2.451   2.534  15.717 -0.4193  0.4656  0.6145
18865TIP3    H278011   2.568   2.563  15.625  0.0043 -1.4622  0.5020
18866TIP3   OH278012   3.643   4.239  16.948 -0.0800  0.0374  0.1206
18866TIP3    H178013   3.725   4.198  16.976  0.8582  0.9949 -1.0688
18866TIP3    H278014   3.622   4.196  16.865  0.1300  0.9204 -0.4040
18867TIP3   OH278015   6.405   5.305  15.584  0.2713 -0.2553 -0.1343
18867TIP3    H178016   6.391   5.225  15.534 -0.7750 -0.1231 -0.0708
18867TIP3    H278017   6.351   5.371  15.540  1.3552  0.5036 -0.3760
18868TIP3   OH278018   5.670   0.694  15.525  0.6472  0.2816  0.0680
18868TIP3    H178019   5.707   0.777  15.494 -0.7215  0.3086 -1.7128
18868TIP3    H278020   5.700   0.630  15.461  0.2169 -0.2531  0.3989
18869TIP3   OH278021   5.031   4.213  15.502 -0.1450 -0.2570 -0.1793
18869TIP3    H178022   5.126   4.227  15.498 -0.2321  0.9997  1.1994
18869TIP3    H278023   5.020   4.144  15.567 -0.2302  0.7113  0.8603
18870TIP3   OH278024   3.394   1.941   4.726 -0.1485 -0.1857 -0.0114
18870TIP3    H178025   3.366   2.032   4.711  0.2016 -0.1415 -0.4164
18870TIP3    H278026   3.337   1.889   4.669 -0.1364 -0.1887 -0.0210
18871TIP3   OH278027   0.055   5.850   5.360  0.2723  0.0086  0.0196
18871TIP3    H178028   0.094   5.836   5.446 -0.3414 -1.0456  0.1383
18871TIP3    H278029   0.011   5.768   5.340  2.4289 -0.7052 -2.3796
18872TIP3   OH278030   1.030   3.723  15.557 -0.7129 -0.2064  1.1547
18872TIP3    H178031   0.976   3.772  15.618 -0.6210  0.2344  0.8904
18872TIP3    H278032   1.033   3.635  15.592 -2.4933 -0.5234  0.6129
18873TIP3   OH278033   1.471   3.793   6.064 -0.5919  0.0255 -0.1448
18873TIP3    H178034   1.441   3.703   6.055 -0.5658 -0.0220  0.2323
18873TIP3    H278035   1.391   3.846   6.054 -0.2700  0.1390 -3.0216
18874TIP3   OH278036   5.537   5.617   2.740 -0.3575  0.1107  0.2756
18874TIP3    H178037   5.455   5.627   2.691 -1.3005 -0.5740  1.6151
18874TIP3    H278038   5.598   5.577   2.678 -1.7564 -1.5003 -0.1468
18875TIP3   OH278039   1.521   4.418  16.647 -0.2068 -0.2955 -0.2042
18875TIP3    H178040   1.524   4.327  16.618 -0.1476 -0.2606 -0.3088
18875TIP3    H278041   1.484   4.415  16.735  0.6453 -0.5058  0.1529
18876TIP3   OH278042   4.350   0.151  14.762 -0.0358 -0.0771  0.0976
18876TIP3    H178043   4.439   0.124  14.786  0.2594 -0.4095 -1.2678
18876TIP3    H278044   4.294   0.083  14.799  0.1557  0.6115  1.7697
18877TIP3   OH278045   5.639   2.311   1.032  0.2837 -0.3102  0.2367
18877TIP3    H178046   5.619   2.345   1.120  0.2771 -0.2791  0.2232
18877TIP3    H278047   5.726   2.272   1.041 -0.7975 -2.7574  0.9431
18878TIP3   OH278048   5.637   0.725   1.963 -0.2100  0.2193  0.2444
18878TIP3    H178049   5.640   0.799   2.024  1.5994 -0.1825  0.6897
18878TIP3    H278050   5.680   0.758   1.884 -0.9649  0.1732 -0.1958
18879TIP3   OH278051   2.283   0.854   1.296 -0.1308  0.3393 -0.0090
18879TIP3    H178052   2.285   0.854   1.200  1.7109  2.9400 -0.0882
18879TIP3    H278053   2.354   0.913   1.321  0.5683 -1.5638  3.0347
18880TIP3   OH278054   3.829   3.431   4.446 -0.1485  0.0534  0.5321
18880TIP3    H178055   3.740   3.436   4.413 -0.2247  1.2996  0.8672
18880TIP3    H278056   3.884   3.447   4.370 -0.1771 -1.1894  0.2304
18881TIP3   OH278057   3.470   3.732   4.163  0.1508  0.0529  0.5918
18881TIP3    H178058   3.420   3.666   4.211  1.0146 -0.0628  1.3636
18881TIP3    H278059   3.455   3.813   4.212  1.3110 -0.1325  1.2853
18882TIP3   OH278060   6.710   1.560  17.230  0.3396  0.4250  0.0592
18882TIP3    H178061   6.805   1.566  17.218  0.3513 -0.1917 -0.1566
18882TIP3    H278062   6.673   1.605  17.154  0.4551  0.8918  0.2747
18883TIP3   OH278063   2.145   2.540   0.517 -0.2059  0.3854  0.4017
18883TIP3    H178064   2.051   2.529   0.534 -0.4641  0.1090 -1.0712
18883TIP3    H278065   2.167   2.622   0.560 -0.9056 -0.0043  1.5565
18884TIP3   OH278066   4.165   0.695  15.422 -0.2191 -0.1364 -1.0448
18884TIP3    H178067   4.243   0.714  15.370  0.6325 -2.1448 -0.6087
18884TIP3    H278068   4.181   0.607  15.458 -1.9851  0.0587  0.3632
18885TIP3   OH278069   5.984   5.800  14.009 -0.3402 -0.1107 -0.0737
18885TIP3    H178070   5.912   5.843  13.964  0.2197 -2.5816 -3.7713
18885TIP3    H278071   6.058   5.861  14.001 -1.3647  1.4658  1.7734
18886TIP3   OH278072   5.719   1.999  13.012 -0.1769 -0.1058 -0.5724
18886TIP3    H178073   5.778   2.012  12.937 -1.0872 -1.0858 -1.4934
18886TIP3    H278074   5.770   1.947  13.074  1.3706  2.5283  0.5234
18887TIP3   OH278075   4.093   5.561  11.493  0.2161  0.1537 -0.1792
18887TIP3    H178076   4.035   5.490  11.517 -1.2053  0.5818 -2.0879
18887TIP3    H278077   4.097   5.617  11.571  1.4996 -2.0154  1.4051
18888TIP3   OH278078   0.934   6.541  12.802 -0.5275  0.2722  0.1114
18888TIP3    H178079   0.951   6.450  12.776  0.2565  1.2561 -3.4755
18888TIP3    H278080   0.864   6.535  12.867  0.7742 -2.9364  1.4389
18889TIP3   OH278081   3.943   2.951  17.323 -0.1443  0.7542 -0.0076
18889TIP3    H178082   3.987   2.972  17.241 -0.3943  0.8984 -0.1054
18889TIP3    H278083   3.977   3.015  17.386  2.0471 -0.9768  0.6731
18890TIP3   OH278084   4.162   4.708   2.275  0.9115  0.6569 -0.0324
18890TIP3    H178085   4.126   4.749   2.354  2.3265 -3.2763  3.0078
18890TIP3    H278086   4.089   4.660   2.237  0.7189  0.7415  0.2290
18891TIP3   OH278087   3.582   5.222  14.675 -0.0316 -0.1718 -0.2094
18891TIP3    H178088   3.558   5.137  14.638 -0.0567  0.3074 -1.3385
18891TIP3    H278089   3.678   5.220  14.679 -0.0652 -0.7269  0.9903
18892TIP3   OH278090   4.358   4.422   3.223 -0.5380  0.4394  0.1217
18892TIP3    H178091   4.308   4.490   3.178 -0.6754  1.3974  1.6466
18892TIP3    H278092   4.422   4.392   3.159  0.7181  3.2704 -0.0867
18893TIP3   OH278093   5.333   1.730   4.452  0.0871  0.5664 -0.1094
18893TIP3    H178094   5.373   1.712   4.536  1.3045 -0.4944 -0.8781
18893TIP3    H278095   5.303   1.821   4.458 -0.3508  0.3358  1.6293
18894TIP3   OH278096   1.352   3.911  14.422  0.0724 -0.0953  0.1379
18894TIP3    H178097   1.298   3.832  14.411  0.7904 -0.6357  0.4571
18894TIP3    H278098   1.412   3.889  14.494 -0.7142  1.2868  1.2586
18895TIP3   OH278099   3.756   1.664   5.488  0.4982 -0.6690  0.0512
18895TIP3    H178100   3.682   1.717   5.461  0.8960 -0.9088 -1.6198
18895TIP3    H278101   3.749   1.658   5.583 -0.8236  0.4617  0.0380
18896TIP3   OH278102   0.377   2.100   3.482  0.3237  0.2560 -0.1512
18896TIP3    H178103   0.436   2.025   3.482  0.7469  0.5674  0.7066
18896TIP3    H278104   0.435   2.176   3.494 -0.0633  0.7608 -1.2803
18897TIP3   OH278105   2.729   3.868  13.941  0.1340  0.1881 -0.0066
18897TIP3    H178106   2.646   3.901  13.976  0.2429  0.9422 -0.4506
18897TIP3    H278107   2.704   3.816  13.865 -0.2313 -2.5822  1.8527
18898TIP3   OH278108   6.284   1.679   5.544 -0.1442 -0.0299  0.4638
18898TIP3    H178109   6.365   1.681   5.595  1.0356  0.6190 -1.3421
18898TIP3    H278110   6.219   1.645   5.605  1.0343  1.2660  2.5929
18899TIP3   OH278111   4.355   6.679   0.032  0.1527 -0.0556 -0.0337
18899TIP3    H178112   4.263   6.705   0.030 -0.0262 -0.7069 -2.6324
18899TIP3    H278113   4.372   6.663   0.125 -2.9098 -1.8863  0.3587
18900TIP3   OH278114   1.599   0.661  15.451  0.6405  0.7974  0.2360
18900TIP3    H178115   1.527   0.635  15.392  1.5649 -2.2046  0.2422
18900TIP3    H278116   1.667   0.597  15.433  2.8691  2.7924  1.1608
18901TIP3   OH278117   1.319   4.989  15.080  0.2195  0.0389  0.5681
18901TIP3    H178118   1.374   4.960  15.006 -1.8247  1.0103 -1.4437
18901TIP3    H278119   1.320   5.084  15.075 -2.4632  0.1044 -0.2580
18902TIP3   OH278120   6.499   5.535  14.821  0.0042 -0.0088 -0.7331
18902TIP3    H178121   6.543   5.462  14.866 -0.3288 -0.4175 -1.0572
18902TIP3    H278122   6.464   5.589  14.892 -0.5363 -0.6591 -0.4936
18903TIP3   OH278123   1.817   3.619  17.269  0.7256  0.1207  0.1203
18903TIP3    H178124   1.837   3.528  17.249  2.4342  0.5910 -0.4477
18903TIP3    H278125   1.748   3.615  17.336  0.4989 -1.5590 -0.1811
18904TIP3   OH278126   5.975   4.688  11.317 -0.6297  0.2276  0.1707
18904TIP3    H178127   5.937   4.709  11.231  0.7022 -0.1578 -0.5319
18904TIP3    H278128   6.027   4.610  11.302  0.1219  0.5100  1.2061
18905TIP3   OH278129   3.669   2.100   4.518 -0.4124  0.6200  0.0595
18905TIP3    H178130   3.587   2.083   4.471 -0.6796  1.1176  0.3341
18905TIP3    H278131   3.687   2.192   4.502 -0.3567  0.7281  0.6876
18906TIP3   OH278132   0.630   2.668   0.053  0.0260 -0.3271 -0.4949
18906TIP3    H178133   0.584   2.660  -0.030 -0.7768 -0.2950 -0.0607
18906TIP3    H278134   0.573   2.723   0.107 -1.4535 -3.5007  1.4574
18907TIP3   OH278135   3.577   5.604   4.772  0.0302 -0.2144  0.2802
18907TIP3    H178136   3.581   5.697   4.749  1.3828 -0.0107  1.2727
18907TIP3    H278137   3.653   5.565   4.729 -0.0940 -0.7138  0.5051
18908TIP3   OH278138   1.378   0.644  12.841  0.1165 -0.4196  0.1409
18908TIP3    H178139   1.361   0.683  12.927  1.6461 -0.7396  0.6249
18908TIP3    H278140   1.293   0.643  12.798 -0.3696  1.3552  0.9731
18909TIP3   OH278141   1.927   5.890  13.860 -0.7452  0.3447 -0.3170
18909TIP3    H178142   1.884   5.964  13.904  0.5468  0.2909  1.0956
18909TIP3    H278143   2.012   5.881  13.903 -0.0086 -0.6694 -1.8599
18910TIP3   OH278144   1.767   5.347  15.685  0.0774 -0.8082  0.2244
18910TIP3    H178145   1.703   5.277  15.696 -0.5960 -0.2398  0.0230
18910TIP3    H278146   1.844   5.318  15.734 -0.3006 -1.5380  0.3987
18911TIP3   OH278147   2.213   1.327   1.312 -0.4316 -0.0546 -0.5040
18911TIP3    H178148   2.145   1.265   1.338 -0.8511  1.0081  1.1294
18911TIP3    H278149   2.226   1.382   1.390  1.8833  0.1604 -0.9691
18912TIP3   OH278150   5.957   2.649   4.980  0.0353  0.2786  0.1676
18912TIP3    H178151   6.040   2.669   5.024  0.5731  1.4776 -1.2930
18912TIP3    H278152   5.898   2.719   5.007 -0.8793 -1.1195  2.0064
18913TIP3   OH278153   0.979   0.226  14.262 -0.5568 -0.0331  0.3791
18913TIP3    H178154   1.071   0.250  14.261 -0.7799  0.8648  0.6563
18913TIP3    H278155   0.967   0.173  14.183 -0.0034  0.6028 -0.1426
18914TIP3   OH278156   0.336   0.867  16.967  0.0730 -0.1577 -0.1589
18914TIP3    H178157   0.340   0.909  16.881 -0.8370  1.0086  0.3286
18914TIP3    H278158   0.310   0.777  16.949  3.2865 -0.9764 -1.3439
18915TIP3   OH278159   3.554   6.599  15.494 -0.4434  0.5827 -0.5912
18915TIP3    H178160   3.522   6.513  15.467 -0.5058  0.0944  0.9746
18915TIP3    H278161   3.506   6.660  15.437 -1.9187 -0.3010 -0.3688
18916TIP3   OH278162   0.700   3.166   6.552 -0.3764  0.2394 -0.4700
18916TIP3    H178163   0.772   3.207   6.600 -0.1332  1.4032 -1.7668
18916TIP3    H278164   0.724   3.073   6.547  1.1310  0.6307 -1.0093
18917TIP3   OH278165   6.047   6.504  14.914 -0.1366  0.0863  0.2774
18917TIP3    H178166   6.123   6.451  14.892 -0.1350  0.5952 -1.0463
18917TIP3    H278167   6.054   6.518  15.008  1.3438  0.0133  0.2062
18918TIP3   OH278168   6.317   2.116   2.081 -0.8983 -0.1254  0.0364
18918TIP3    H178169   6.357   2.171   2.013  1.7758 -1.6269  0.2688
18918TIP3    H278170   6.289   2.178   2.148  0.4789  1.1013 -0.4575
18919TIP3   OH278171   1.706   4.036   5.788  0.3827  0.2298 -0.4795
18919TIP3    H178172   1.684   4.111   5.843 -0.3814 -0.0113 -0.4378
18919TIP3    H278173   1.789   4.059   5.747  0.2641  1.0038 -0.2993
18920TIP3   OH278174   0.691   2.655  11.213  0.6674 -0.0857  0.1709
18920TIP3    H178175   0.688   2.748  11.192  0.8474 -0.0653  0.2365
18920TIP3    H278176   0.747   2.650  11.290 -1.1169  0.0015  1.5386
18921TIP3   OH278177   5.678   6.449   1.581  0.3092 -0.6164 -0.0238
18921TIP3    H178178   5.732   6.381   1.542 -0.1485 -1.5973  0.9978
18921TIP3    H278179   5.616   6.473   1.512  2.6007  1.2935 -1.6095
18922TIP3   OH278180   0.924   2.524  17.014 -0.6074 -0.1392  0.4718
18922TIP3    H178181   0.918   2.538  17.108  0.0345  0.9294  0.3697
18922TIP3    H278182   1.012   2.488  17.000 -0.7437 -0.4106  0.2921
18923TIP3   OH278183   0.161   3.736   5.314  0.1343 -0.0799  0.0016
18923TIP3    H178184   0.161   3.797   5.388 -0.4820  0.1764 -0.2036
18923TIP3    H278185   0.153   3.792   5.237 -1.5209 -0.4600 -0.1403
18924TIP3   OH278186   2.609   5.042   1.008  0.3952  0.0128 -0.6918
18924TIP3    H178187   2.605   5.054   1.103  1.3471  0.9810 -0.7607
18924TIP3    H278188   2.546   5.105   0.974  0.4623  0.0568 -0.7337
18925TIP3   OH278189   4.858   0.831   0.284 -0.4185  0.3020  0.2645
18925TIP3    H178190   4.835   0.864   0.371  0.4379  2.4134 -0.2551
18925TIP3    H278191   4.797   0.875   0.224  0.0870  0.1600 -0.3671
18926TIP3   OH278192   0.437   3.550   6.832 -0.0036  0.2120 -0.4748
18926TIP3    H178193   0.345   3.525   6.833  0.0887 -0.1038  0.2247
18926TIP3    H278194   0.463   3.541   6.740 -0.4104 -0.6443 -0.5117
18927TIP3   OH278195   3.945   3.004   4.268 -0.6182 -0.0261  0.1560
18927TIP3    H178196   3.937   2.995   4.173  0.4034 -0.9680  0.1302
18927TIP3    H278197   3.987   3.089   4.281 -1.5978  0.5202 -0.1745
18928TIP3   OH278198   4.360   0.576   3.781  0.4060 -0.3153 -0.7576
18928TIP3    H178199   4.327   0.636   3.848  1.8234 -0.5262  0.1792
18928TIP3    H278200   4.339   0.619   3.698  0.6480  1.0922 -0.1215
18929TIP3   OH278201   4.401   5.405  12.396 -0.2730  0.0408  0.4631
18929TIP3    H178202   4.369   5.447  12.476  0.7141  0.8079  0.4676
18929TIP3    H278203   4.490   5.377  12.418 -0.0958  0.0032 -0.2816
18930TIP3   OH278204   1.710   6.376  16.782 -0.2954 -0.4814 -0.0577
18930TIP3    H178205   1.700   6.285  16.752 -1.4330 -0.3085 -0.2405
18930TIP3    H278206   1.674   6.376  16.871  0.6180 -0.4128  0.3221
18931TIP3   OH278207   4.399   2.565   0.261 -0.8055 -0.4779  0.7538
18931TIP3    H178208   4.346   2.626   0.311 -0.5502 -1.1252  1.8580
18931TIP3    H278209   4.338   2.521   0.203 -0.6473  2.6666 -2.1192
18932TIP3   OH278210   5.812   3.132  14.074 -0.1780 -0.0940  0.6085
18932TIP3    H178211   5.753   3.189  14.124 -1.6910 -1.1686  0.1241
18932TIP3    H278212   5.791   3.044  14.104  1.1400 -0.5166  0.3423
18933TIP3   OH278213   2.569   1.620  11.556 -0.1104  0.1865  0.0324
18933TIP3    H178214   2.595   1.562  11.484 -1.4111  1.3795 -1.4716
18933TIP3    H278215   2.517   1.564  11.614 -0.9005 -0.3238 -1.1078
18934TIP3   OH278216   6.460   6.268  11.872  0.5946  0.6619 -0.3599
18934TIP3    H178217   6.384   6.276  11.814  0.2048  0.1494  0.0592
18934TIP3    H278218   6.428   6.299  11.957  0.8759  0.5052 -0.1947
18935TIP3   OH278219   0.010   0.004  16.648  0.0051 -0.5843 -0.3744
18935TIP3    H178220  -0.077   0.001  16.689 -0.8074 -1.7494 -2.0298
18935TIP3    H278221   0.063   0.057  16.707 -1.9257  0.4423  0.5371
18936TIP3   OH278222   5.819   6.733  14.240 -0.3568 -0.1553 -0.3094
18936TIP3    H178223   5.748   6.790  14.269  0.0828  0.2853 -0.0795
18936TIP3    H278224   5.779   6.677  14.174 -0.9597 -0.0303 -0.0594
18937TIP3   OH278225   3.745   2.323  14.826  0.0118  0.2409 -0.0823
18937TIP3    H178226   3.692   2.244  14.815  0.0369  0.1363  0.5119
18937TIP3    H278227   3.730   2.349  14.917  1.5408 -0.1901  0.3235
18938TIP3   OH278228   4.446   2.348  14.687  0.1108 -0.2813 -0.0635
18938TIP3    H178229   4.461   2.352  14.592  1.4299 -1.5800  0.0620
18938TIP3    H278230   4.496   2.272  14.716 -0.8840 -0.3453  1.5796
18939TIP3   OH278231   6.439   1.587   0.886 -0.1672 -0.5970 -0.4754
18939TIP3    H178232   6.369   1.574   0.823  0.3797  2.0155 -1.7755
18939TIP3    H278233   6.519   1.583   0.833  0.4802 -0.8051  0.5010
18940TIP3   OH278234   2.896   5.009  15.157  0.4147 -0.5328 -0.2250
18940TIP3    H178235   2.817   4.990  15.208 -1.1033  0.6291 -2.0062
18940TIP3    H278236   2.920   5.098  15.185  0.3298 -0.3964 -0.5798
18941TIP3   OH278237   5.594   0.005   3.952  0.5788  0.1127 -0.2660
18941TIP3    H178238   5.593   0.046   3.866  0.7189 -0.9394 -0.7903
18941TIP3    H278239   5.616  -0.087   3.935 -0.2571 -0.3172  0.7916
18942TIP3   OH278240   4.667   1.306   6.069 -0.4173 -0.1429  0.0103
18942TIP3    H178241   4.600   1.254   6.025 -1.7225  0.5204  1.1120
18942TIP3    H278242   4.715   1.243   6.123 -2.0015 -0.2772  1.3597
18943TIP3   OH278243   6.454   0.176  12.006  0.5734  0.5015  0.1436
18943TIP3    H178244   6.499   0.209  12.085 -0.0221  0.3303  0.5586
18943TIP3    H278245   6.464   0.081  12.011  0.5922  0.4945 -0.0255
18944TIP3   OH278246   5.490   2.578  10.690  0.0937  0.1999 -0.0851
18944TIP3    H178247   5.431   2.506  10.712 -0.1419  0.0970 -1.0032
18944TIP3    H278248   5.474   2.644  10.758  1.0556 -0.9992  1.3589
18945TIP3   OH278249   6.591   3.188   4.126  0.4579 -0.1668  0.6471
18945TIP3    H178250   6.503   3.212   4.096  0.6126 -0.5738 -0.1691
18945TIP3    H278251   6.580   3.100   4.163  0.6723 -0.5755 -0.2410
18946TIP3   OH278252   4.749   6.502   5.119  0.2436  0.1886 -0.0341
18946TIP3    H178253   4.663   6.489   5.158 -0.4051  1.0262 -1.1381
18946TIP3    H278254   4.736   6.491   5.025  1.2886  0.5410 -0.2415
18947TIP3   OH278255   0.579   0.012   0.905 -0.1069 -0.1979  0.1867
18947TIP3    H178256   0.574   0.107   0.896  1.0758 -0.2768 -1.6888
18947TIP3    H278257   0.673  -0.007   0.912 -0.2548 -1.3020 -0.5727
18948TIP3   OH278258   6.342   0.623  14.666 -0.1277 -0.1830  0.3090
18948TIP3    H178259   6.436   0.616  14.648  0.1527 -0.0610  1.6095
18948TIP3    H278260   6.303   0.646  14.581  1.2664  1.8444  0.1459
18949TIP3   OH278261   3.366   0.893   5.651 -0.1974 -0.5490  0.0452
18949TIP3    H178262   3.434   0.910   5.587 -0.2350  2.0686  0.6062
18949TIP3    H278263   3.413   0.862   5.729  0.0152 -1.8133 -0.5572
18950TIP3   OH278264   0.594   0.279   0.831 -0.0453 -0.0418  0.1169
18950TIP3    H178265   0.621   0.306   0.918  0.2720  2.4316 -0.6552
18950TIP3    H278266   0.658   0.320   0.772 -1.6482  0.4488 -1.3882
18951TIP3   OH278267   5.107   5.695   2.207 -0.2073 -0.0870 -0.2329
18951TIP3    H178268   5.077   5.624   2.264 -0.8930  0.0291 -0.4349
18951TIP3    H278269   5.036   5.705   2.143  0.8595 -0.6921 -1.5541
18952TIP3   OH278270   0.412   6.563   4.306  0.1923 -0.8073  0.0826
18952TIP3    H178271   0.387   6.552   4.215 -1.1522  0.7393  0.2206
18952TIP3    H278272   0.402   6.657   4.323  3.2148 -0.5327  1.0399
18953TIP3   OH278273   2.123   6.424   5.346 -0.4059  0.3081 -0.3973
18953TIP3    H178274   2.037   6.467   5.343 -1.5376 -1.8524 -1.8030
18953TIP3    H278275   2.167   6.452   5.265 -0.2129  0.6182 -0.1834
18954TIP3   OH278276   4.486   3.377  14.854 -0.7378  0.1704 -0.5402
18954TIP3    H178277   4.411   3.430  14.827 -0.6982 -0.0682 -1.1390
18954TIP3    H278278   4.561   3.437  14.852 -0.8961  0.3808 -0.0532
18955TIP3   OH278279   4.933   4.678   1.161 -0.4560 -0.1198 -0.0739
18955TIP3    H178280   4.918   4.664   1.254  0.7931  1.8789  0.4936
18955TIP3    H278281   4.888   4.605   1.118 -1.1116 -1.0572  2.0651
18956TIP3   OH278282   5.540   1.463   5.499 -0.5154  0.2264  0.0239
18956TIP3    H178283   5.605   1.397   5.522  0.5587  1.9193  2.4037
18956TIP3    H278284   5.590   1.529   5.449 -0.8593  0.5761  0.1366
18957TIP3   OH278285   5.098   4.132  15.112  0.0432 -0.8924 -0.2656
18957TIP3    H178286   5.132   4.045  15.092  1.9777 -0.3308  0.3528
18957TIP3    H278287   5.170   4.191  15.089 -0.7546  0.4301  0.5588
18958TIP3   OH278288   3.173   6.344   3.283 -0.9078 -0.0229  0.1537
18958TIP3    H178289   3.218   6.373   3.204 -2.9726  2.5129 -0.2246
18958TIP3    H278290   3.087   6.314   3.251 -0.6807 -1.8998  1.1555
18959TIP3   OH278291   3.506   6.268   3.210  0.0049 -0.4655  0.2527
18959TIP3    H178292   3.536   6.320   3.285 -1.3645 -0.2886  0.7128
18959TIP3    H278293   3.471   6.189   3.249 -0.5445 -0.4579 -0.2174
18960TIP3   OH278294   3.075   1.362   0.458  0.2205  0.0990  0.2202
18960TIP3    H178295   3.055   1.411   0.537 -1.1457  0.7280 -0.4737
18960TIP3    H278296   3.075   1.428   0.388  0.2471 -0.6065 -0.4668
18961TIP3   OH278297   0.826   0.231  16.251  0.4807 -0.1649 -0.5255
18961TIP3    H178298   0.868   0.250  16.168 -0.8253  2.4789 -0.6738
18961TIP3    H278299   0.896   0.239  16.316  0.3874  4.5816 -0.7153
18962TIP3   OH278300   4.583   4.453   4.167 -0.6550 -0.3192  0.4129
18962TIP3    H178301   4.562   4.451   4.260 -1.8155  1.2034  0.2192
18962TIP3    H278302   4.498   4.456   4.123 -0.1126 -0.2005 -0.6669
18963TIP3   OH278303   2.835   5.996  13.449  0.3903  0.0786  0.1009
18963TIP3    H178304   2.746   5.963  13.455  1.4538 -3.0922  0.7739
18963TIP3    H278305   2.855   6.030  13.536 -0.3459  1.4533 -0.2491
18964TIP3   OH278306   2.645   5.981  16.939 -0.2026  0.3996 -0.4379
18964TIP3    H178307   2.629   5.889  16.918 -1.2792  0.2798  0.7843
18964TIP3    H278308   2.662   6.022  16.854 -0.5830 -0.7600 -1.0975
18965TIP3   OH278309   2.475   0.173   3.572 -0.3734  0.2862  0.2170
18965TIP3    H178310   2.424   0.098   3.603 -1.3023  1.1357  0.7977
18965TIP3    H278311   2.464   0.171   3.477  0.2829 -0.7796  0.1508
18966TIP3   OH278312   2.971   4.057   0.031 -0.4231 -0.1868 -0.2276
18966TIP3    H178313   2.934   4.128   0.082  0.8703  1.4229 -1.4158
18966TIP3    H278314   2.976   3.983   0.091 -0.8700  1.0160  1.3370
18967TIP3   OH278315   5.763   4.698  15.297 -0.6397  0.2001 -0.4457
18967TIP3    H178316   5.761   4.727  15.388 -0.4193  1.4060 -0.8191
18967TIP3    H278317   5.804   4.611  15.302  0.6804  0.8405  0.4560
18968TIP3   OH278318   0.144   6.583  12.360  0.7850 -0.7488 -0.0705
18968TIP3    H178319   0.173   6.491  12.355 -0.0062 -1.1004  1.3428
18968TIP3    H278320   0.197   6.628  12.293  2.0937 -1.9967  0.0666
18969TIP3   OH278321   3.973   4.167  16.903  0.0594  0.0159 -0.7829
18969TIP3    H178322   3.992   4.195  16.814  2.0458  0.1034 -0.3745
18969TIP3    H278323   4.058   4.168  16.947 -0.9717  0.6140  1.3082
18970TIP3   OH278324   3.654   3.040  15.743  0.1238  0.1832 -0.3500
18970TIP3    H178325   3.639   2.961  15.794 -0.0486  0.3725 -0.1048
18970TIP3    H278326   3.630   3.015  15.654  1.3489 -0.4342 -0.5269
18971TIP3   OH278327   3.476   6.657   6.258 -0.0809  0.2367 -0.2491
18971TIP3    H178328   3.501   6.578   6.209 -0.1801 -0.0125  0.1040
18971TIP3    H278329   3.390   6.681   6.222 -1.8093 -1.9374  2.1540
18972TIP3   OH278330   4.128   6.648  11.166  0.3850 -0.1224 -0.5850
18972TIP3    H178331   4.101   6.578  11.106 -0.2350  1.7207 -2.5566
18972TIP3    H278332   4.217   6.669  11.139  0.8391 -0.6285  0.4906
18973TIP3   OH278333   0.496   4.126   3.224 -0.3504  0.9700 -0.2413
18973TIP3    H178334   0.532   4.161   3.143 -0.2650  1.5370  0.0373
18973TIP3    H278335   0.459   4.203   3.269  0.1797  0.7669  0.5572
18974TIP3   OH278336   2.618   3.776   3.185 -0.2310  0.0034 -0.5636
18974TIP3    H178337   2.699   3.742   3.145  1.2384  1.0802  1.3359
18974TIP3    H278338   2.577   3.700   3.225  1.5321 -0.1113  1.1761
18975TIP3   OH278339   2.903   4.474   5.263 -0.0011 -1.1170 -0.8799
18975TIP3    H178340   2.947   4.501   5.344  2.1026 -1.9208 -1.6644
18975TIP3    H278341   2.836   4.540   5.248  1.0134  0.2640  0.3719
18976TIP3   OH278342   2.151   3.568  13.519 -0.0316 -0.1310 -0.5753
18976TIP3    H178343   2.176   3.603  13.604 -1.2112 -0.2249 -0.1727
18976TIP3    H278344   2.228   3.520  13.489  0.1964 -0.6024  0.7144
18977TIP3   OH278345   6.727   1.345  17.396 -0.3066 -0.7521 -1.1007
18977TIP3    H178346   6.691   1.423  17.352  0.2116  1.3670  1.9376
18977TIP3    H278347   6.821   1.354  17.388 -0.2347 -0.8564 -0.4121
18978TIP3   OH278348   6.655   2.765  16.974 -0.1143 -0.3182 -0.0882
18978TIP3    H178349   6.698   2.850  16.972 -0.7267 -0.0080 -0.2716
18978TIP3    H278350   6.590   2.768  16.903  1.5554 -1.8659 -1.8138
18979TIP3   OH278351   1.188   6.014  16.778 -0.3799  0.3214  0.6558
18979TIP3    H178352   1.194   6.108  16.790 -1.5758  0.3024  1.5564
18979TIP3    H278353   1.094   5.995  16.779 -0.2430 -0.6665 -1.2981
18980TIP3   OH278354   3.558   0.697   5.343  0.1852 -0.6555  0.3172
18980TIP3    H178355   3.619   0.629   5.371  0.9834  0.3485  1.0754
18980TIP3    H278356   3.598   0.734   5.264  0.8381  0.3350  1.0913
18981TIP3   OH278357   2.936   5.638  14.095  0.0341 -0.5442 -0.2641
18981TIP3    H178358   2.910   5.620  14.185 -1.4431  1.1321 -0.2801
18981TIP3    H278359   2.916   5.557  14.047  0.6341 -1.3729  0.8510
18982TIP3   OH278360   1.426   6.217   1.954  0.2692 -0.5217  0.0920
18982TIP3    H178361   1.489   6.222   2.025 -0.5194 -0.3688  0.7999
18982TIP3    H278362   1.473   6.251   1.878  1.0934 -0.5979  0.5539
18983TIP3   OH278363   3.589   3.101   4.598  0.1602 -0.4391 -0.1074
18983TIP3    H178364   3.494   3.094   4.611  0.2599  0.1570  1.1282
18983TIP3    H278365   3.606   3.195   4.597  0.6675 -0.5314 -1.0370
18984TIP3   OH278366   4.860   3.416   4.338 -0.4407  0.0401  0.2759
18984TIP3    H178367   4.863   3.505   4.303 -1.2552  1.0178  2.5050
18984TIP3    H278368   4.788   3.374   4.290  0.3029  0.3571 -1.1825
18985TIP3   OH278369   1.370   3.582   0.076 -0.3458  0.2108 -0.3707
18985TIP3    H178370   1.397   3.532  -0.001  1.9014 -2.7971  2.0803
18985TIP3    H278371   1.315   3.522   0.125 -0.5142  1.4829  1.0703
18986TIP3   OH278372   0.540   1.915   1.137  0.4811  0.1039 -0.0328
18986TIP3    H178373   0.635   1.921   1.146  0.7767 -0.0265 -2.3738
18986TIP3    H278374   0.525   1.917   1.043 -1.9796  1.8010  0.3072
18987TIP3   OH278375   5.197   1.815  14.550 -0.3049  0.8839 -0.3021
18987TIP3    H178376   5.146   1.896  14.561  0.0659  1.1069 -0.2301
18987TIP3    H278377   5.170   1.783  14.464  0.6674  1.8870 -1.0053
18988TIP3   OH278378   0.955   2.331  11.686  0.3792  0.0776 -0.4188
18988TIP3    H178379   1.019   2.338  11.615 -0.8578 -1.7414 -1.8196
18988TIP3    H278380   0.888   2.395  11.664  0.4430  0.1520 -0.3953
18989TIP3   OH278381   3.333   1.727  11.820 -0.3673 -0.2853  0.6046
18989TIP3    H178382   3.314   1.766  11.905 -0.0438  1.2060  0.0313
18989TIP3    H278383   3.249   1.722  11.776 -0.2611  1.1080  0.1734
18990TIP3   OH278384   4.084   6.748   0.137 -0.1999  0.5334  0.1405
18990TIP3    H178385   4.080   6.833   0.181  0.0709  0.7111 -0.1793
18990TIP3    H278386   4.066   6.685   0.207 -1.6149  0.9064  0.1639
18991TIP3   OH278387   1.865   1.366   1.247 -1.0244 -0.1217 -0.6485
18991TIP3    H178388   1.916   1.294   1.285 -0.5341  1.0956  1.0714
18991TIP3    H278389   1.872   1.352   1.152  0.1609 -1.5795 -0.3819
18992TIP3   OH278390   2.772   1.433  12.215  0.1234 -0.5829  0.2044
18992TIP3    H178391   2.748   1.438  12.308 -0.4538 -1.5443  0.1266
18992TIP3    H278392   2.801   1.342  12.203 -1.7105 -1.0744 -0.9710
18993TIP3   OH278393   0.444   2.362  11.701  0.6525 -0.8791 -0.0693
18993TIP3    H178394   0.430   2.309  11.622  0.5033  1.6496 -1.8685
18993TIP3    H278395   0.374   2.427  11.698  0.9447 -0.4159  1.9211
18994TIP3   OH278396   2.767   5.127  17.374  0.3146  0.2206  0.0006
18994TIP3    H178397   2.832   5.149  17.307 -0.3605 -0.2905 -0.8436
18994TIP3    H278398   2.682   5.137  17.330 -0.1151 -1.0833  0.4803
18995TIP3   OH278399   0.961   2.675   3.598  0.1412 -0.3555  0.0296
18995TIP3    H178400   0.875   2.657   3.560  0.8571 -0.0430 -1.8146
18995TIP3    H278401   1.023   2.662   3.526  1.4784  1.2559  0.8131
18996TIP3   OH278402   2.418   0.486   4.557 -0.3889 -0.0584  0.0143
18996TIP3    H178403   2.485   0.525   4.613  0.9579 -0.9252 -0.9372
18996TIP3    H278404   2.366   0.561   4.527 -2.1791  0.3545  3.5374
18997TIP3   OH278405   1.114   1.785   3.996  0.1248  0.3009 -0.1753
18997TIP3    H178406   1.169   1.864   3.988  1.6051 -0.7906 -1.4063
18997TIP3    H278407   1.100   1.775   4.090  1.4961  0.9911  0.1300
18998TIP3   OH278408   0.474   5.361  16.187  0.2677 -0.0971 -0.0161
18998TIP3    H178409   0.532   5.411  16.129 -1.4174  1.4594 -0.4645
18998TIP3    H278410   0.476   5.272  16.153  2.3261 -0.0825 -0.0299
18999TIP3   OH278411   2.410   1.713   1.596  0.1348 -0.7360  0.6985
18999TIP3    H178412   2.342   1.758   1.546 -1.1673 -1.8052  1.4244
18999TIP3    H278413   2.424   1.769   1.673  0.5372 -0.2042  0.2440
19000TIP3   OH278414   0.830   4.306  13.788 -0.1085  0.3147  0.5195
19000TIP3    H178415   0.893   4.291  13.859 -0.6179 -1.3463  0.6769
19000TIP3    H278416   0.781   4.224  13.783 -2.0335  1.4305  0.1685
19001TIP3   OH278417   1.880   1.064   2.389  0.2920 -0.1021  0.1238
19001TIP3    H178418   1.951   1.029   2.335 -0.1100  2.7463 -2.4865
19001TIP3    H278419   1.907   1.153   2.410 -1.3669  0.1597  1.3380
19002TIP3   OH278420   2.950   1.811  15.227  0.0115 -0.1912  0.4741
19002TIP3    H178421   2.936   1.717  15.238 -2.4734  0.3523  3.2140
19002TIP3    H278422   2.944   1.847  15.315 -2.4163  2.8555 -0.7295
19003TIP3   OH278423   3.521   4.509   5.436 -0.0113 -0.3870  0.0133
19003TIP3    H178424   3.426   4.511   5.453  0.2425  0.0063  1.6016
19003TIP3    H278425   3.535   4.427   5.389 -1.1616 -0.3524 -0.4428
19004TIP3   OH278426   2.894   0.129  12.035  0.1049 -0.6813 -0.4927
19004TIP3    H178427   2.958   0.154  12.101  0.6899 -0.2943 -1.1903
19004TIP3    H278428   2.861   0.211  11.999 -0.3595 -0.8818 -0.5440
19005TIP3   OH278429   2.752   0.083  16.218 -0.0270  0.6570  0.8871
19005TIP3    H178430   2.665   0.104  16.186 -0.6767 -1.5099  1.0262
19005TIP3    H278431   2.764   0.137  16.296 -0.9738  1.4217  0.5125
19006TIP3   OH278432   3.462   1.364   2.796  0.7157 -0.9340 -0.0857
19006TIP3    H178433   3.376   1.400   2.821  1.2776  0.7385 -0.4218
19006TIP3    H278434   3.525   1.418   2.844  1.6090 -1.8995 -0.1322
19007TIP3   OH278435   0.334   0.759  11.942 -0.0782 -0.0322 -0.3210
19007TIP3    H178436   0.304   0.753  11.851  0.5146  1.7085 -0.6598
19007TIP3    H278437   0.350   0.668  11.967 -1.9266 -0.6967 -1.3604
19008TIP3   OH278438   3.411   1.453   3.342  0.3612  0.1465 -0.8612
19008TIP3    H178439   3.486   1.472   3.399 -1.4132 -0.3669  1.7979
19008TIP3    H278440   3.451   1.420   3.261  2.9940  0.0923  0.3483
19009TIP3   OH278441   4.631   1.237  15.816  0.4144  0.4377 -0.5896
19009TIP3    H178442   4.652   1.200  15.731  0.5917 -1.3118  0.1703
19009TIP3    H278443   4.635   1.163  15.877  1.8505  1.8912  1.2194
19010TIP3   OH278444   5.782   2.876   5.049  0.4700 -0.1684 -0.0088
19010TIP3    H178445   5.753   2.963   5.022  2.1228 -0.1969 -2.0925
19010TIP3    H278446   5.733   2.858   5.130 -0.0046  2.6117  0.3967
19011TIP3   OH278447   1.056   1.190  11.508 -0.0756 -0.5825 -0.2019
19011TIP3    H178448   1.144   1.228  11.517  0.3008 -1.4744 -0.0690
19011TIP3    H278449   1.019   1.235  11.432  0.6456 -0.4904 -0.5112
19012TIP3   OH278450   3.770   4.727   2.858 -0.3917  0.3908 -0.1815
19012TIP3    H178451   3.783   4.816   2.890 -0.1564  0.1406  0.4327
19012TIP3    H278452   3.808   4.671   2.925 -1.5862 -0.2222  0.0200
19013TIP3   OH278453   4.141   6.161  12.415  0.3708  0.6342 -0.6694
19013TIP3    H178454   4.084   6.129  12.484  1.0607  0.1239 -0.3298
19013TIP3    H278455   4.223   6.181  12.459  1.2105 -0.7956 -1.5189
19014TIP3   OH278456   5.715   6.439   2.141 -0.7071  0.5725  0.0011
19014TIP3    H178457   5.751   6.379   2.076 -0.0924 -0.5050  1.2999
19014TIP3    H278458   5.650   6.387   2.188 -4.0631  2.4027 -2.1933
19015TIP3   OH278459   0.205   0.264   5.407  0.1694  0.3711  0.3656
19015TIP3    H178460   0.111   0.280   5.411 -0.1419 -1.3065  0.9357
19015TIP3    H278461   0.223   0.246   5.315 -0.4199 -0.9916  0.4952
19016TIP3   OH278462   3.203   5.625   0.901 -0.0857  0.1746  0.2712
19016TIP3    H178463   3.266   5.660   0.964  1.1410 -1.6300  0.1305
19016TIP3    H278464   3.151   5.563   0.951 -0.1310 -0.1322 -0.1541
19017TIP3   OH278465   0.008   6.001   5.825  0.4835 -0.0487 -0.0154
19017TIP3    H178466   0.075   5.944   5.861 -0.0400  0.2937  1.6219
19017TIP3    H278467  -0.007   6.066   5.894 -2.5916 -1.0133  0.3814
19018TIP3   OH278468   2.381   6.394  12.925 -0.2875  0.0520 -0.3031
19018TIP3    H178469   2.461   6.343  12.910 -1.2308 -2.3822  2.0212
19018TIP3    H278470   2.389   6.469  12.867  2.8960 -0.9399 -1.3693
19019TIP3   OH278471   4.584   4.292   0.328 -0.1552 -0.1917 -0.4496
19019TIP3    H178472   4.507   4.344   0.350  0.0853 -0.3014  0.7014
19019TIP3    H278473   4.610   4.251   0.411 -2.3009 -4.8407 -1.6987
19020TIP3   OH278474   6.273   4.425   3.506  0.7449 -0.3431  0.7648
19020TIP3    H178475   6.286   4.339   3.547  0.1973 -0.0175  1.6584
19020TIP3    H278476   6.269   4.486   3.580 -0.5051  0.2414  0.2393
19021TIP3   OH278477   4.358   3.669   0.115 -0.9099  0.6510  0.3744
19021TIP3    H178478   4.331   3.744   0.168 -0.4063  0.5249  0.8232
19021TIP3    H278479   4.370   3.705   0.027 -0.1809  1.2182  0.6896
19022TIP3   OH278480   1.116   5.484  17.213 -0.2064  0.4962  0.3260
19022TIP3    H178481   1.102   5.415  17.277  0.8968  0.4278  0.4956
19022TIP3    H278482   1.205   5.471  17.181 -0.6056  0.7336 -0.9795
19023TIP3   OH278483   3.781   4.414   1.882  0.0521 -0.2250  0.0560
19023TIP3    H178484   3.872   4.433   1.857  0.0002 -0.3977 -0.2699
19023TIP3    H278485   3.778   4.318   1.891 -0.3592 -0.3169 -0.9839
19024TIP3   OH278486   3.586   5.057   1.313  0.2126 -0.9652 -1.3288
19024TIP3    H178487   3.598   5.046   1.407 -1.5785 -1.1465 -1.0929
19024TIP3    H278488   3.600   4.970   1.277 -1.5213 -1.4504 -0.9148
19025TIP3   OH278489   5.399   2.431   6.803  0.2670 -0.0050  0.1836
19025TIP3    H178490   5.429   2.485   6.730 -0.3652  2.1328  1.4217
19025TIP3    H278491   5.479   2.400   6.845  0.6400 -1.0910 -1.2214
19026TIP3   OH278492   5.668   2.821  13.290 -0.4494 -0.2561  0.8477
19026TIP3    H178493   5.745   2.874  13.312  1.3211 -1.3575 -2.1803
19026TIP3    H278494   5.608   2.883  13.249  0.5350 -0.0532 -0.3539
19027TIP3   OH278495   2.116   0.482  12.353  0.3170  0.0637  0.2573
19027TIP3    H178496   2.058   0.521  12.287  0.5851 -0.9934 -0.6353
19027TIP3    H278497   2.085   0.517  12.436 -1.0614  0.1876 -0.2825
19028TIP3   OH278498   3.352   0.145  14.858  0.3721 -0.2207  0.0532
19028TIP3    H178499   3.364   0.171  14.767 -3.1211  0.3112 -0.3724
19028TIP3    H278500   3.300   0.065  14.854 -1.9936  1.1253  1.4914
19029TIP3   OH278501   5.132   6.150  15.021 -0.1973 -0.0631  0.1633
19029TIP3    H178502   5.045   6.120  15.045  0.3711 -0.1056  2.3274
19029TIP3    H278503   5.117   6.210  14.947 -1.9063 -0.9712 -0.2818
19030TIP3   OH278504   0.804   3.731  13.136 -0.2348  0.4765 -0.4895
19030TIP3    H178505   0.882   3.681  13.160 -0.6824  0.8691  2.1524
19030TIP3    H278506   0.834   3.822  13.134 -1.0783  1.1498  4.2242
19031TIP3   OH278507   1.946   6.557   5.153 -0.5278  0.1346 -0.7922
19031TIP3    H178508   1.863   6.590   5.186 -1.2734 -0.7738 -1.6687
19031TIP3    H278509   1.921   6.481   5.100  0.7767  0.4302 -1.8693
19032TIP3   OH278510   4.805   6.657  11.884  0.1261  0.1105  0.3446
19032TIP3    H178511   4.895   6.638  11.858  0.4488  3.0825 -1.1753
19032TIP3    H278512   4.752   6.594  11.835  1.2383  0.5361 -1.5125
19033TIP3   OH278513   6.197   0.167  16.085 -0.1259 -0.1963  0.4379
19033TIP3    H178514   6.129   0.229  16.060  0.6663  0.7231  0.4726
19033TIP3    H278515   6.185   0.154  16.179 -1.4521 -1.5784  0.1103
19034TIP3   OH278516   0.980   2.436  10.606 -0.4548  0.1269  0.3612
19034TIP3    H178517   0.976   2.531  10.603 -0.7727  0.1842  2.1044
19034TIP3    H278518   0.889   2.407  10.597 -0.4857  0.0362  0.9218
19035TIP3   OH278519   5.403   5.462  13.500  0.1122 -0.4340 -0.0653
19035TIP3    H178520   5.458   5.391  13.466  0.1620 -1.1481  1.4278
19035TIP3    H278521   5.458   5.505  13.565 -0.2227  0.4528 -0.3583
19036TIP3   OH278522   0.269   0.639   6.564 -0.2627 -0.1798  0.2817
19036TIP3    H178523   0.275   0.682   6.649  1.3094  0.9106 -0.3212
19036TIP3    H278524   0.215   0.562   6.579  0.4418 -0.3165  2.3919
19037TIP3   OH278525   1.547   3.256  13.979 -0.3343  0.3232 -0.4771
19037TIP3    H178526   1.510   3.174  13.944  1.4911 -0.3826 -0.8544
19037TIP3    H278527   1.612   3.228  14.043  0.6877  1.4521 -0.9821
19038TIP3   OH278528   3.032   4.700   5.145 -0.1627 -0.3406 -0.5074
19038TIP3    H178529   3.114   4.703   5.195  0.1115 -0.1585 -0.9592
19038TIP3    H278530   3.039   4.774   5.084 -1.1670  0.3907  0.2151
19039TIP3   OH278531   4.257   3.247  11.443  0.2841 -0.4889  0.3371
19039TIP3    H178532   4.331   3.304  11.464  1.0040 -1.6741  1.1739
19039TIP3    H278533   4.198   3.255  11.518 -1.6672  2.2298 -1.3115
19040TIP3   OH278534   0.518   1.875   4.965  0.2817 -0.0638 -0.0680
19040TIP3    H178535   0.471   1.936   5.021  0.0663 -0.2727 -0.0179
19040TIP3    H278536   0.501   1.906   4.876  0.3149  0.0497 -0.0343
19041TIP3   OH278537   1.931   1.499  16.931  0.2524 -0.4080  0.2926
19041TIP3    H178538   1.864   1.520  16.867  0.5896 -2.0201 -0.6595
19041TIP3    H278539   1.941   1.578  16.983 -1.3017  0.3539 -0.5062
19042TIP3   OH278540   6.394   5.378   1.002 -0.2233  0.3325  0.6656
19042TIP3    H178541   6.379   5.424   0.920 -0.5166  0.8913  1.0268
19042TIP3    H278542   6.481   5.405   1.030  1.3713 -2.4751 -1.1455
19043TIP3   OH278543   5.791   4.712  11.770  0.2878  0.4047  0.0737
19043TIP3    H178544   5.738   4.645  11.813  1.4830 -0.1731  0.6626
19043TIP3    H278545   5.743   4.731  11.689 -0.9891  0.1471  0.7380
19044TIP3   OH278546   5.166   1.489  11.001 -0.2365  0.3633 -0.1230
19044TIP3    H178547   5.187   1.409  11.050 -1.6972 -0.1877 -0.3345
19044TIP3    H278548   5.120   1.457  10.923  0.8861  1.3118 -1.1922
19045TIP3   OH278549   6.477   0.892  17.186  0.0752 -0.5841  0.5286
19045TIP3    H178550   6.512   0.931  17.266  1.3863 -0.6167 -0.0048
19045TIP3    H278551   6.513   0.945  17.116 -0.2279 -1.1802 -0.0900
19046TIP3   OH278552   1.221   2.108  12.739 -0.1744  0.3696  0.2230
19046TIP3    H178553   1.234   2.023  12.782 -1.1244  0.1389  0.0672
19046TIP3    H278554   1.226   2.171  12.810 -0.2637  0.1159  0.4569
19047TIP3   OH278555   2.770   1.807  11.346  0.5712  0.2434  0.5621
19047TIP3    H178556   2.771   1.753  11.267  1.0886 -0.2880  0.9221
19047TIP3    H278557   2.729   1.889  11.319  0.9476  0.1523 -0.3133
19048TIP3   OH278558   0.385   3.096   1.263 -0.0396 -0.4986 -0.1302
19048TIP3    H178559   0.364   3.184   1.234 -0.7557 -0.4622  0.4680
19048TIP3    H278560   0.455   3.108   1.328 -0.9746 -0.2503  0.8539
19049TIP3   OH278561   0.952   5.667   1.109  0.7981  0.1575  0.7882
19049TIP3    H178562   0.964   5.653   1.015 -1.5915 -1.8365  0.6833
19049TIP3    H278563   0.970   5.760   1.122 -0.6347  0.9294 -1.9925
19050TIP3   OH278564   3.381   0.162   2.471  0.3778  0.6928 -0.7399
19050TIP3    H178565   3.294   0.179   2.506  1.0218  0.6287  1.0011
19050TIP3    H278566   3.368   0.094   2.405 -0.8658  0.5967 -0.4193
19051TIP3   OH278567   5.499   1.269   1.634 -0.8301 -0.5470  0.0891
19051TIP3    H178568   5.482   1.191   1.687 -0.8340 -1.1291 -0.7477
19051TIP3    H278569   5.584   1.253   1.593 -1.6894 -1.0280 -1.6265
19052TIP3   OH278570   1.638   2.196  11.371 -1.0433  0.1680  0.2935
19052TIP3    H178571   1.604   2.233  11.452  1.0903  1.1525  0.8223
19052TIP3    H278572   1.608   2.255  11.302 -1.1575  0.4979  0.6257
19053TIP3   OH278573   3.297   6.605   6.500  0.2467  0.4505  0.8907
19053TIP3    H178574   3.281   6.678   6.560 -2.3075  0.7872 -0.0284
19053TIP3    H278575   3.361   6.639   6.437 -1.1363  2.1069  0.2897
19054TIP3   OH278576   2.020   1.675   3.838 -0.7663  0.1763  0.1296
19054TIP3    H178577   2.087   1.733   3.872 -2.6295  1.5099  1.7792
19054TIP3    H278578   2.020   1.600   3.898 -0.1966 -0.2533 -0.3923
19055TIP3   OH278579   5.973   3.214   0.304 -0.2946 -0.0023  0.3304
19055TIP3    H178580   6.010   3.214   0.393  1.0845 -4.6743 -0.0266
19055TIP3    H278581   6.045   3.241   0.248 -0.2395 -0.0551  0.3755
19056TIP3   OH278582   6.384   1.709   2.709 -0.0204 -0.3640 -0.0171
19056TIP3    H178583   6.451   1.762   2.666  0.6244 -1.2867 -0.1680
19056TIP3    H278584   6.431   1.663   2.779 -0.4693 -1.0944 -0.1872
19057TIP3   OH278585   5.418   0.046  12.314 -0.1280  0.3588 -0.0368
19057TIP3    H178586   5.387   0.106  12.382 -0.4112 -1.1770  1.2859
19057TIP3    H278587   5.339  -0.002  12.287 -0.1235  1.3231 -1.9106
19058TIP3   OH278588   1.512   2.024  13.728  0.1344 -0.0318 -0.2800
19058TIP3    H178589   1.527   1.959  13.797 -0.8989 -0.3165 -0.3059
19058TIP3    H278590   1.556   1.988  13.651 -0.6754 -0.8687 -0.3749
19059TIP3   OH278591   4.373   0.636  11.778  0.2150  0.3257 -0.7977
19059TIP3    H178592   4.440   0.633  11.709 -0.1589 -0.5729 -1.1313
19059TIP3    H278593   4.315   0.707  11.752  3.0322  3.8289  1.4190
19060TIP3   OH278594   4.661   4.500   3.260 -0.4150  0.3042  0.3799
19060TIP3    H178595   4.568   4.479   3.265 -0.3558  0.3270  2.5942
19060TIP3    H278596   4.702   4.421   3.224 -0.9709 -0.9597  2.3594
19061TIP3   OH278597   1.896   6.132  14.879 -0.3286  0.1222 -0.0041
19061TIP3    H178598   1.888   6.050  14.927 -0.2123  0.1428  0.0503
19061TIP3    H278599   1.984   6.164  14.900 -1.1723  1.4242  1.8110
19062TIP3   OH278600   1.155   1.732  12.644 -0.4437 -0.4452  0.6215
19062TIP3    H178601   1.158   1.730  12.740  0.4643 -0.6380  0.6006
19062TIP3    H278602   1.093   1.801  12.623  1.5542  1.7143  1.3491
19063TIP3   OH278603   0.305   2.685  12.615  0.0324  0.2115  0.1542
19063TIP3    H178604   0.289   2.696  12.522 -1.1880 -0.4073  0.2613
19063TIP3    H278605   0.320   2.773  12.648  0.4251  0.4389 -0.6126
19064TIP3   OH278606   5.115   1.153   2.728 -0.0539  0.1005 -0.0927
19064TIP3    H178607   5.029   1.115   2.748  0.3277 -1.9450 -1.9689
19064TIP3    H278608   5.153   1.172   2.813 -1.0875 -1.9774  0.9006
19065TIP3   OH278609   2.796   4.829   4.495  0.3374  0.4346  0.4472
19065TIP3    H178610   2.852   4.891   4.448  1.3794 -0.9722 -0.2749
19065TIP3    H278611   2.720   4.818   4.438 -0.6672  2.2404  1.3589
19066TIP3   OH278612   4.959   0.975   1.929  0.3054 -0.2127 -0.0256
19066TIP3    H178613   4.964   1.059   1.973  1.4923 -0.8258  1.0974
19066TIP3    H278614   4.938   0.996   1.838 -1.5803  1.1298  0.6710
19067TIP3   OH278615   3.424   5.148  16.504 -0.2284  0.4686  0.3541
19067TIP3    H178616   3.509   5.151  16.546  0.3865 -0.1161 -0.8021
19067TIP3    H278617   3.372   5.214  16.549  0.7942  0.7418  1.1532
19068TIP3   OH278618   2.015   1.131   3.435  0.5144  0.4110  0.3080
19068TIP3    H178619   2.066   1.207   3.408  2.0810 -0.5081  0.5767
19068TIP3    H278620   2.019   1.132   3.531 -0.0264  0.3525  0.3370
19069TIP3   OH278621   2.854   2.228   2.690 -0.3314  0.5117  0.8255
19069TIP3    H178622   2.912   2.215   2.765 -0.0153  2.1902  0.9165
19069TIP3    H278623   2.897   2.297   2.638 -2.3215  1.9867  1.0126
19070TIP3   OH278624   3.626   1.730  13.525 -0.6104 -0.8825 -0.8663
19070TIP3    H178625   3.564   1.793  13.560  0.0167 -0.2789 -0.8354
19070TIP3    H278626   3.712   1.764  13.549 -0.2778 -2.5585  0.5739
19071TIP3   OH278627   4.892   4.766   4.876  0.2294 -0.0245 -0.2804
19071TIP3    H178628   4.903   4.812   4.960 -1.0226 -0.9028  0.4077
19071TIP3    H278629   4.800   4.738   4.877 -0.3286  1.4091 -2.7238
19072TIP3   OH278630   3.510   3.099  12.805 -0.1618 -0.1536 -0.9378
19072TIP3    H178631   3.568   3.061  12.871 -2.1007 -1.3820  0.1579
19072TIP3    H278632   3.555   3.179  12.777  1.3300 -0.2607  0.9289
19073TIP3   OH278633   0.354   1.536   6.410 -0.0217 -0.0995 -0.0696
19073TIP3    H178634   0.391   1.569   6.492 -2.6292 -1.9933  2.0686
19073TIP3    H278635   0.384   1.445   6.405 -1.9118 -0.7848  0.2200
19074TIP3   OH278636   6.120   0.946  14.835 -0.1934  0.3205  0.1193
19074TIP3    H178637   6.033   0.928  14.797  0.0742  1.4958 -1.1301
19074TIP3    H278638   6.115   1.037  14.864  0.6757  0.4510 -0.1168
19075TIP3   OH278639   3.789   1.675   4.915  0.3475  0.8032 -0.0427
19075TIP3    H178640   3.715   1.637   4.961  0.6611 -0.9654 -0.9143
19075TIP3    H278641   3.775   1.770   4.920 -0.4577  0.6224  2.2421
19076TIP3   OH278642   5.909   1.534   1.883 -0.5178  0.5931  0.5915
19076TIP3    H178643   5.914   1.531   1.979 -2.6096  0.5500  0.7459
19076TIP3    H278644   6.000   1.521   1.854 -0.2124 -2.5714  2.4859
19077TIP3   OH278645   4.342   5.837   3.438  0.2916  0.0310 -0.0082
19077TIP3    H178646   4.312   5.847   3.528 -0.7545 -1.4743 -0.1482
19077TIP3    H278647   4.437   5.846   3.443  0.2767 -0.3856  1.3043
19078TIP3   OH278648   2.271   2.879  16.384 -0.1185  0.0921 -0.1865
19078TIP3    H178649   2.201   2.881  16.319 -0.3845 -4.9369 -0.4416
19078TIP3    H278650   2.351   2.872  16.332  0.0302 -0.1076  0.0675
19079TIP3   OH278651   0.132   1.824   2.320  0.0751  0.3345  0.2891
19079TIP3    H178652   0.085   1.787   2.394  1.9380 -1.6714  0.5843
19079TIP3    H278653   0.189   1.891   2.359 -0.6684  0.9860  0.2846
19080TIP3   OH278654   5.802   3.628   3.628 -0.5058  0.1550 -0.3159
19080TIP3    H178655   5.807   3.591   3.540 -0.2804 -1.2350  0.2502
19080TIP3    H278656   5.713   3.664   3.634 -1.1103 -1.2344 -0.5611
19081TIP3   OH278657   3.972   1.283   5.233 -0.3622  0.2541 -0.0528
19081TIP3    H178658   3.883   1.312   5.251 -0.9776 -1.8764  0.5925
19081TIP3    H278659   4.011   1.355   5.183 -2.4361  1.2146 -0.3823
19082TIP3   OH278660   2.027   1.216  15.752  0.4293  0.0665  0.4486
19082TIP3    H178661   1.943   1.244  15.789  0.0887 -0.6829  0.2599
19082TIP3    H278662   2.003   1.156  15.681  1.1132  0.2285  0.0739
19083TIP3   OH278663   5.106   2.576   5.775  0.2138 -0.4737 -0.4308
19083TIP3    H178664   5.038   2.563   5.842  0.0654 -0.5047 -0.5882
19083TIP3    H278665   5.067   2.543   5.694  0.2540 -0.0952 -0.6077
19084TIP3   OH278666   2.452   6.426   0.005  0.7156 -0.1054  0.5366
19084TIP3    H178667   2.411   6.473  -0.067  1.0382  2.4212  1.8886
19084TIP3    H278668   2.406   6.342   0.008  0.1000  0.0523 -1.9988
19085TIP3   OH278669   2.743   4.435  15.654 -0.0128  0.4992  0.3681
19085TIP3    H178670   2.799   4.434  15.577 -2.0996 -1.8343 -1.3034
19085TIP3    H278671   2.801   4.460  15.726  3.0061 -1.1389 -1.2952
19086TIP3   OH278672   4.981   4.862  15.461 -0.2731 -0.2423  0.1169
19086TIP3    H178673   4.909   4.803  15.485 -2.5811  1.1282 -2.7619
19086TIP3    H278674   4.956   4.946  15.499 -0.3882  0.3257 -1.1810
19087TIP3   OH278675   0.784   1.363   0.581  0.1510 -1.0477 -0.1992
19087TIP3    H178676   0.808   1.360   0.674 -0.2695 -1.7929 -0.1041
19087TIP3    H278677   0.833   1.291   0.542 -2.8943 -3.6052  0.2669
19088TIP3   OH278678   3.288   2.944   1.024  0.0398 -0.3337 -0.9373
19088TIP3    H178679   3.224   2.872   1.022  0.5741 -0.8355 -0.2574
19088TIP3    H278680   3.291   2.975   0.934 -1.1204 -0.3369 -1.0023
19089TIP3   OH278681   3.412   3.991   4.275 -0.5809 -0.5638  0.5645
19089TIP3    H178682   3.332   3.969   4.323  1.3080 -2.6243  3.0531
19089TIP3    H278683   3.468   4.034   4.339  0.4440  0.5835 -1.0410
19090TIP3   OH278684   0.519   3.343  17.166  0.5679 -0.1170 -0.2291
19090TIP3    H178685   0.454   3.273  17.180  0.0313  0.7410  2.1356
19090TIP3    H278686   0.467   3.423  17.159  1.2793  0.4889  0.9690
19091TIP3   OH278687   0.295   1.659   3.011  0.0125  0.6166 -0.3012
19091TIP3    H178688   0.259   1.605   2.942  0.3681  1.7995 -1.4502
19091TIP3    H278689   0.365   1.709   2.969 -0.6027  2.3012  0.5886
19092TIP3   OH278690   3.668   2.983   2.638  0.1048  0.1058 -0.2910
19092TIP3    H178691   3.594   3.034   2.668 -1.3262 -2.4270  0.8616
19092TIP3    H278692   3.743   3.017   2.688 -0.3594  2.2116 -0.9446
19093TIP3   OH278693   6.526   4.244  16.697  0.4985  0.6243 -0.6805
19093TIP3    H178694   6.593   4.311  16.710  0.1616  1.0351 -1.0254
19093TIP3    H278695   6.489   4.264  16.611 -0.3011  0.6156 -0.3466
19094TIP3   OH278696   6.019   5.289  14.103  0.3380  0.0586 -0.0665
19094TIP3    H178697   6.046   5.265  14.014 -0.7945  1.2484 -0.7734
19094TIP3    H278698   5.999   5.382  14.098  0.0583  0.1086  1.3999
19095TIP3   OH278699   2.658   0.142   1.909 -0.2088  0.1408  0.5976
19095TIP3    H178700   2.699   0.209   1.964 -0.1875 -0.2309  1.0405
19095TIP3    H278701   2.725   0.121   1.843 -0.7322  1.5854 -0.4433
19096TIP3   OH278702   5.170   2.047  10.427 -0.1843 -0.0210  0.1000
19096TIP3    H178703   5.144   1.984  10.494  1.1765 -0.7177  0.0166
19096TIP3    H278704   5.192   1.993  10.351  0.4369  0.5880 -0.1661
19097TIP3   OH278705   2.291   3.791   6.131 -0.1836 -0.2352 -0.0688
19097TIP3    H178706   2.273   3.834   6.214  0.4468 -0.3589  0.1334
19097TIP3    H278707   2.379   3.820   6.107  0.1365 -1.1932 -0.0746
19098TIP3   OH278708   0.215   4.787  17.335 -0.3775 -0.5454 -0.3255
19098TIP3    H178709   0.264   4.754  17.260 -0.5331 -1.6841  0.0649
19098TIP3    H278710   0.236   4.727  17.406  0.1318  0.7764  0.6940
19099TIP3   OH278711   2.836   6.319   0.179 -0.7931 -0.0714  0.5424
19099TIP3    H178712   2.892   6.348   0.107  1.3002 -2.4968  1.0210
19099TIP3    H278713   2.764   6.381   0.181  0.4281  1.5715 -1.9681
19100TIP3   OH278714   3.074   2.476   4.968 -0.2921  0.0060 -0.1522
19100TIP3    H178715   3.032   2.562   4.956 -0.2547 -0.0468 -0.6880
19100TIP3    H278716   3.004   2.413   4.950 -0.6613 -0.0858  1.4814
19101TIP3   OH278717   3.536   2.755  12.589  0.1069 -0.1375 -0.4822
19101TIP3    H178718   3.576   2.840  12.569  1.1034 -0.3163  0.6671
19101TIP3    H278719   3.447   2.762  12.554  0.4249  1.0878 -1.1040
19102TIP3   OH278720   3.784   3.628   2.998 -0.0495 -0.1530 -0.0784
19102TIP3    H178721   3.782   3.657   2.907  1.3952 -0.0597 -0.1016
19102TIP3    H278722   3.827   3.700   3.045  1.0217 -1.0217  0.3296
19103TIP3   OH278723   1.169   4.418   0.212  0.2462 -0.2302  0.2535
19103TIP3    H178724   1.226   4.344   0.192 -3.6839 -3.5494  0.0584
19103TIP3    H278725   1.113   4.426   0.135 -0.8343  1.5372  1.1699
19104TIP3   OH278726   4.132   0.355   5.968  0.3423 -0.0561 -0.0883
19104TIP3    H178727   4.185   0.435   5.967  1.3292 -0.6595  0.6502
19104TIP3    H278728   4.186   0.293   6.018  0.3721 -1.7043 -2.0612
19105TIP3   OH278729   3.836   4.445  14.184  0.2071 -0.2489  0.0364
19105TIP3    H178730   3.923   4.435  14.222 -0.3165  0.8888  1.6745
19105TIP3    H278731   3.787   4.370  14.216  0.0037  0.2684  0.9928
19106TIP3   OH278732   5.022   4.276   4.116 -0.3086 -0.0702 -0.2594
19106TIP3    H178733   5.042   4.331   4.040 -1.5453  0.6931 -0.0425
19106TIP3    H278734   5.091   4.209   4.115  0.8438  1.0786 -0.9032
19107TIP3   OH278735   0.209   2.771   3.687 -0.8424  0.5935  0.2725
19107TIP3    H178736   0.297   2.737   3.673 -0.3731  1.3166  1.3859
19107TIP3    H278737   0.155   2.693   3.702 -0.6854  0.0434 -1.7120
19108TIP3   OH278738   2.499   0.569   3.688 -0.2940 -0.0725  0.2309
19108TIP3    H178739   2.424   0.524   3.729 -0.6475  1.4874  1.3940
19108TIP3    H278740   2.461   0.649   3.651  0.4258 -0.3895 -1.2429
19109TIP3   OH278741   3.216   4.356  10.671 -0.1968 -0.0024 -0.0726
19109TIP3    H178742   3.267   4.411  10.730  0.1134  1.2721 -1.4718
19109TIP3    H278743   3.176   4.290  10.728  1.4963  0.0990  1.3006
19110TIP3   OH278744   0.814   6.381  11.952 -0.3696  0.7600  0.3965
19110TIP3    H178745   0.889   6.408  11.898 -1.8426  2.6799 -0.8187
19110TIP3    H278746   0.738   6.400  11.898 -1.8747  1.5236  2.6576
19111TIP3   OH278747   2.977   2.911   0.284 -0.2122  0.5537  0.6077
19111TIP3    H178748   2.969   2.992   0.335  1.9224  1.6011 -0.5675
19111TIP3    H278749   3.005   2.940   0.197 -0.1022 -1.4088 -0.0614
19112TIP3   OH278750   6.618   4.571   5.490 -0.3750 -0.4358  0.1064
19112TIP3    H178751   6.708   4.583   5.460  0.4805 -2.6201  1.5011
19112TIP3    H278752   6.583   4.659   5.500  0.7538  0.4417 -2.7956
19113TIP3   OH278753   5.620   1.102   1.981  0.5221  0.2060  0.3812
19113TIP3    H178754   5.532   1.070   2.001  0.4367  0.3653  0.2644
19113TIP3    H278755   5.605   1.186   1.938  0.7256  0.1470  0.1971
19114TIP3   OH278756   2.410   4.943  14.249 -0.2865 -0.0237  0.5051
19114TIP3    H178757   2.490   4.991  14.271 -0.3136 -0.1830  0.9664
19114TIP3    H278758   2.359   5.004  14.196 -0.1355  0.3031  0.7316
19115TIP3   OH278759   6.607   6.188   3.268  0.4760 -0.4684 -0.5095
19115TIP3    H178760   6.621   6.232   3.184 -0.8280 -0.6577 -0.8516
19115TIP3    H278761   6.588   6.258   3.330 -2.8297 -0.4727 -1.3019
19116TIP3   OH278762   3.605   5.213  12.826 -0.7418  0.5314 -0.9839
19116TIP3    H178763   3.562   5.286  12.781  0.0257 -0.2103 -3.0922
19116TIP3    H278764   3.633   5.156  12.755 -1.6374 -2.0389  0.6051
19117TIP3   OH278765   4.000   2.714   2.667  0.1542  0.4789 -0.1384
19117TIP3    H178766   4.092   2.731   2.685  0.0097 -0.3222  1.5133
19117TIP3    H278767   3.960   2.702   2.753 -0.9334 -1.9938 -0.8956
19118TIP3   OH278768   6.762   5.546   0.342  0.4622  0.0733  0.7856
19118TIP3    H178769   6.743   5.470   0.396  0.8349 -1.4243 -1.0879
19118TIP3    H278770   6.858   5.551   0.339  0.4454  0.8116  1.1303
19119TIP3   OH278771   2.935   4.645  11.816  0.4450  0.1294 -0.1718
19119TIP3    H178772   2.937   4.676  11.726  0.4195 -1.9273 -0.9295
19119TIP3    H278773   2.856   4.590  11.821  1.3063 -1.0910  0.6058
19120TIP3   OH278774   1.476   1.883   4.267 -0.2810  0.7073  0.0118
19120TIP3    H178775   1.405   1.894   4.331 -0.5878 -0.1666 -0.1614
19120TIP3    H278776   1.431   1.886   4.182 -0.1938 -0.3786 -0.0837
19121TIP3   OH278777   1.476   5.913   0.058  0.5110  0.1244  0.3148
19121TIP3    H178778   1.446   6.003   0.050  0.4602  0.2281  1.4346
19121TIP3    H278779   1.409   5.861   0.013  0.7258  0.6574 -0.6509
19122TIP3   OH278780   4.602   0.963   5.301 -0.1273  0.0622  0.2787
19122TIP3    H178781   4.535   0.914   5.254  0.3830 -0.5251  0.1453
19122TIP3    H278782   4.559   1.045   5.327 -0.6707  0.0147 -0.4461
19123TIP3   OH278783   3.663   1.658  15.903 -0.7478 -1.8081 -0.6868
19123TIP3    H178784   3.577   1.682  15.937 -0.5192 -1.3077 -0.4531
19123TIP3    H278785   3.647   1.633  15.812 -1.0030 -0.7145 -0.9664
19124TIP3   OH278786   2.653   2.679   0.569  0.6183 -0.3936  0.2520
19124TIP3    H178787   2.651   2.590   0.604 -1.2458 -0.0658  1.1014
19124TIP3    H278788   2.581   2.682   0.507  0.7193  0.4960  0.1627
19125TIP3   OH278789   0.600   2.263   0.344 -0.5123 -0.8173 -0.3338
19125TIP3    H178790   0.551   2.193   0.303  0.1145 -0.4318 -1.8277
19125TIP3    H278791   0.689   2.228   0.353 -0.4967 -0.6686  0.0997
19126TIP3   OH278792   5.627   3.271   1.788  0.4288  0.4195  0.1606
19126TIP3    H178793   5.694   3.299   1.851  1.5032 -1.1131 -0.2442
19126TIP3    H278794   5.630   3.176   1.790 -1.8589  0.2871  0.1922
19127TIP3   OH278795   4.684   6.313  14.776  0.2896 -0.4587 -0.3343
19127TIP3    H178796   4.670   6.318  14.682 -0.5768 -0.0566 -0.1874
19127TIP3    H278797   4.723   6.226  14.790 -0.4203 -0.8920 -0.9628
19128TIP3   OH278798   3.732   2.505   1.283 -0.1280 -0.5574  0.2737
19128TIP3    H178799   3.771   2.489   1.198  0.9673 -0.4034  0.7348
19128TIP3    H278800   3.638   2.492   1.269 -0.1418  0.9096 -1.2928
19129TIP3   OH278801   5.055   2.418   2.243  0.0675  0.0807 -0.0438
19129TIP3    H178802   5.112   2.350   2.281  1.7212  1.6156  0.3697
19129TIP3    H278803   4.966   2.389   2.262  0.7795 -0.4248  2.9540
19130TIP3   OH278804   4.084   6.228  15.443 -0.3200 -0.3192  0.5129
19130TIP3    H178805   4.073   6.231  15.538  3.4574  0.1828  1.0760
19130TIP3    H278806   4.055   6.314  15.413  0.9550  0.5262  1.6080
19131TIP3   OH278807   5.639   5.879   1.159  0.1848 -0.0934 -0.0787
19131TIP3    H178808   5.657   5.882   1.066  1.3376  0.3802  0.1436
19131TIP3    H278809   5.697   5.812   1.194 -0.9736 -1.0158  0.1692
19132TIP3   OH278810   4.626   2.386   5.730  0.1118  0.1177 -0.3428
19132TIP3    H178811   4.636   2.471   5.773 -0.3180  0.4425 -0.8571
19132TIP3    H278812   4.713   2.348   5.730  0.6284  1.2263 -1.4480
19133TIP3   OH278813   3.483   6.149  16.312  0.0815 -0.3688 -0.1043
19133TIP3    H178814   3.523   6.217  16.368 -0.5107  0.0149 -0.1402
19133TIP3    H278815   3.397   6.135  16.351 -0.6853  0.5246 -1.4162
19134TIP3   OH278816   4.203   3.339   3.232  0.3314  0.2391 -0.2372
19134TIP3    H178817   4.126   3.345   3.176  0.5001 -1.7033 -0.7533
19134TIP3    H278818   4.276   3.328   3.170  0.8822  0.9096  0.2833
19135TIP3   OH278819   2.559   2.691   5.106  0.3655 -0.0739 -0.0868
19135TIP3    H178820   2.631   2.752   5.121  0.7540 -0.7901  1.1360
19135TIP3    H278821   2.486   2.727   5.157  0.6044 -0.6043  0.6629
19136TIP3   OH278822   3.747   4.028   0.798  0.0694  0.4839  0.1645
19136TIP3    H178823   3.761   4.089   0.726  0.3075  1.1612  0.7742
19136TIP3    H278824   3.653   4.010   0.797  0.2361 -0.4299 -1.0363
19137TIP3   OH278825   1.212   1.240   3.721  0.0440  0.1620 -0.2908
19137TIP3    H178826   1.213   1.281   3.807  1.9177  0.0608 -0.2228
19137TIP3    H278827   1.259   1.158   3.733 -0.7321 -0.4320 -1.1626
19138TIP3   OH278828   3.210   0.783   3.816  0.9916 -0.1483 -0.2416
19138TIP3    H178829   3.171   0.770   3.729  1.4006 -0.5833 -0.3623
19138TIP3    H278830   3.291   0.733   3.814  0.1344 -1.6917  1.0047
19139TIP3   OH278831   6.204   6.103  11.106 -0.3220 -0.5145  0.3167
19139TIP3    H178832   6.138   6.165  11.075  1.9691  0.7572 -2.4554
19139TIP3    H278833   6.261   6.088  11.030  0.5635 -4.3459  1.5208
19140TIP3   OH278834   2.817   1.784  12.176 -0.3576  0.0322  0.3164
19140TIP3    H178835   2.837   1.739  12.093  1.1352  1.0665  0.0783
19140TIP3    H278836   2.734   1.746  12.204 -0.6248 -0.7358 -1.3825
19141TIP3   OH278837   4.382   0.068  10.366 -0.4296  0.1067  0.0091
19141TIP3    H178838   4.424   0.153  10.351 -2.4115  1.8795  3.3107
19141TIP3    H278839   4.400   0.048  10.458 -2.9960 -1.2589  0.3029
19142TIP3   OH278840   5.219   1.055   5.698 -0.0209  0.2140  0.1138
19142TIP3    H178841   5.220   1.149   5.715  0.9904  0.2945 -0.2935
19142TIP3    H278842   5.245   1.047   5.606 -2.4020 -0.3655 -0.5839
19143TIP3   OH278843   4.204   4.903  15.863 -0.0093  0.5882 -0.4092
19143TIP3    H178844   4.184   4.995  15.852 -1.0376  0.2458 -1.5540
19143TIP3    H278845   4.299   4.898  15.854  0.2102  1.6868  0.9804
19144TIP3   OH278846   2.904   1.796  10.601  0.0550  0.4987 -0.1986
19144TIP3    H178847   2.871   1.871  10.650 -0.2380  0.8099 -0.8628
19144TIP3    H278848   2.930   1.832  10.516  0.9296  0.0371 -0.1382
19145TIP3   OH278849   5.984   6.627   2.367  0.5265 -0.4564  0.1695
19145TIP3    H178850   6.045   6.552   2.360  2.1091  0.7510  0.3851
19145TIP3    H278851   6.041   6.701   2.387 -0.9370  0.9287 -0.6319
19146TIP3   OH278852   0.484   6.331   2.762  0.2698  0.1159  0.6292
19146TIP3    H178853   0.451   6.416   2.731 -0.7151 -0.2638  0.6032
19146TIP3    H278854   0.462   6.329   2.855  1.2816  0.3415  0.8848
19147TIP3   OH278855   0.470   6.341   3.303  0.3198 -0.0238 -0.1547
19147TIP3    H178856   0.383   6.305   3.287  0.2599  0.2455 -0.4539
19147TIP3    H278857   0.475   6.349   3.399  0.0421 -0.1000 -0.1318
19148TIP3   OH278858   4.308   4.872  16.199  0.3019  0.2829  0.5708
19148TIP3    H178859   4.369   4.799  16.207  0.1928 -0.0453 -1.1913
19148TIP3    H278860   4.259   4.853  16.119  0.2299  2.2576  0.1005
19149TIP3   OH278861   0.271   6.064  16.521  0.2488 -0.0729  0.0329
19149TIP3    H178862   0.354   6.077  16.476  0.8189 -1.5301  0.6247
19149TIP3    H278863   0.257   6.146  16.569  1.5589  0.0402  0.2582
19150TIP3   OH278864   4.141   1.854   5.209 -0.7901 -0.2955 -0.0031
19150TIP3    H178865   4.175   1.765   5.199 -2.5540 -0.8768 -1.4392
19150TIP3    H278866   4.051   1.843   5.240 -0.8027  1.0226  0.5105
19151TIP3   OH278867   1.860   2.874  12.428 -0.7376  0.0188 -0.1266
19151TIP3    H178868   1.915   2.952  12.426 -1.4218  0.5374  0.6311
19151TIP3    H278869   1.874   2.836  12.515 -2.7374  1.0575  0.7281
19152TIP3   OH278870   5.009   5.012   2.312  0.2751 -0.3822  0.1241
19152TIP3    H178871   4.921   4.989   2.342  0.2911  0.1672  0.6144
19152TIP3    H278872   5.048   4.929   2.286  0.1500 -0.8445  1.3496
19153TIP3   OH278873   1.770   0.087  12.774 -0.2983  0.6103 -0.3812
19153TIP3    H178874   1.699   0.029  12.803  0.2650 -0.2695 -0.7274
19153TIP3    H278875   1.743   0.115  12.687 -0.2302  0.2809 -0.5104
19154TIP3   OH278876   6.299   3.397   1.037  0.1427  0.8012  0.4712
19154TIP3    H178877   6.260   3.411   1.123  1.9131 -0.6518  1.5867
19154TIP3    H278878   6.354   3.320   1.048  0.7206  0.8050 -1.8834
19155TIP3   OH278879   6.029   5.027  12.444  0.4282  0.2009 -0.3030
19155TIP3    H178880   6.046   4.933  12.454 -0.3582 -0.1504 -1.9338
19155TIP3    H278881   6.070   5.067  12.521 -2.2476 -1.7970  2.3692
19156TIP3   OH278882   6.160   4.716  14.239  0.4566 -0.4798  0.2004
19156TIP3    H178883   6.148   4.787  14.302  1.4468 -0.7293  0.6977
19156TIP3    H278884   6.084   4.660  14.250 -0.3228  0.4671 -0.1695
19157TIP3   OH278885   3.827   5.058  14.281 -0.3149  0.2645  0.4059
19157TIP3    H178886   3.920   5.075  14.267 -1.1667  3.8767 -2.4419
19157TIP3    H278887   3.803   5.116  14.353 -0.3029 -1.3188  1.7465
19158TIP3   OH278888   3.186   3.939  14.665  0.0097 -0.0268 -0.3373
19158TIP3    H178889   3.125   3.899  14.603 -0.3770  0.5603 -0.3358
19158TIP3    H278890   3.132   3.965  14.739  0.4332 -0.5034  0.1581
19159TIP3   OH278891   1.103   3.634   3.555  0.0647 -0.6091  0.3813
19159TIP3    H178892   1.184   3.592   3.586  0.0007 -1.6076 -0.7340
19159TIP3    H278893   1.033   3.575   3.584 -0.2921  0.2564  1.3515
19160TIP3   OH278894   6.451   1.390   3.500 -0.3264 -0.1245  0.1626
19160TIP3    H178895   6.440   1.356   3.412 -0.6148 -0.1544  0.2104
19160TIP3    H278896   6.541   1.369   3.523 -0.6406 -1.2901  0.3842
19161TIP3   OH278897   5.184   0.982   1.010  0.3471 -0.1656 -0.5286
19161TIP3    H178898   5.156   0.938   1.090 -1.1815  1.3247 -0.1862
19161TIP3    H278899   5.153   1.072   1.020  0.5303  0.1758 -2.6066
19162TIP3   OH278900   4.979   6.020  12.890  0.3001  0.0242  0.6018
19162TIP3    H178901   5.052   6.059  12.938  1.1589  0.9470 -1.3816
19162TIP3    H278902   5.019   5.959  12.829 -0.3283  1.8935 -1.8380
19163TIP3   OH278903   0.700   1.951  13.671  0.2179 -0.2109 -0.0868
19163TIP3    H178904   0.664   1.907  13.749 -0.9322  0.0883 -0.4330
19163TIP3    H278905   0.779   1.994  13.703  0.7440 -1.5649  0.5169
19164TIP3   OH278906   3.841   4.417  16.072  0.4692 -0.0551 -0.2277
19164TIP3    H178907   3.834   4.381  16.160 -0.5655  0.7862  0.0505
19164TIP3    H278908   3.887   4.500  16.084 -0.5517  0.5360 -0.3353
19165TIP3   OH278909   3.747   6.623   3.944 -0.2544 -0.1875 -0.4024
19165TIP3    H178910   3.693   6.654   3.871  1.5744  1.2538 -1.2055
19165TIP3    H278911   3.709   6.664   4.021 -1.5940 -0.9220 -0.6378
19166TIP3   OH278912   6.231   6.371   6.031 -0.5156 -0.1381 -0.3745
19166TIP3    H178913   6.179   6.440   6.073 -0.3426 -0.2533  0.0431
19166TIP3    H278914   6.263   6.411   5.950  0.2131  0.5346  0.2289
19167TIP3   OH278915   0.484   2.665  17.217 -0.4423 -0.0790 -0.0234
19167TIP3    H178916   0.476   2.571  17.204  0.6906 -0.3307  0.9632
19167TIP3    H278917   0.518   2.698  17.134  0.8798 -0.7957  0.2091
19168TIP3   OH278918   4.010   1.467   1.843  0.0825  0.0040  0.0662
19168TIP3    H178919   3.986   1.534   1.779  0.1683  2.1923  2.2229
19168TIP3    H278920   4.095   1.435   1.813  0.4115  1.4351 -0.5947
19169TIP3   OH278921   1.002   5.682  11.786 -0.1362  0.0310 -0.3823
19169TIP3    H178922   0.942   5.726  11.725  0.1680 -1.4589 -1.8441
19169TIP3    H278923   1.089   5.698  11.749  0.1745  0.2177  0.4195
19170TIP3   OH278924   0.078   5.024  14.029  0.1203  0.1415 -0.0034
19170TIP3    H178925   0.066   4.932  14.008 -1.0525  0.2895 -0.0293
19170TIP3    H278926   0.060   5.029  14.123  0.7907  0.2488  0.1233
19171TIP3   OH278927   4.016   5.783  13.233 -0.9231 -0.1092  0.6809
19171TIP3    H178928   4.044   5.848  13.167 -1.2562  0.8622  1.4681
19171TIP3    H278929   4.051   5.700  13.201 -1.7102  0.1995 -1.1334
19172TIP3   OH278930   6.443   2.315  13.715 -0.3994 -0.1494  0.0172
19172TIP3    H178931   6.434   2.380  13.784  0.0261  0.7719 -0.7823
19172TIP3    H278932   6.354   2.294  13.689 -0.5350  2.0752 -1.5148
19173TIP3   OH278933   4.299   3.955  15.391 -0.7181  0.5311  0.8480
19173TIP3    H178934   4.248   3.902  15.452 -1.1342 -1.0034 -0.7396
19173TIP3    H278935   4.365   3.895  15.356 -0.5090  1.3565 -0.2389
19174TIP3   OH278936   3.247   3.280  12.093 -0.3070  0.0231  0.0169
19174TIP3    H178937   3.158   3.293  12.062 -0.7070 -0.9247  0.7089
19174TIP3    H278938   3.285   3.216  12.033 -0.6841 -0.9004  0.7447
19175TIP3   OH278939   0.009   0.302  13.744  0.1092 -0.1405  0.3715
19175TIP3    H178940   0.066   0.279  13.818  0.8396  2.8302  0.8897
19175TIP3    H278941  -0.004   0.397  13.753  1.0005  0.5830 -3.7933
19176TIP3   OH278942   4.056   2.428   4.894  0.8182  0.0497 -0.1874
19176TIP3    H178943   4.113   2.434   4.817  1.8811  1.3016  0.6673
19176TIP3    H278944   4.028   2.336   4.895  3.1172 -0.7245 -0.4335
19177TIP3   OH278945   0.905   0.685  15.169  0.1634  0.3177 -0.0091
19177TIP3    H178946   0.885   0.777  15.190 -1.3795  0.6967 -2.7568
19177TIP3    H278947   0.961   0.657  15.241 -0.8059  2.8489  1.9134
19178TIP3   OH278948   6.181   4.680   1.637 -0.7726  0.8299  0.3523
19178TIP3    H178949   6.186   4.615   1.707  0.4692 -0.5188 -0.9112
19178TIP3    H278950   6.253   4.657   1.579 -0.2119  3.4611 -0.0880
19179TIP3   OH278951   5.539   1.206   4.752 -0.1136  0.5108  0.2332
19179TIP3    H178952   5.482   1.139   4.713  1.0579 -1.4800  1.7259
19179TIP3    H278953   5.611   1.215   4.690  0.1318 -0.2568  0.3894
19180TIP3   OH278954   2.310   4.828  11.601  0.1251 -0.5076  0.1906
19180TIP3    H178955   2.346   4.841  11.689  0.7874 -0.5621 -0.0662
19180TIP3    H278956   2.369   4.877  11.543  2.2088 -3.7499 -0.7194
19181TIP3   OH278957   3.823   3.045  10.468  0.4626  0.1748 -0.1658
19181TIP3    H178958   3.797   3.131  10.434 -0.0045 -0.4810 -1.5411
19181TIP3    H278959   3.900   3.064  10.522  0.2429  1.4834 -0.2568
19182TIP3   OH278960   1.242   0.661   2.043 -0.5152  0.0178  0.2047
19182TIP3    H178961   1.329   0.637   2.074  0.0224  0.6301 -0.7611
19182TIP3    H278962   1.224   0.600   1.972 -0.7833  0.0101  0.2811
19183TIP3   OH278963   5.930   4.758   4.695 -0.2423  0.5105  0.6486
19183TIP3    H178964   5.875   4.834   4.716  0.5996  1.2144  0.4029
19183TIP3    H278965   5.931   4.706   4.775 -0.2077  1.1646  1.0825
19184TIP3   OH278966   5.636   2.981   2.430 -0.0828 -0.1624 -0.7102
19184TIP3    H178967   5.541   2.980   2.417 -0.0139 -0.1135 -1.2636
19184TIP3    H278968   5.672   2.962   2.343  0.4218  0.6874 -0.7046
19185TIP3   OH278969   0.803   3.460  13.762 -0.2678  0.1068 -0.1615
19185TIP3    H178970   0.839   3.440  13.675  0.0804 -1.4482  0.2978
19185TIP3    H278971   0.876   3.444  13.822 -0.5607  0.9697  0.4391
19186TIP3   OH278972   1.252   3.212   0.706 -0.0027 -0.1015 -0.5839
19186TIP3    H178973   1.262   3.190   0.798  0.6279 -3.4793 -1.3124
19186TIP3    H278974   1.163   3.186   0.685 -0.1817  0.7612 -0.9307
19187TIP3   OH278975   4.027   2.119   3.140 -0.1060 -0.4626  0.1917
19187TIP3    H178976   3.956   2.174   3.107  1.0689  2.4652  2.1104
19187TIP3    H278977   4.025   2.130   3.235  1.2893 -2.4119  0.5079
19188TIP3   OH278978   0.632   2.538   5.159 -0.1340 -0.1228 -0.6244
19188TIP3    H178979   0.722   2.509   5.144 -0.4202 -0.6440 -1.4205
19188TIP3    H278980   0.598   2.480   5.226  0.5221  0.9210  0.6586
19189TIP3   OH278981   1.123   1.302   6.055 -0.1360  0.8977 -0.3393
19189TIP3    H178982   1.168   1.355   6.122 -0.9872 -0.5256  1.4518
19189TIP3    H278983   1.030   1.312   6.075 -0.3472 -0.6306 -0.4153
19190TIP3   OH278984   4.140   1.765  11.556 -0.0172 -0.2134  0.0020
19190TIP3    H178985   4.146   1.755  11.651 -0.7338  0.4033  0.1209
19190TIP3    H278986   4.211   1.825  11.534 -0.4518  0.4145  0.2850
19191TIP3   OH278987   6.196   6.461  14.673 -0.4037 -1.0748  0.3402
19191TIP3    H178988   6.273   6.473  14.617 -0.0577 -0.2290  0.9714
19191TIP3    H278989   6.231   6.426  14.755 -0.8640 -1.9979  0.1459
19192TIP3   OH278990   4.240   3.952   5.778  0.1159 -0.8118  0.8389
19192TIP3    H178991   4.247   4.010   5.854  1.3603 -0.7826  0.7146
19192TIP3    H278992   4.160   3.902   5.794 -1.3665  1.3627  0.6409
19193TIP3   OH278993   0.406   4.014  12.836 -0.5631 -0.3340 -0.0509
19193TIP3    H178994   0.318   4.039  12.863 -1.1533 -1.9905 -0.3819
19193TIP3    H278995   0.437   3.955  12.905  0.4534  0.5240  0.2608
19194TIP3   OH278996   3.854   2.563  11.439 -0.5274  0.2455 -0.0324
19194TIP3    H178997   3.866   2.644  11.390  2.7459  0.4753  0.8881
19194TIP3    H278998   3.902   2.577  11.521  0.7668 -2.7999 -0.1305
19195TIP3   OH278999   4.388   4.283  14.931  0.0411  0.3290 -0.0403
19195TIP3    H179000   4.365   4.306  15.020 -0.5633  0.6280 -0.2725
19195TIP3    H279001   4.480   4.308  14.922 -0.3392  1.8042 -0.0071
19196TIP3   OH279002   0.615   1.704   6.010 -0.5363 -0.6238 -0.1497
19196TIP3    H179003   0.521   1.697   6.026 -1.1942  2.3297 -1.9260
19196TIP3    H279004   0.643   1.775   6.069  0.2880 -0.5660 -0.6013
19197TIP3   OH279005   4.336   0.264  11.567 -0.1135  0.9126  0.0462
19197TIP3    H179006   4.286   0.317  11.505 -1.8851  0.8142  1.3403
19197TIP3    H279007   4.328   0.174  11.534 -1.1861  0.8392  0.4735
19198TIP3   OH279008   3.548   1.291   0.141  0.1582 -0.0760 -0.3959
19198TIP3    H179009   3.571   1.375   0.181 -0.8697 -0.6283  1.4593
19198TIP3    H279010   3.621   1.234   0.163 -0.3877 -0.3690  0.7347
19199TIP3   OH279011   3.836   5.109   3.044 -0.0464  0.3448  0.2199
19199TIP3    H179012   3.836   5.204   3.049 -0.0449  0.3179  0.7104
19199TIP3    H279013   3.745   5.086   3.025  0.0165  0.4583 -0.2445
19200TIP3   OH279014   3.371   0.248   0.438 -0.5277 -0.4677 -0.3899
19200TIP3    H179015   3.440   0.278   0.497  1.3435  0.6915 -2.9336
19200TIP3    H279016   3.312   0.323   0.429 -1.3766 -0.9837  0.7181
19201TIP3   OH279017   4.020   1.542   0.137 -0.4802  0.1585  0.2970
19201TIP3    H179018   3.974   1.458   0.141 -2.2584  0.9971 -1.2229
19201TIP3    H279019   4.079   1.534   0.062 -0.5002  0.2229  0.2748
19202TIP3   OH279020   6.368   1.179   4.476 -0.0051  0.1669 -0.3436
19202TIP3    H179021   6.354   1.095   4.434 -0.4250  0.1208 -0.1239
19202TIP3    H279022   6.412   1.159   4.558 -1.5506 -0.0232  0.4900
19203TIP3   OH279023   2.314   0.917   1.579  0.0337  0.1860 -0.7168
19203TIP3    H179024   2.276   0.868   1.505 -0.3449  0.4210 -0.6807
19203TIP3    H279025   2.404   0.935   1.552  0.4502 -1.2496 -0.3933
19204TIP3   OH279026   1.202   1.078  13.104 -0.2101 -0.2598 -0.9611
19204TIP3    H179027   1.162   1.148  13.052  0.8353  2.0143  1.1345
19204TIP3    H279028   1.296   1.083  13.083  0.0816  0.0225  0.3291
19205TIP3   OH279029   2.707   2.183   5.214  0.0658  0.3097 -0.5209
19205TIP3    H179030   2.727   2.269   5.176  0.2123  1.5186  2.0603
19205TIP3    H279031   2.615   2.169   5.195  0.1760  0.7765 -1.4563
19206TIP3   OH279032   6.102   1.143  12.532  0.4388 -0.5736  0.4678
19206TIP3    H179033   6.007   1.133  12.539  0.3596 -1.7579 -1.5087
19206TIP3    H279034   6.121   1.227  12.573 -1.4605 -0.3412  0.9354
19207TIP3   OH279035   3.980   4.304   0.866 -0.6512 -0.2473 -0.0574
19207TIP3    H179036   3.999   4.390   0.904 -2.0779 -0.6217  1.6188
19207TIP3    H279037   3.886   4.304   0.852 -0.5686 -1.2847 -0.6950
19208TIP3   OH279038   4.621   1.537   4.511 -0.5191  0.1890  0.4402
19208TIP3    H179039   4.602   1.534   4.417  0.8982  0.1208  0.1316
19208TIP3    H279040   4.629   1.630   4.531  0.3296  0.1737  0.2235
19209TIP3   OH279041   1.784   4.170  15.479 -0.2235 -0.1387  0.3583
19209TIP3    H179042   1.794   4.130  15.566 -0.1915 -0.7222  0.0883
19209TIP3    H279043   1.799   4.264  15.495  2.3199 -0.4997  0.5861
19210TIP3   OH279044   1.107   2.728  14.241 -0.0483  0.6304  0.2022
19210TIP3    H179045   1.020   2.698  14.267 -1.3062  1.6885 -2.4109
19210TIP3    H279046   1.092   2.813  14.200  2.1994  0.7832 -0.4511
19211TIP3   OH279047   3.768   0.411  13.141  0.3129  0.1194  0.8033
19211TIP3    H179048   3.827   0.453  13.079  0.2191 -0.1344  0.5437
19211TIP3    H279049   3.809   0.327  13.162 -0.2374 -0.3167  0.1724
19212TIP3   OH279050   3.188   3.208  15.643 -0.1208  0.7097  0.2593
19212TIP3    H179051   3.202   3.178  15.733  1.2282 -0.4185 -0.3043
19212TIP3    H279052   3.093   3.201  15.631 -0.2051 -0.1558  1.2454
19213TIP3   OH279053   1.513   1.323   1.505 -0.5499  0.1042 -0.5040
19213TIP3    H179054   1.517   1.365   1.419 -0.3559 -0.4990 -0.7941
19213TIP3    H279055   1.555   1.238   1.492  1.3379  0.7888  0.6679
19214TIP3   OH279056   2.995   3.815   3.830  0.1511 -0.0984  0.1376
19214TIP3    H179057   3.045   3.824   3.748 -1.4348  1.7373 -0.7153
19214TIP3    H279058   3.058   3.778   3.892  2.7157  2.3915 -0.7480
19215TIP3   OH279059   4.552   2.778  14.967  1.0489 -0.1349 -0.2622
19215TIP3    H179060   4.476   2.786  15.025  1.1732 -1.6204  0.1593
19215TIP3    H279061   4.517   2.793  14.880  0.1671 -1.1507 -0.1087
19216TIP3   OH279062   5.794   4.162  15.558  0.0718 -0.1977  0.1867
19216TIP3    H179063   5.878   4.126  15.586 -0.8471 -2.2412  0.5157
19216TIP3    H279064   5.815   4.249  15.524  2.2206 -0.4347  0.7671
19217TIP3   OH279065   6.412   4.766  16.485  0.1370  0.0901  0.2990
19217TIP3    H179066   6.351   4.791  16.415  0.8965  2.5383  0.4102
19217TIP3    H279067   6.400   4.834  16.552 -0.0271 -1.7766  2.2624
19218TIP3   OH279068   4.994   1.198   4.022 -0.3904 -0.3525 -0.4472
19218TIP3    H179069   4.926   1.205   4.089  0.8228  1.5267  0.6781
19218TIP3    H279070   4.998   1.285   3.982  1.0946 -0.5260 -0.7352
19219TIP3   OH279071   4.907   2.115   0.763  0.3389 -0.0543  0.4970
19219TIP3    H179072   4.831   2.067   0.728 -0.1958  1.1465 -0.0529
19219TIP3    H279073   4.881   2.207   0.759  1.4482  0.3163  1.2632
19220TIP3   OH279074   5.168   5.382   2.372  0.0372  0.2413  0.4672
19220TIP3    H179075   5.150   5.290   2.393  0.0978  0.5447  1.9314
19220TIP3    H279076   5.082   5.419   2.353  0.1064 -0.3152 -1.0601
19221TIP3   OH279077   0.950   4.481   3.443 -0.0487 -0.0798 -0.2019
19221TIP3    H179078   0.999   4.560   3.420  0.8926  0.1474  2.2215
19221TIP3    H279079   0.883   4.512   3.504 -1.4358 -0.8137 -1.2887
19222TIP3   OH279080   4.336   2.873   6.038  0.3816  0.1052 -0.1192
19222TIP3    H179081   4.294   2.826   5.966  2.4674 -0.7642 -0.8422
19222TIP3    H279082   4.265   2.887   6.102 -1.0522 -0.9740 -1.3854
19223TIP3   OH279083   2.717   5.884  16.135 -0.0830 -0.1475 -0.1152
19223TIP3    H179084   2.716   5.980  16.140  0.3923 -0.1910  2.4650
19223TIP3    H279085   2.639   5.857  16.183  1.6932 -0.9978  2.5365
19224TIP3   OH279086   3.435   0.505   4.256  0.0459  0.2280  0.0307
19224TIP3    H179087   3.492   0.442   4.300  3.0722  2.0991 -0.8854
19224TIP3    H279088   3.443   0.484   4.163  0.0904  1.1913 -0.1887
19225TIP3   OH279089   3.720   5.584   0.496  0.2556  0.1286 -0.0185
19225TIP3    H179090   3.793   5.645   0.492  1.0114 -0.6918  0.6411
19225TIP3    H279091   3.673   5.609   0.576 -1.3970  1.9347 -1.4893
19226TIP3   OH279092   2.192   6.470   3.409 -0.0131  0.2903  0.1130
19226TIP3    H179093   2.222   6.381   3.431  0.3416  0.6332  1.0968
19226TIP3    H279094   2.117   6.484   3.467 -0.9041  0.1591 -0.9731
19227TIP3   OH279095   0.343   4.552   2.720  0.1483 -0.5477  0.7220
19227TIP3    H179096   0.352   4.458   2.707  0.0242 -0.2608 -1.8851
19227TIP3    H279097   0.269   4.577   2.665 -0.3626  0.9768  2.0196
19228TIP3   OH279098   5.650   3.912  13.956  0.3648 -0.3413  0.0795
19228TIP3    H179099   5.561   3.935  13.931 -0.2646 -0.5955  1.9630
19228TIP3    H279100   5.706   3.967  13.901 -1.0075  3.1542  1.8858
19229TIP3   OH279101   2.673   5.082   3.051  0.1463  0.0298 -0.1433
19229TIP3    H179102   2.703   4.991   3.050 -0.2536 -0.1680  1.5486
19229TIP3    H279103   2.733   5.126   3.111 -0.4657  0.5634  0.0887
19230TIP3   OH279104   2.346   1.438  13.733 -0.0734 -0.4229  0.4857
19230TIP3    H179105   2.420   1.406  13.682 -1.0219  0.3078 -1.4609
19230TIP3    H279106   2.380   1.515  13.779  0.5093 -0.3894  0.0057
19231TIP3   OH279107   2.880   0.770   0.765  0.1241  0.1135 -0.1865
19231TIP3    H179108   2.917   0.723   0.839  1.6456 -0.3509 -1.2003
19231TIP3    H279109   2.951   0.827   0.734 -0.7601  0.9622 -0.7494
19232TIP3   OH279110   3.675   6.447   5.215 -0.0632  0.3784  0.0120
19232TIP3    H179111   3.711   6.526   5.175 -0.0379 -0.0664 -0.8667
19232TIP3    H279112   3.584   6.445   5.186  0.3315 -0.6979 -1.2069
19233TIP3   OH279113   3.753   3.450  11.753  0.2000 -0.4802  0.3607
19233TIP3    H179114   3.807   3.495  11.818 -0.4489 -0.7038  1.0674
19233TIP3    H279115   3.670   3.434  11.798  0.2352 -1.9168 -0.0450
19234TIP3   OH279116   1.819   3.323  16.374  0.5078  0.1710 -0.0010
19234TIP3    H179117   1.725   3.327  16.358 -0.1712 -1.7574  2.7944
19234TIP3    H279118   1.859   3.345  16.289 -2.4020  1.0839 -1.2592
19235TIP3   OH279119   4.766   4.781   4.303 -0.4864 -0.1166  0.4813
19235TIP3    H179120   4.788   4.763   4.212 -1.0786  0.7934  0.1518
19235TIP3    H279121   4.671   4.793   4.304 -0.6886 -1.5093  1.4702
19236TIP3   OH279122   5.034   6.159  11.911 -0.6469  0.1469  0.4684
19236TIP3    H179123   5.107   6.102  11.886  1.0805  2.3228  0.2348
19236TIP3    H279124   5.030   6.224  11.841 -1.1884  1.5235  1.7320
19237TIP3   OH279125   4.611   1.424   3.836 -0.0306 -0.0142  0.3525
19237TIP3    H179126   4.555   1.351   3.811  1.6785 -2.3015  2.6359
19237TIP3    H279127   4.674   1.432   3.764 -1.8955  1.1852 -1.2305
19238TIP3   OH279128   1.914   0.946  12.232 -0.3222 -0.0008 -0.4644
19238TIP3    H179129   1.978   0.919  12.166  1.0260  1.4839  0.1817
19238TIP3    H279130   1.950   0.915  12.315  1.1125  3.2339  0.2629
19239TIP3   OH279131   3.283   1.334   3.905  0.0003 -0.0817  0.3753
19239TIP3    H179132   3.281   1.262   3.968  1.1899 -0.9789 -0.5934
19239TIP3    H279133   3.353   1.312   3.844  0.9310  2.2607  0.4847
19240TIP3   OH279134   2.201   6.530   4.458  0.4722  0.2193  0.0559
19240TIP3    H179135   2.216   6.465   4.390  0.2923  0.4776 -0.2292
19240TIP3    H279136   2.185   6.611   4.411  0.9956  0.5379  0.4160
19241TIP3   OH279137   2.295   4.668   3.208 -0.6785  0.2949  0.1960
19241TIP3    H179138   2.239   4.742   3.231 -0.9093  0.5867 -1.2015
19241TIP3    H279139   2.249   4.591   3.240 -0.6238  0.7181  1.3165
19242TIP3   OH279140   5.058   1.703   1.801  0.0641  0.0130  0.2695
19242TIP3    H179141   5.098   1.783   1.767 -2.4057  1.0210 -0.5086
19242TIP3    H279142   4.993   1.734   1.865 -0.3925 -1.4121  0.5388
19243TIP3   OH279143   3.331   1.907   6.074 -0.3333  0.1546 -0.6119
19243TIP3    H179144   3.401   1.971   6.091  0.3553 -0.9481  0.8796
19243TIP3    H279145   3.254   1.946   6.115  0.2336 -0.2407  0.8791
19244TIP3   OH279146   4.831   6.103   0.944  0.3269  0.4927  0.0245
19244TIP3    H179147   4.833   6.112   0.849 -0.4485 -1.3178 -0.2004
19244TIP3    H279148   4.823   6.193   0.977 -0.8206  1.0383 -1.6641
19245TIP3   OH279149   0.862   4.968   5.566  0.2039  0.1750 -0.0010
19245TIP3    H179150   0.951   4.980   5.532  0.5099  0.6556  0.9253
19245TIP3    H279151   0.875   4.948   5.659 -0.6885  1.3429  0.3967
19246TIP3   OH279152   3.548   3.945  16.865 -0.0923 -0.0173  0.3235
19246TIP3    H179153   3.617   3.959  16.800 -0.5489  1.0054  0.0283
19246TIP3    H279154   3.594   3.944  16.949  0.5019 -1.3190  0.0126
19247TIP3   OH279155   6.046   2.920   5.286 -0.1054  0.6389 -0.3291
19247TIP3    H179156   6.012   2.954   5.369  0.8316 -0.4072  0.5235
19247TIP3    H279157   6.101   2.846   5.312  1.6733  1.3985 -1.7246
19248TIP3   OH279158   4.608   5.588  13.880 -0.1086  0.0030 -0.3913
19248TIP3    H179159   4.565   5.667  13.912 -1.7355 -0.0569 -2.2261
19248TIP3    H279160   4.630   5.608  13.789  0.7134 -1.1729 -0.4722
19249TIP3   OH279161   5.441   2.636  13.315  0.4901 -0.0590 -0.8772
19249TIP3    H179162   5.383   2.667  13.384  0.5277 -1.2395 -0.2906
19249TIP3    H279163   5.526   2.674  13.336  1.2939 -2.9056  1.6275
19250TIP3   OH279164   6.190   2.735  12.656 -0.0885  0.4370 -0.6651
19250TIP3    H179165   6.241   2.814  12.673 -2.2310  2.1453 -1.6517
19250TIP3    H279166   6.173   2.738  12.562  1.0577 -2.0772 -1.0277
19251TIP3   OH279167   5.898   6.737  13.571  0.1595 -0.0407 -0.6624
19251TIP3    H179168   5.923   6.817  13.524  1.3113  0.3280  0.5068
19251TIP3    H279169   5.980   6.688  13.581  0.5707  1.0313  2.9904
19252TIP3   OH279170   3.464   4.885  13.346 -0.3060  0.3923  0.5410
19252TIP3    H179171   3.371   4.866  13.361 -0.1221 -0.4003  0.7218
19252TIP3    H279172   3.506   4.866  13.430  0.2422 -0.7767  0.0270
19253TIP3   OH279173   4.096   6.108   3.568 -0.1626 -0.2565  0.2490
19253TIP3    H179174   4.040   6.168   3.618 -1.1582 -1.8427  1.1220
19253TIP3    H279175   4.113   6.154   3.486 -0.2061  1.5553  1.2151
19254TIP3   OH279176   3.019   4.268   4.219 -0.4961 -0.1819  0.0083
19254TIP3    H179177   3.073   4.285   4.296 -0.4993 -1.2767  0.2624
19254TIP3    H279178   2.936   4.313   4.238  0.1021  1.0194 -0.1364
19255TIP3   OH279179   3.916   6.604   5.680  0.3089 -0.1419  0.6234
19255TIP3    H179180   3.877   6.580   5.597 -1.1947  1.7799  0.7065
19255TIP3    H279181   3.950   6.692   5.666  2.1027 -0.6543  1.4155
19256TIP3   OH279182   4.893   6.295  11.476  0.7278  0.7383  0.1493
19256TIP3    H179183   4.927   6.233  11.412 -0.5164 -0.6058  0.7505
19256TIP3    H279184   4.828   6.347  11.427 -0.6524 -0.6757  0.4066
19257TIP3   OH279185   6.477   2.873   1.120  0.4635  0.0695  0.9529
19257TIP3    H179186   6.498   2.790   1.079  0.5312  0.1946  0.7301
19257TIP3    H279187   6.499   2.861   1.213  0.7424 -0.0664  0.8702
19258TIP3   OH279188   1.040   1.028   1.161 -0.1042 -0.2354 -0.8962
19258TIP3    H179189   1.045   1.054   1.253 -1.3062  0.4241 -0.9928
19258TIP3    H279190   1.052   0.933   1.162 -2.2479 -0.5621  0.2048
19259TIP3   OH279191   1.742   0.131   2.447  0.2507  0.1357 -0.4114
19259TIP3    H179192   1.785   0.191   2.509  2.0060 -0.3410 -1.1141
19259TIP3    H279193   1.771   0.044   2.474 -0.6489 -0.2406 -0.6464
19260TIP3   OH279194   3.525   5.379   0.903 -0.0246  0.1356  0.4375
19260TIP3    H179195   3.442   5.334   0.919 -0.0799 -0.1971 -0.6938
19260TIP3    H279196   3.583   5.349   0.972 -1.1273  1.1631  1.8907
19261TIP3   OH279197   0.524   6.557   5.311  0.2755  0.1874  0.1411
19261TIP3    H179198   0.535   6.484   5.250 -0.0940  0.7367 -0.6100
19261TIP3    H279199   0.606   6.560   5.360  0.5278 -0.3586 -0.2372
19262TIP3   OH279200   3.801   1.111  12.415  0.3945  0.9669 -0.6690
19262TIP3    H179201   3.869   1.179  12.413  1.6997 -0.2901 -1.1321
19262TIP3    H279202   3.818   1.063  12.495  0.6837  0.0398 -1.2722
19263TIP3   OH279203   5.031   3.061  12.430  0.1347 -0.0759 -0.0613
19263TIP3    H179204   5.035   2.996  12.360 -1.0275  1.0887 -1.2634
19263TIP3    H279205   5.024   3.145  12.385  0.6513  0.8285  1.4557
19264TIP3   OH279206   1.434   1.223  13.783  0.1488 -0.3999  0.7480
19264TIP3    H179207   1.405   1.243  13.694  1.7486 -1.5542 -0.0912
19264TIP3    H279208   1.481   1.302  13.810  0.0763 -0.2239  0.3771
19265TIP3   OH279209   6.131   5.531  17.300 -0.5657  0.2101 -0.4218
19265TIP3    H179210   6.179   5.481  17.233 -1.4503 -3.1518  1.2195
19265TIP3    H279211   6.197   5.554  17.365 -0.1478  1.2738 -1.1935
19266TIP3   OH279212   0.611   0.939  15.122 -0.4106  0.5517 -0.7121
19266TIP3    H179213   0.609   0.917  15.215 -0.7104 -0.2252 -0.8945
19266TIP3    H279214   0.610   0.854  15.077  1.2667  0.8682 -1.4213
19267TIP3   OH279215   0.362   6.658   4.616 -0.8124 -0.5246  0.2416
19267TIP3    H179216   0.346   6.705   4.535 -1.9286 -0.6962  0.3519
19267TIP3    H279217   0.449   6.620   4.605 -0.7446 -0.1278 -0.6579
19268TIP3   OH279218   5.360   1.653  16.896 -0.2244  0.3288  0.1153
19268TIP3    H179219   5.411   1.573  16.881  0.0088  0.4702  0.1492
19268TIP3    H279220   5.348   1.690  16.809 -2.5900 -1.0974 -0.2491
19269TIP3   OH279221   4.326   4.622   3.044 -0.3996 -0.0165 -0.4137
19269TIP3    H179222   4.336   4.692   3.108  1.9870 -1.6432  1.1755
19269TIP3    H279223   4.402   4.630   2.987  0.1333 -1.4735  0.0432
19270TIP3   OH279224   5.204   0.204  14.740 -0.5176  0.0623 -0.5098
19270TIP3    H179225   5.197   0.172  14.830 -0.3748  0.0999 -0.4849
19270TIP3    H279226   5.298   0.208  14.724 -0.5307  0.6228 -0.4563
19271TIP3   OH279227   5.636   2.639   4.509 -0.6833  0.2889  0.0327
19271TIP3    H179228   5.655   2.611   4.419 -0.1191  0.2214  0.1695
19271TIP3    H279229   5.715   2.685   4.537 -0.1344 -1.2324  1.1048
19272TIP3   OH279230   0.680   3.158  11.883  0.1063  0.1529 -0.2510
19272TIP3    H179231   0.718   3.246  11.886  0.1855  0.1301 -0.5291
19272TIP3    H279232   0.624   3.158  11.806 -2.7620  1.0846  1.6626
19273TIP3   OH279233   4.875   0.467   2.552  0.5216 -0.0457  0.0394
19273TIP3    H179234   4.812   0.397   2.567  2.4197 -1.4511  2.0798
19273TIP3    H279235   4.931   0.435   2.481  1.3518 -0.6408  0.9317
19274TIP3   OH279236   6.747   0.289   3.601 -0.0708 -0.3080  0.3675
19274TIP3    H179237   6.657   0.319   3.587 -0.0553 -0.4170  0.0189
19274TIP3    H279238   6.754   0.279   3.696 -0.7876 -1.4044  0.3186
19275TIP3   OH279239   3.593   1.201  12.242 -0.5220 -0.0037  0.3362
19275TIP3    H179240   3.525   1.140  12.272  1.5604 -1.5247  2.2988
19275TIP3    H279241   3.668   1.183  12.299  1.5017  1.7087 -1.6179
19276TIP3   OH279242   4.706   3.740  13.513  0.0098 -0.1874 -0.7221
19276TIP3    H179243   4.787   3.717  13.560 -1.1762 -0.5467  1.2464
19276TIP3    H279244   4.670   3.813  13.562 -1.2265 -0.4935 -1.1349
19277TIP3   OH279245   5.619   5.043  11.714 -0.2918  0.6821 -0.2299
19277TIP3    H179246   5.528   5.040  11.684 -0.1799 -2.0011 -0.5593
19277TIP3    H279247   5.613   5.058  11.808 -1.0384  0.8038 -0.2945
19278TIP3   OH279248   0.958   3.476  16.678 -0.1926 -0.1522 -0.1136
19278TIP3    H179249   0.919   3.491  16.764 -2.3456  1.8499 -1.3302
19278TIP3    H279250   1.007   3.394  16.688 -3.8826 -2.3804  1.8734
19279TIP3   OH279251   4.147   2.336   1.763 -0.1211 -0.1433  0.0227
19279TIP3    H179252   4.198   2.406   1.804 -1.4858  0.1206  1.3437
19279TIP3    H279253   4.209   2.292   1.705  1.1411  1.2372  0.2753
19280TIP3   OH279254   4.519   5.006  13.924 -0.0047 -0.5082 -0.1110
19280TIP3    H179255   4.552   5.064  13.992 -2.5859  1.9262 -0.7328
19280TIP3    H279256   4.553   5.042  13.843  0.1142 -1.2238 -0.3902
19281TIP3   OH279257   4.821   6.303  12.644  0.2381 -0.1640 -0.6471
19281TIP3    H179258   4.910   6.338  12.641 -0.0408  0.5040 -1.5122
19281TIP3    H279259   4.769   6.362  12.590 -1.4029  1.3055  2.2625
19282TIP3   OH279260   5.105   3.412  12.960 -0.2311 -0.4770 -0.7586
19282TIP3    H179261   5.047   3.470  12.909  0.4839  0.6042 -0.3877
19282TIP3    H279262   5.190   3.456  12.957 -0.1708 -0.3522  1.3971
19283TIP3   OH279263   1.890   3.944  11.992 -0.1529  0.8750 -0.1342
19283TIP3    H179264   1.871   4.009  11.924 -0.7635  1.4266  0.5397
19283TIP3    H279265   1.891   3.994  12.073 -3.0147 -0.2322  0.7355
19284TIP3   OH279266   1.866   4.952  16.766 -0.1275 -0.0276 -0.2470
19284TIP3    H179267   1.834   4.896  16.695 -0.6169 -0.1483  0.0602
19284TIP3    H279268   1.855   4.899  16.845  1.3898 -0.2912 -0.1895
19285TIP3   OH279269   5.758   4.930   4.015 -0.6290  0.2376  0.6164
19285TIP3    H179270   5.785   4.922   3.924  0.7485 -1.2053  1.1037
19285TIP3    H279271   5.815   4.998   4.051 -0.3335 -0.0539  0.6985
19286TIP3   OH279272   0.098   0.507   5.144 -0.0894  0.0622  0.3057
19286TIP3    H179273   0.057   0.572   5.087 -0.1821 -0.3282 -0.0754
19286TIP3    H279274   0.174   0.477   5.094 -0.1238 -0.2216  0.4276
19287TIP3   OH279275   0.478   6.732  15.480 -0.3465  0.1925 -0.0430
19287TIP3    H179276   0.533   6.681  15.540  0.7448  0.8234 -0.4875
19287TIP3    H279277   0.399   6.679  15.471  1.2513 -2.1358 -1.4965
19288TIP3   OH279278   5.336   0.876   3.530 -0.0369  0.3469  0.3979
19288TIP3    H179279   5.370   0.929   3.602 -1.2234  0.0824  1.1823
19288TIP3    H279280   5.244   0.901   3.524  0.0932  0.5588 -1.2190
19289TIP3   OH279281   2.384   2.812   4.812 -0.4662  0.0705 -0.7959
19289TIP3    H179282   2.289   2.807   4.814 -0.5150  0.9890  0.0758
19289TIP3    H279283   2.403   2.898   4.776 -0.0252  0.6913  0.8130
19290TIP3   OH279284   4.816   5.392  15.509  0.0695 -0.0657 -0.0122
19290TIP3    H179285   4.851   5.478  15.487 -0.5107  0.4351  0.9927
19290TIP3    H279286   4.884   5.331  15.481  0.6729  0.7378 -0.3368
19291TIP3   OH279287   2.198   2.824  13.097 -0.1594 -0.9993 -0.2874
19291TIP3    H179288   2.131   2.857  13.037  0.7951  2.0264  0.1656
19291TIP3    H279289   2.176   2.864  13.181  3.0091  1.4711 -0.4495
19292TIP3   OH279290   5.527   2.140  16.776  0.8940 -0.3809  0.8232
19292TIP3    H179291   5.538   2.228  16.813  0.4347  0.5799 -1.2035
19292TIP3    H279292   5.459   2.100  16.831 -0.1453  1.1725  0.7439
19293TIP3   OH279293   2.883   4.396   6.335 -0.0082  0.2492 -0.8680
19293TIP3    H179294   2.925   4.347   6.265  0.9681 -3.1847  1.8430
19293TIP3    H279295   2.803   4.347   6.354 -0.9017  1.8269 -0.3293
19294TIP3   OH279296   5.262   2.949  14.478  0.3270  0.1293  0.4108
19294TIP3    H179297   5.212   3.019  14.520  1.3711  0.2116  1.5499
19294TIP3    H279298   5.240   2.871  14.528  1.4920  0.2071  1.0717
19295TIP3   OH279299   2.120   4.363  17.029 -0.4759  0.2560  0.0424
19295TIP3    H179300   2.213   4.377  17.009 -0.2000 -0.0950  1.0194
19295TIP3    H279301   2.075   4.435  16.985 -0.0549 -1.0594 -2.7338
19296TIP3   OH279302   3.859   4.212  14.472 -0.7467 -0.0535 -0.4436
19296TIP3    H179303   3.778   4.161  14.467 -0.3167 -0.7893 -0.1009
19296TIP3    H279304   3.861   4.247  14.561  0.1690 -1.5310  0.1575
19297TIP3   OH279305   4.070   6.320   3.026  0.1618  0.4328 -0.5920
19297TIP3    H179306   4.120   6.265   2.966  1.0864  0.5898  0.0035
19297TIP3    H279307   4.117   6.403   3.028 -0.3269  0.7076 -0.2930
19298TIP3   OH279308   1.817   3.240   5.123 -0.1426  0.0619 -0.0650
19298TIP3    H179309   1.862   3.259   5.041 -0.1914  0.6844  0.0538
19298TIP3    H279310   1.724   3.248   5.103 -0.3813 -3.1393 -0.8266
19299TIP3   OH279311   5.543   6.414  15.783  0.5455 -0.2113 -0.4086
19299TIP3    H179312   5.606   6.343  15.768  1.2097 -0.0494  1.3687
19299TIP3    H279313   5.514   6.440  15.695  0.8038 -2.2009 -1.1329
19300TIP3   OH279314   0.208   1.151   2.060  0.1226 -0.4001 -0.2957
19300TIP3    H179315   0.130   1.178   2.011 -0.8075  1.9402  2.2431
19300TIP3    H279316   0.278   1.153   1.995 -1.2357  1.2911 -1.8315
19301TIP3   OH279317   4.013   3.917  14.176 -0.0542 -0.6172  0.3893
19301TIP3    H179318   4.012   3.985  14.244 -1.0709 -0.3492  0.1224
19301TIP3    H279319   4.018   3.966  14.094  3.0955 -0.9660  0.2589
19302TIP3   OH279320   4.856   6.630   1.668 -0.4581  0.3297 -0.1993
19302TIP3    H179321   4.810   6.557   1.709 -0.2879 -0.8730 -2.0189
19302TIP3    H279322   4.789   6.676   1.618 -0.2266  0.2975 -0.5446
19303TIP3   OH279323   5.975   4.132  15.221  0.1017  0.1973 -0.3860
19303TIP3    H179324   6.060   4.093  15.200  0.3604  0.8749 -0.6289
19303TIP3    H279325   5.911   4.077  15.175  0.3681 -0.5525  0.1173
19304TIP3   OH279326   6.634   0.094   2.236 -0.0724  0.4730 -0.9394
19304TIP3    H179327   6.593   0.153   2.173 -1.9443 -0.7278 -0.9438
19304TIP3    H279328   6.584   0.012   2.228 -0.2208  0.1759  1.8707
19305TIP3   OH279329   3.683   5.552  15.773  0.5182 -0.4777  0.1663
19305TIP3    H179330   3.772   5.518  15.761 -0.2399 -2.2082 -1.1141
19305TIP3    H279331   3.664   5.598  15.691 -0.2318 -1.3308 -0.1541
19306TIP3   OH279332   2.079   4.863   2.497  0.5421 -0.1750  0.3941
19306TIP3    H179333   1.984   4.847   2.497 -0.2052  3.0860  2.9867
19306TIP3    H279334   2.118   4.777   2.511 -2.0832 -1.4571  0.4538
19307TIP3   OH279335   5.385   1.796   2.209  0.2440  0.1013  0.0345
19307TIP3    H179336   5.324   1.724   2.190 -0.1564 -0.2934  2.4631
19307TIP3    H279337   5.472   1.757   2.198  0.0872  0.1805 -1.7573
19308TIP3   OH279338   1.867   5.449  14.030 -0.3479 -0.0770  0.6114
19308TIP3    H179339   1.890   5.520  13.970  0.3564 -0.7544  0.0543
19308TIP3    H279340   1.797   5.485  14.084 -1.2906  0.4272 -0.8919
19309TIP3   OH279341   1.750   5.997   5.161  0.1308  0.2085 -0.0923
19309TIP3    H179342   1.674   5.999   5.102 -0.1147 -0.2704  0.2050
19309TIP3    H279343   1.826   5.996   5.103 -0.1194 -0.7819 -0.4109
19310TIP3   OH279344   6.464   3.461  14.012  0.1185  0.2098 -0.5668
19310TIP3    H179345   6.477   3.484  13.920  0.7143 -0.2173 -0.5883
19310TIP3    H279346   6.387   3.404  14.012  1.3601 -1.5515 -1.0767
19311TIP3   OH279347   3.016   3.180   0.411  0.2473  0.9846  0.1930
19311TIP3    H179348   2.985   3.270   0.413 -3.0166  0.0328 -0.3382
19311TIP3    H279349   2.975   3.139   0.488  0.3196 -0.3818 -0.4665
19312TIP3   OH279350   4.143   1.333  14.229  0.5085 -0.1073  0.2547
19312TIP3    H179351   4.081   1.267  14.258  0.0356  0.0616 -0.3357
19312TIP3    H279352   4.187   1.362  14.308 -0.1800 -0.2287  0.6917
19313TIP3   OH279353   5.298   5.137  14.916 -0.5927 -0.2787  0.2773
19313TIP3    H179354   5.306   5.045  14.939  2.3042 -0.3034 -0.4583
19313TIP3    H279355   5.285   5.182  15.000 -1.1665 -1.2806  0.7322
19314TIP3   OH279356   4.318   6.623  15.924  0.6678 -1.1567  0.0603
19314TIP3    H179357   4.328   6.648  16.016  0.2183  0.3586 -0.2691
19314TIP3    H279358   4.330   6.705  15.876 -1.2707 -1.4839 -1.0866
19315TIP3   OH279359   5.588   3.911   3.218  0.1031 -0.4287 -0.2585
19315TIP3    H179360   5.654   3.963   3.264 -1.8036  0.7099  1.4143
19315TIP3    H279361   5.611   3.820   3.238  0.2005 -0.0091  1.8252
19316TIP3   OH279362   4.402   2.558   6.066  0.0109 -0.4089 -0.0790
19316TIP3    H179363   4.405   2.597   6.153  0.9121  0.7539 -0.5960
19316TIP3    H279364   4.484   2.585   6.025 -0.6084 -0.5070 -1.4454
19317TIP3   OH279365   3.114   5.881  13.714  0.0221  0.2467  0.2590
19317TIP3    H179366   3.095   5.860  13.623 -0.5045  2.6181 -0.2589
19317TIP3    H279367   3.080   5.807  13.763 -2.4712  0.2152 -1.3016
19318TIP3   OH279368   0.096   6.241  15.041 -0.6572  0.3671  0.8466
19318TIP3    H179369   0.067   6.189  15.116 -0.8935  1.9257  1.9011
19318TIP3    H279370   0.173   6.195  15.007 -1.8325 -1.5409  0.6667
19319TIP3   OH279371   2.706   2.380  10.917 -0.2704 -0.0852  0.1377
19319TIP3    H179372   2.775   2.436  10.953 -1.3310  1.2557  0.1501
19319TIP3    H279373   2.684   2.321  10.989  2.0130 -1.7351 -0.3900
19320TIP3   OH279374   0.880   2.960  11.525 -0.3652  0.2746  0.1892
19320TIP3    H179375   0.947   3.000  11.581 -0.1306  0.7019 -0.3851
19320TIP3    H279376   0.824   2.912  11.586 -0.4926  1.2569  0.8755
19321TIP3   OH279377   2.138   2.224   6.124 -0.3119  0.0565  0.5360
19321TIP3    H179378   2.082   2.267   6.189  1.2193 -0.1156  2.0222
19321TIP3    H279379   2.227   2.243   6.153  0.4085 -0.9098 -0.9571
19322TIP3   OH279380   6.241   0.348  15.003  0.1943  0.2035 -0.8475
19322TIP3    H179381   6.256   0.271  14.948 -0.5636  1.2190 -2.5508
19322TIP3    H279382   6.292   0.417  14.962  0.7875  0.6620  0.6136
19323TIP3   OH279383   6.320   5.655  12.140  0.3147  0.4099 -0.0206
19323TIP3    H179384   6.408   5.625  12.119  0.0384  0.1237 -0.7857
19323TIP3    H279385   6.284   5.586  12.196  0.4158  0.3230 -0.0631
19324TIP3   OH279386   0.601   0.440   1.254 -0.0932  0.2226  0.2743
19324TIP3    H179387   0.616   0.499   1.327 -0.6101  0.5150  0.1465
19324TIP3    H279388   0.524   0.389   1.279  0.4211 -0.4991  0.4443
19325TIP3   OH279389   2.474   1.969  16.269  0.1383 -0.2380  0.0979
19325TIP3    H179390   2.484   1.925  16.185  0.5153  0.7781 -0.3994
19325TIP3    H279391   2.454   2.060  16.247  0.1368  0.0194  1.1082
19326TIP3   OH279392   3.235   5.326  16.654 -0.2908 -0.0690  0.1327
19326TIP3    H179393   3.304   5.384  16.687  1.3801 -1.8268 -0.0788
19326TIP3    H279394   3.158   5.348  16.706  0.4303  1.8906  0.4625
19327TIP3   OH279395   6.403   1.613   3.301 -0.1881  0.2706  0.0418
19327TIP3    H179396   6.394   1.567   3.384 -0.2520 -0.4980 -0.3811
19327TIP3    H279397   6.314   1.615   3.265 -0.0727  0.1211 -0.2575
19328TIP3   OH279398   4.284   0.404  14.098 -0.1327  0.1584 -0.1827
19328TIP3    H179399   4.269   0.365  14.012  0.4151  0.5528 -0.4666
19328TIP3    H279400   4.355   0.353  14.136  0.2501  0.5587 -0.3508
19329TIP3   OH279401   6.678   5.831  16.074  0.7267 -0.3200  0.4316
19329TIP3    H179402   6.641   5.919  16.070 -0.3206 -0.7829 -0.8005
19329TIP3    H279403   6.603   5.773  16.067  1.3600 -1.3434  1.6205
19330TIP3   OH279404   1.255   1.147  15.500 -0.2532 -0.1279  0.6066
19330TIP3    H179405   1.238   1.234  15.537  2.2742  0.2916  1.0145
19330TIP3    H279406   1.319   1.108  15.560 -0.0639 -1.5706 -0.4876
19331TIP3   OH279407   6.193   5.658   3.210 -0.2039 -0.2840 -0.2138
19331TIP3    H179408   6.152   5.735   3.248 -0.3196 -0.5356  0.1749
19331TIP3    H279409   6.151   5.649   3.124 -1.5211 -0.9612  0.4614
19332TIP3   OH279410   4.669   4.834   3.817  0.4493 -0.6402  0.1045
19332TIP3    H179411   4.758   4.861   3.795  0.0454  0.0380 -0.7687
19332TIP3    H279412   4.654   4.756   3.764  1.3349 -2.2175  2.0360
19333TIP3   OH279413   5.586   0.650  15.788  0.5819 -0.5333 -0.2037
19333TIP3    H179414   5.630   0.730  15.816 -2.4871  1.6347 -1.0486
19333TIP3    H279415   5.588   0.654  15.692 -1.6415 -0.1289 -0.2891
19334TIP3   OH279416   6.265   6.487   5.117  0.0888  0.3329 -0.2978
19334TIP3    H179417   6.171   6.474   5.105 -0.0014 -0.0763  0.7290
19334TIP3    H279418   6.294   6.526   5.035 -0.9730  0.4548 -0.6379
19335TIP3   OH279419   2.565   3.228  11.659  0.5833 -0.2478  0.2924
19335TIP3    H179420   2.488   3.175  11.677 -0.0760  0.2885 -0.7845
19335TIP3    H279421   2.549   3.264  11.571  1.3749  1.0667  0.6530
19336TIP3   OH279422   2.458   1.509  15.168 -0.0581  0.1568 -0.5663
19336TIP3    H179423   2.548   1.502  15.136 -0.1835  1.6347 -1.3517
19336TIP3    H279424   2.421   1.582  15.118 -1.7814 -0.6009 -0.4449
19337TIP3   OH279425   3.720   1.432  17.007  0.2125 -0.3986  0.2786
19337TIP3    H179426   3.658   1.498  17.038 -0.4550  0.5676 -2.7379
19337TIP3    H279427   3.674   1.349  17.019 -0.5884  0.0635  0.5231
19338TIP3   OH279428   5.264   3.818   0.664  0.2438 -0.1727  0.0948
19338TIP3    H179429   5.251   3.913   0.666 -1.3607 -0.3647 -0.0422
19338TIP3    H279430   5.349   3.805   0.706  0.5542  1.3304  0.0034
19339TIP3   OH279431   1.127   1.180  13.350  0.7723  0.2578  0.3136
19339TIP3    H179432   1.156   1.185  13.259 -0.9843  0.5505 -0.2637
19339TIP3    H279433   1.190   1.120  13.392  2.8286  1.6859 -0.5531
19340TIP3   OH279434   4.473   3.016   0.299  0.0217 -0.1449  0.4089
19340TIP3    H179435   4.397   3.027   0.242 -1.3392  0.2708  2.1937
19340TIP3    H279436   4.548   3.035   0.243 -1.3237  2.0685 -0.8001
19341TIP3   OH279437   0.561   3.309  13.405 -0.0139 -0.5321  0.7228
19341TIP3    H179438   0.484   3.313  13.348  0.3469  0.3541  0.2764
19341TIP3    H279439   0.618   3.379  13.373  0.1958  0.0050  2.1827
19342TIP3   OH279440   3.111   1.248   1.489 -0.3149  0.7963 -0.0432
19342TIP3    H179441   3.092   1.174   1.547  0.4402  2.6430  2.7456
19342TIP3    H279442   3.062   1.229   1.409  0.6651 -3.1964  0.0882
19343TIP3   OH279443   6.751   1.618   5.840 -0.4002  0.4848  0.1166
19343TIP3    H179444   6.755   1.647   5.931 -0.9990 -0.7329  0.5479
19343TIP3    H279445   6.830   1.654   5.800  0.1656  0.5596  1.2661
19344TIP3   OH279446   5.657   2.893   0.039  0.2867 -0.4934  0.1464
19344TIP3    H179447   5.588   2.959   0.030  0.2918 -0.4859  0.1623
19344TIP3    H279448   5.732   2.941   0.076  0.6642 -0.2661 -0.8989
19345TIP3   OH279449   3.629   5.745  17.317 -0.1347  0.0180 -0.2637
19345TIP3    H179450   3.635   5.706  17.230 -0.2074 -0.4346 -0.0726
19345TIP3    H279451   3.548   5.708  17.354  0.9876 -1.4666  0.7958
19346TIP3   OH279452   4.737   2.652   2.283  0.0484  0.7534 -0.0741
19346TIP3    H179453   4.783   2.662   2.199 -1.1305  1.5745 -0.6536
19346TIP3    H279454   4.682   2.574   2.270  0.4752  0.3884  0.2521
19347TIP3   OH279455   5.474   1.505   3.103 -0.3455  0.3412  0.3582
19347TIP3    H179456   5.443   1.485   3.191 -0.5663  1.4060  0.5280
19347TIP3    H279457   5.441   1.593   3.085  2.5290  1.5419  0.5350
19348TIP3   OH279458   5.517   2.639   4.007  0.1330  0.3467  0.0805
19348TIP3    H179459   5.458   2.711   3.986  1.5960  1.8838  0.9374
19348TIP3    H279460   5.475   2.561   3.971 -2.4708  1.3288  0.7879
19349TIP3   OH279461   6.429   1.355  11.795 -0.0432 -0.2270  0.4057
19349TIP3    H179462   6.453   1.351  11.888 -0.2945  1.6064  0.5869
19349TIP3    H279463   6.424   1.449  11.776 -1.7572 -0.5621 -1.0106
19350TIP3   OH279464   2.138   3.317  13.005 -0.0183 -0.0653 -0.3027
19350TIP3    H179465   2.194   3.247  13.038  0.6513  0.6157  0.0436
19350TIP3    H279466   2.094   3.351  13.083  1.8841  1.8297  0.0360
19351TIP3   OH279467   5.280   1.311  11.684  0.3400 -0.1760  0.1925
19351TIP3    H179468   5.262   1.220  11.706  1.0693 -0.6690 -1.1475
19351TIP3    H279469   5.261   1.318  11.591  2.4109  0.4512 -0.2517
19352TIP3   OH279470   2.308   2.237  13.977 -0.1252  0.5451 -0.3943
19352TIP3    H179471   2.287   2.165  13.918  0.3846  0.6215 -0.6768
19352TIP3    H279472   2.248   2.226  14.051  1.2885 -1.3968  0.5571
19353TIP3   OH279473   2.250   5.961   1.465 -0.1171  0.5925  0.1008
19353TIP3    H179474   2.213   5.898   1.404 -0.1514 -2.4987  2.9728
19353TIP3    H279475   2.335   5.924   1.489 -0.9238  0.4382  3.2810
19354TIP3   OH279476   0.545   1.361  16.800 -0.3933 -0.0626 -0.5227
19354TIP3    H179477   0.630   1.397  16.776 -0.5347  1.9331  1.5457
19354TIP3    H279478   0.486   1.391  16.731  0.0444  1.3508 -0.3270
19355TIP3   OH279479   1.463   1.544  12.659 -0.2009 -0.6222  0.8007
19355TIP3    H179480   1.526   1.533  12.731  1.8876 -0.0939 -0.8549
19355TIP3    H279481   1.441   1.638  12.661  0.5089 -0.4348  0.2729
19356TIP3   OH279482   2.836   1.292   6.200 -0.3119  0.1076 -0.7862
19356TIP3    H179483   2.899   1.345   6.248 -2.2907 -0.7551  3.2401
19356TIP3    H279484   2.887   1.218   6.166  1.0915  0.0942  1.1877
19357TIP3   OH279485   2.868   1.686   0.065  0.3321 -0.0299  0.0164
19357TIP3    H179486   2.854   1.658  -0.026 -0.0142 -1.1058  0.3842
19357TIP3    H279487   2.788   1.734   0.088  0.7828  1.0106 -0.5067
19358TIP3   OH279488   0.046   0.566   6.755 -0.8529  0.0754 -0.8772
19358TIP3    H179489   0.122   0.524   6.794 -0.9463  1.5996  1.0953
19358TIP3    H279490  -0.028   0.511   6.781 -0.7737  0.3923  0.0313
19359TIP3   OH279491   0.393   2.210   4.984 -0.2863  0.1605  0.4233
19359TIP3    H179492   0.316   2.180   4.935 -0.5240  1.0808  0.2170
19359TIP3    H279493   0.384   2.169   5.070 -1.3322  0.7337  0.6067
19360TIP3   OH279494   2.396   4.665  13.454  0.4295  0.2802 -1.0647
19360TIP3    H179495   2.316   4.613  13.461 -0.4914  1.7672  0.1701
19360TIP3    H279496   2.458   4.622  13.513 -0.6604  1.0836  0.7709
19361TIP3   OH279497   5.849   6.626  11.810 -0.2123  0.1763 -0.7111
19361TIP3    H179498   5.885   6.632  11.721  1.4759 -1.2471 -0.1714
19361TIP3    H279499   5.893   6.696  11.858  1.1473 -0.9328 -0.2966
19362TIP3   OH279500   0.386   4.001  13.424 -0.5650 -0.1003 -0.0838
19362TIP3    H179501   0.467   3.990  13.473 -0.7265 -0.0517  0.1977
19362TIP3    H279502   0.414   4.014  13.333 -0.2386  0.3004  0.0708
19363TIP3   OH279503   1.227   3.823   1.010  0.3129  0.1978 -0.6195
19363TIP3    H179504   1.245   3.768   0.933  0.6203  0.3990 -0.6929
19363TIP3    H279505   1.131   3.823   1.017  0.0362  2.6637 -2.8519
19364TIP3   OH279506   1.670   3.763   5.863 -0.2457  0.4440 -0.6214
19364TIP3    H179507   1.630   3.774   5.949  0.6727  0.5232 -0.1969
19364TIP3    H279508   1.700   3.850   5.839  0.6255  0.1956 -0.4557
19365TIP3   OH279509   3.359   6.224   4.336 -0.7809  0.1842 -0.3984
19365TIP3    H179510   3.318   6.269   4.410  0.3578 -1.1658  1.1274
19365TIP3    H279511   3.307   6.145   4.324 -1.4751  0.7983 -1.6572
19366TIP3   OH279512   6.458   0.245  13.191  0.3669  0.0411 -0.4058
19366TIP3    H179513   6.504   0.242  13.275 -0.7616  1.0880  0.2843
19366TIP3    H279514   6.521   0.282  13.129 -0.1218  3.5411  0.9832
19367TIP3   OH279515   0.056   4.991   2.610 -0.1197  0.7033  0.2657
19367TIP3    H179516   0.109   5.062   2.646  0.2687  0.8175 -0.5029
19367TIP3    H279517   0.062   4.921   2.675  2.2855  0.1163 -0.4825
19368TIP3   OH279518   6.668   3.768  16.229 -0.1894  0.4169 -0.0688
19368TIP3    H179519   6.671   3.836  16.161 -0.5863  1.0828  0.5690
19368TIP3    H279520   6.656   3.816  16.311  0.7115 -0.3452  0.5387
19369TIP3   OH279521   4.506   2.440   1.327 -0.7018 -0.3021 -0.4162
19369TIP3    H179522   4.560   2.363   1.313 -1.3487 -0.5181 -2.0225
19369TIP3    H279523   4.496   2.478   1.239  0.5903  2.3131  0.4668
19370TIP3   OH279524   0.746   2.880   4.921  0.5172 -0.2701 -0.7031
19370TIP3    H179525   0.673   2.936   4.898 -0.2980 -0.9704  0.0868
19370TIP3    H279526   0.712   2.791   4.911  0.8196 -0.6039  0.9384
19371TIP3   OH279527   0.642   0.211  13.387  0.0723  0.0312  0.0324
19371TIP3    H179528   0.650   0.293  13.337 -0.7241 -1.4506 -2.7531
19371TIP3    H279529   0.561   0.221  13.437  1.0134  1.6584  1.3353
19372TIP3   OH279530   5.208   5.493  16.029 -0.0089  0.1262  0.1410
19372TIP3    H179531   5.264   5.512  16.105  0.8469  1.0682 -0.6887
19372TIP3    H279532   5.119   5.514  16.058  0.4716  1.9171  0.4600
19373TIP3   OH279533   5.737   2.876   1.129  0.0994  0.0898 -0.3846
19373TIP3    H179534   5.674   2.897   1.059 -0.5192 -2.2766 -0.6327
19373TIP3    H279535   5.822   2.900   1.092 -0.2742 -0.5599 -1.7412
19374TIP3   OH279536   0.523   0.515   3.391 -0.2026 -0.1228  0.5740
19374TIP3    H179537   0.539   0.596   3.439 -0.3329 -0.3621  1.0243
19374TIP3    H279538   0.575   0.524   3.311  2.7458 -1.1125  2.2303
19375TIP3   OH279539   4.368   1.364   2.059  0.3775  0.0761  0.8334
19375TIP3    H179540   4.412   1.448   2.071  0.1772  0.1707  0.9021
19375TIP3    H279541   4.426   1.315   2.000 -1.7802  2.0501 -3.3749
19376TIP3   OH279542   4.752   1.508  11.677 -0.6532 -0.8157 -0.0623
19376TIP3    H179543   4.717   1.595  11.663 -1.2487 -0.5222  2.5923
19376TIP3    H279544   4.675   1.452  11.684 -0.3001 -1.4536 -1.1267
19377TIP3   OH279545   5.457   4.324  12.054 -0.2994 -0.2818 -0.2218
19377TIP3    H179546   5.534   4.366  12.015  0.3451 -0.3259  0.9258
19377TIP3    H279547   5.384   4.351  11.999  0.3245  1.0741 -0.4310
19378TIP3   OH279548   5.279   4.617   3.109  0.1936 -0.1606  0.5837
19378TIP3    H179549   5.330   4.564   3.170  1.6496  0.8129  0.2747
19378TIP3    H279550   5.319   4.602   3.024  0.1034  0.7805  0.3587
19379TIP3   OH279551   6.552   1.295   3.939 -0.4527 -0.0731 -0.1481
19379TIP3    H179552   6.635   1.266   3.900 -0.9984  0.3870 -1.7202
19379TIP3    H279553   6.511   1.215   3.970  1.4880 -0.1181  2.6101
19380TIP3   OH279554   1.362   2.985  13.321  0.4392  0.0583 -0.0858
19380TIP3    H179555   1.386   2.904  13.365 -0.1132  0.4677  0.9979
19380TIP3    H279556   1.268   2.977  13.304  0.4381  0.3501 -0.2375
19381TIP3   OH279557   1.600   1.154   0.862  0.2228 -0.0116  0.1571
19381TIP3    H179558   1.659   1.203   0.805 -0.9792  1.6466  0.2368
19381TIP3    H279559   1.639   1.067   0.869  1.3520  0.2882 -1.7091
19382TIP3   OH279560   0.958   1.390  12.163  0.0089 -0.5877 -0.5060
19382TIP3    H179561   0.998   1.455  12.221 -0.8819 -0.2321 -0.2735
19382TIP3    H279562   0.893   1.347  12.218 -1.5547  0.4372 -1.4850
19383TIP3   OH279563   4.085   1.526   1.095 -0.2389 -0.2114  0.0901
19383TIP3    H179564   4.127   1.580   1.162  0.5956  1.9184 -2.0127
19383TIP3    H279565   4.007   1.576   1.069  0.5106  0.0359 -1.8575
19384TIP3   OH279566   0.082   5.367  15.107  0.3757 -0.4283 -1.0867
19384TIP3    H179567   0.052   5.312  15.180  1.4529  0.3466 -0.0121
19384TIP3    H279568   0.111   5.305  15.041 -1.0801 -1.1599 -1.0826
19385TIP3   OH279569   2.344   0.810   5.615  0.1004  0.3631 -0.4659
19385TIP3    H179570   2.420   0.857   5.581  1.0133 -2.2186 -2.2791
19385TIP3    H279571   2.269   0.862   5.587  1.0949  2.0642 -0.1096
19386TIP3   OH279572   3.669   3.607   3.598 -0.4294  0.1268  0.3093
19386TIP3    H179573   3.647   3.542   3.532  0.4943  0.1246 -0.0146
19386TIP3    H279574   3.686   3.556   3.677  0.7398 -0.0937 -0.0584
19387TIP3   OH279575   3.319   3.857  10.966 -0.2092  0.0119  0.0393
19387TIP3    H179576   3.345   3.946  10.989 -1.4989  0.2911  0.4922
19387TIP3    H279577   3.290   3.863  10.875  0.7040 -0.1784 -0.2753
19388TIP3   OH279578   4.207   0.646   5.880 -0.1946  0.4190  0.0122
19388TIP3    H179579   4.212   0.627   5.786 -0.1010 -0.1304  0.1278
19388TIP3    H279580   4.123   0.692   5.890 -1.0388 -1.0320 -0.0948
19389TIP3   OH279581   1.275   5.352  16.201  0.2070 -0.0184  0.5362
19389TIP3    H179582   1.232   5.431  16.233  0.1156 -0.1350  0.7017
19389TIP3    H279583   1.326   5.321  16.276 -0.5408 -0.6710  0.7848
19390TIP3   OH279584   1.149   5.523  12.880 -0.3266  0.1822  0.2154
19390TIP3    H179585   1.070   5.577  12.886 -1.0178 -0.7106 -0.4712
19390TIP3    H279586   1.135   5.454  12.945  1.4366  1.8249  2.5209
19391TIP3   OH279587   5.559   0.835   0.423 -0.3237 -0.6680 -0.4849
19391TIP3    H179588   5.503   0.828   0.500  1.1165 -1.1586  0.5559
19391TIP3    H279589   5.573   0.744   0.396  0.3339 -0.5745 -0.4593
19392TIP3   OH279590   1.386   4.838  13.188 -0.8310  0.3920 -0.1658
19392TIP3    H179591   1.356   4.782  13.260 -0.8118 -1.0052 -1.2120
19392TIP3    H279592   1.445   4.783  13.137 -2.7069  0.4771 -2.6469
19393TIP3   OH279593   6.615   5.256   4.558 -0.0082 -0.4443  0.2215
19393TIP3    H179594   6.693   5.213   4.522 -0.1216 -0.7082  0.2872
19393TIP3    H279595   6.588   5.200   4.631  0.7119  0.5363  1.2687
19394TIP3   OH279596   5.710   5.575   2.547 -0.9008  0.0607 -0.3240
19394TIP3    H179597   5.687   5.658   2.506 -0.6160  0.7196  0.8157
19394TIP3    H279598   5.712   5.512   2.475 -1.3991  0.9813 -1.1543
19395TIP3   OH279599   3.467   3.449  13.117  0.2465  0.5525 -0.2529
19395TIP3    H179600   3.481   3.444  13.212  1.7822  1.9752 -0.3621
19395TIP3    H279601   3.548   3.416  13.079 -1.3112 -2.6430 -1.2069
19396TIP3   OH279602   3.463   5.627  10.846  0.2689 -0.0129  0.2548
19396TIP3    H179603   3.497   5.549  10.801 -1.9208 -1.0480  0.2929
19396TIP3    H279604   3.402   5.666  10.784  0.0008  0.6626  0.9319
19397TIP3   OH279605   3.426   1.060  11.648  0.6011 -0.3080 -0.4169
19397TIP3    H179606   3.472   0.996  11.594  1.6839 -0.3816  0.5373
19397TIP3    H279607   3.484   1.074  11.723 -1.4113 -1.1893  1.4157
19398TIP3   OH279608   6.393   1.226   4.953  0.2924  0.3793  0.1803
19398TIP3    H179609   6.440   1.164   4.897 -1.4087 -0.6587 -0.1494
19398TIP3    H279610   6.328   1.266   4.895  1.0646  2.2033  0.4973
19399TIP3   OH279611   2.814   2.059   0.581  0.2340  0.2772 -0.5648
19399TIP3    H179612   2.869   2.021   0.649 -0.8371  0.0818  0.2328
19399TIP3    H279613   2.833   2.008   0.502 -0.6638 -1.5209  0.3197
19400TIP3   OH279614   1.067   4.231  16.413  0.4392  0.0168 -0.3516
19400TIP3    H179615   1.139   4.172  16.391  1.1002  0.1338  1.3303
19400TIP3    H279616   0.988   4.184  16.384  1.0309 -1.1853 -0.0761
19401TIP3   OH279617   3.237   6.531   5.438 -0.1049  0.1055 -0.0367
19401TIP3    H179618   3.328   6.549   5.463  0.3657 -1.0307 -0.8398
19401TIP3    H279619   3.208   6.611   5.394  0.3632  0.6349  0.5980
19402TIP3   OH279620   4.952   0.643  14.810 -0.3079  0.2646 -0.4422
19402TIP3    H179621   5.047   0.637  14.798  0.0394 -0.3674  1.9437
19402TIP3    H279622   4.932   0.736  14.799  1.1345  0.9417  1.8447
19403TIP3   OH279623   0.260   2.387   0.025 -0.1309 -0.1609  0.8626
19403TIP3    H179624   0.338   2.333   0.035  1.0738  1.2392 -0.4605
19403TIP3    H279625   0.273   2.459   0.086  0.3783  0.8691 -0.4231
19404TIP3   OH279626   6.638   3.898  16.466 -0.0147  0.1812  0.0904
19404TIP3    H179627   6.624   3.993  16.457 -2.3145 -0.2694 -2.9469
19404TIP3    H279628   6.565   3.869  16.521  0.0233  0.0340  0.0624
19405TIP3   OH279629   4.876   0.688   2.052  0.2917 -0.9039  0.0269
19405TIP3    H179630   4.950   0.643   2.094  0.3148 -0.8252  0.0710
19405TIP3    H279631   4.914   0.768   2.016 -0.2558  0.5278  2.4367
19406TIP3   OH279632   5.871   3.568   3.356 -0.7849 -0.2645 -0.4384
19406TIP3    H179633   5.891   3.643   3.300  1.7016  0.2554  1.0088
19406TIP3    H279634   5.829   3.505   3.296 -0.3944  1.1652 -2.3231
19407TIP3   OH279635   3.066   6.056  14.854  0.0692  0.3446 -0.0328
19407TIP3    H179636   2.978   6.032  14.883  0.1063  1.2775  0.9414
19407TIP3    H279637   3.087   6.135  14.904  1.7853 -0.3137  0.3782
19408TIP3   OH279638   0.246   5.517  16.104 -0.0112 -0.0765  0.3324
19408TIP3    H179639   0.158   5.532  16.141  0.2649  1.5083  0.4171
19408TIP3    H279640   0.283   5.448  16.159 -0.7313  0.1504  1.1359
19409TIP3   OH279641   2.504   4.296   1.873  0.4973 -0.1372  0.2704
19409TIP3    H179642   2.549   4.234   1.815  0.9450 -0.3589  0.8419
19409TIP3    H279643   2.570   4.319   1.939  0.3547  0.9991  0.0375
19410TIP3   OH279644   0.859   5.054   6.467  0.5354 -0.0792 -0.2136
19410TIP3    H179645   0.847   5.146   6.443 -1.3624 -0.8823 -2.7744
19410TIP3    H279646   0.808   5.044   6.548 -0.2792  0.8713 -0.5796
19411TIP3   OH279647   5.759   5.719   3.350 -0.1593 -0.4010  0.2091
19411TIP3    H179648   5.833   5.768   3.385  1.4478 -0.3940 -2.9402
19411TIP3    H279649   5.742   5.757   3.264 -2.5199 -1.7666 -0.0360
19412TIP3   OH279650   6.442   0.970   0.342 -0.2787 -0.0343 -0.4148
19412TIP3    H179651   6.347   0.981   0.343 -0.4599 -1.2740 -1.4407
19412TIP3    H279652   6.476   1.054   0.312 -1.0026  0.6176  0.5592
19413TIP3   OH279653   4.224   6.308   2.165  0.6084  0.4200  0.9168
19413TIP3    H179654   4.160   6.243   2.195 -0.1549  0.9300  0.4577
19413TIP3    H279655   4.185   6.343   2.084  1.1254  1.2585  1.0192
19414TIP3   OH279656   1.829   3.841  17.102 -0.1708 -0.8370 -0.4317
19414TIP3    H179657   1.923   3.855  17.111 -0.0860 -1.8931  0.5434
19414TIP3    H279658   1.810   3.765  17.158 -1.8846  0.4398  0.8503
19415TIP3   OH279659   3.049   0.095  17.037  0.2962 -0.3386  0.3403
19415TIP3    H179660   3.141   0.079  17.018  0.7352  0.7470  1.4293
19415TIP3    H279661   3.020   0.019  17.087  0.4717 -0.8954 -0.4018
19416TIP3   OH279662   0.071   5.559  13.299  0.6258  0.4950  0.0015
19416TIP3    H179663   0.140   5.508  13.258  1.5675  0.1619  1.8864
19416TIP3    H279664   0.089   5.649  13.272  1.7143  0.3896  0.3037
19417TIP3   OH279665   3.813   2.352   4.489  0.2818 -0.0068 -0.1837
19417TIP3    H179666   3.839   2.411   4.559  1.1638  0.7933 -1.1553
19417TIP3    H279667   3.744   2.399   4.441 -0.2896 -0.5310  0.1060
19418TIP3   OH279668   2.153   0.807   3.109 -0.3608 -0.4137  0.6037
19418TIP3    H179669   2.069   0.804   3.064 -0.3379 -1.7432  0.6008
19418TIP3    H279670   2.132   0.825   3.200 -0.4116  2.3060  0.1440
19419TIP3   OH279671   1.312   5.411   2.972 -0.0054  0.1907 -0.0936
19419TIP3    H179672   1.262   5.335   3.003  0.7840 -0.4970 -0.4868
19419TIP3    H279673   1.378   5.375   2.914 -0.7148  1.3443 -1.6951
19420TIP3   OH279674   4.063   3.245  10.742 -0.6279 -0.2923 -0.1154
19420TIP3    H179675   4.041   3.251  10.649 -0.2234 -0.2132 -0.2044
19420TIP3    H279676   4.125   3.172  10.747 -3.5240 -2.9720  0.5902
19421TIP3   OH279677   5.215   3.119  17.189 -0.0414  0.6005  0.1679
19421TIP3    H179678   5.157   3.124  17.265  0.0174  1.1847  0.1803
19421TIP3    H279679   5.230   3.211  17.165  1.0362  0.4671  0.2884
19422TIP3   OH279680   1.149   1.283  13.747  0.6188 -0.6594 -0.0231
19422TIP3    H179681   1.087   1.337  13.796  1.2220 -0.2218  0.2680
19422TIP3    H279682   1.227   1.280  13.802  1.2232 -0.3574 -0.8511
19423TIP3   OH279683   1.105   5.289   5.662  0.3644  0.1016  0.0908
19423TIP3    H179684   1.121   5.201   5.628 -0.4716  0.4189 -1.1922
19423TIP3    H279685   1.076   5.276   5.752 -2.5795 -1.1908 -0.9256
19424TIP3   OH279686   0.560   0.255  11.331 -0.7359 -0.5681  0.0778
19424TIP3    H179687   0.634   0.315  11.334  0.1494 -1.5084 -1.4490
19424TIP3    H279688   0.590   0.177  11.378 -1.1027 -0.6072  0.2517
19425TIP3   OH279689   1.967   4.799  15.010  0.0187 -0.1216  0.4614
19425TIP3    H179690   1.991   4.733  14.944  3.7044  0.3351  1.1628
19425TIP3    H279691   1.934   4.873  14.958 -0.5981 -1.0885 -0.5876
19426TIP3   OH279692   6.005   6.408  12.005 -0.2123 -0.3039  0.1004
19426TIP3    H179693   6.015   6.463  11.928 -2.4115 -1.7492 -1.3368
19426TIP3    H279694   5.941   6.454  12.060 -1.8544 -1.1935 -0.9812
19427TIP3   OH279695   0.760   4.894  14.906  0.7914 -0.3808  0.0441
19427TIP3    H179696   0.706   4.962  14.947  0.7592  0.7920 -1.8014
19427TIP3    H279697   0.840   4.891  14.959  0.1404 -0.0081  1.0604
19428TIP3   OH279698   0.726   6.381   5.072  0.0341 -0.1729 -0.8288
19428TIP3    H179699   0.649   6.399   5.018 -0.3683  1.0592  0.1284
19428TIP3    H279700   0.794   6.357   5.009  0.3240  3.6824 -2.2337
19429TIP3   OH279701   6.372   1.913   1.470 -0.1242 -0.0328 -0.4391
19429TIP3    H179702   6.385   1.876   1.557 -0.8695  0.8874  0.0844
19429TIP3    H279703   6.278   1.901   1.453 -0.3191  1.3131 -0.3829
19430TIP3   OH279704   2.017   6.486   3.643 -0.2075  0.1024  0.0797
19430TIP3    H179705   1.979   6.407   3.682 -2.5386  0.3952 -1.3983
19430TIP3    H279706   1.945   6.548   3.638  0.7922  1.2182 -1.6657
19431TIP3   OH279707   1.085   4.459  17.177  0.0669  0.0533  0.0629
19431TIP3    H179708   1.027   4.533  17.157 -0.9199 -0.5952  0.4149
19431TIP3    H279709   1.048   4.422  17.257  0.3081 -1.0619 -0.3294
19432TIP3   OH279710   1.740   2.284   4.027 -0.9889 -0.0260  0.4977
19432TIP3    H179711   1.743   2.228   3.949 -2.2301  0.6771 -0.0871
19432TIP3    H279712   1.816   2.257   4.078 -0.8871 -1.4283 -0.3209
19433TIP3   OH279713   1.704   6.036   4.749  0.0386  0.9048 -0.0314
19433TIP3    H179714   1.722   6.103   4.684 -1.6044  1.0759 -0.3591
19433TIP3    H279715   1.764   5.964   4.727 -0.1914  1.1272 -1.4847
19434TIP3   OH279716   0.055   5.172   5.854  1.0781  0.2085  0.3387
19434TIP3    H179717   0.091   5.209   5.935 -0.2608 -1.6175  1.8613
19434TIP3    H279718  -0.021   5.121   5.883  1.4226 -1.7243 -1.8824
19435TIP3   OH279719   2.317   0.416   1.783 -0.5338 -0.0304 -0.2659
19435TIP3    H179720   2.305   0.367   1.865 -2.7287 -1.1656 -1.2052
19435TIP3    H279721   2.388   0.477   1.803  1.0771 -2.3115  1.5332
19436TIP3   OH279722   5.002   0.558   4.445 -0.0255  0.8644 -0.1796
19436TIP3    H179723   4.908   0.539   4.442  0.0409  0.6663 -1.6455
19436TIP3    H279724   5.014   0.630   4.383  1.1773 -0.9919 -2.2335
19437TIP3   OH279725   2.002   4.847   1.874  0.4163  0.3497  0.1277
19437TIP3    H179726   1.970   4.763   1.905  0.0083  0.4850  0.0813
19437TIP3    H279727   2.093   4.850   1.901  0.8171 -0.6727 -1.0023
19438TIP3   OH279728   5.761   3.975  14.275 -0.0644 -0.0953 -0.3425
19438TIP3    H179729   5.713   4.058  14.273  2.1891  1.3200  0.0703
19438TIP3    H279730   5.744   3.935  14.190 -0.4053  1.3008 -0.9604
19439TIP3   OH279731   4.869   0.382  16.327  0.6841 -0.9373 -0.4234
19439TIP3    H179732   4.856   0.378  16.232 -2.1796 -0.5417 -0.1381
19439TIP3    H279733   4.897   0.473  16.343 -1.2073 -0.2479 -0.7370
19440TIP3   OH279734   1.190   6.101  14.701  0.5155 -0.3235 -0.0535
19440TIP3    H179735   1.143   6.045  14.639 -0.8645  0.3716  0.3200
19440TIP3    H279736   1.257   6.144  14.648 -0.2635 -0.1849 -0.9554
19441TIP3   OH279737   5.022   5.403  12.077 -0.0289  0.3631  0.2646
19441TIP3    H179738   5.107   5.379  12.113  0.5597 -3.1857 -2.8093
19441TIP3    H279739   5.040   5.475  12.017  0.9155 -0.4921 -0.5076
19442TIP3   OH279740   5.100   5.125  13.718  0.4484 -0.4287  0.2326
19442TIP3    H179741   5.140   5.185  13.655 -0.2161 -0.1776  0.0372
19442TIP3    H279742   5.149   5.043  13.708  1.4569  0.1168  0.6071
19443TIP3   OH279743   2.292   5.003   4.961 -0.1880  0.5965  0.3904
19443TIP3    H179744   2.231   5.056   4.911 -0.3592 -0.4601 -0.5483
19443TIP3    H279745   2.343   5.067   5.012  1.0201  1.8697 -2.2248
19444TIP3   OH279746   6.491   3.991   3.984 -0.0036  0.0458 -0.1763
19444TIP3    H179747   6.404   4.018   3.956 -0.4536 -0.0866  1.0226
19444TIP3    H279748   6.525   4.068   4.031  0.8429  0.3709 -1.2928
19445TIP3   OH279749   5.772   1.919   0.973 -0.2279 -0.3733  0.2480
19445TIP3    H179750   5.848   1.976   0.985 -0.0811 -0.8401  1.7067
19445TIP3    H279751   5.788   1.876   0.889 -1.5716  3.5080 -2.2456
19446TIP3   OH279752   6.306   5.931  14.378  0.5730 -0.3823 -0.2512
19446TIP3    H179753   6.275   5.854  14.426  0.4935 -0.5181 -0.5164
19446TIP3    H279754   6.237   5.948  14.314  0.8179 -0.3842 -0.5163
19447TIP3   OH279755   6.094   2.579  13.027 -0.3931 -0.3174 -0.6641
19447TIP3    H179756   6.009   2.582  13.071  0.3123  1.1622  0.6585
19447TIP3    H279757   6.150   2.528  13.085 -0.6268 -2.3735 -2.1165
19448TIP3   OH279758   3.424   4.595   1.888 -0.0100  0.0982  0.6714
19448TIP3    H179759   3.421   4.530   1.817  1.1999  0.7538 -0.0170
19448TIP3    H279760   3.346   4.649   1.874  0.6842  0.7817 -0.7361
19449TIP3   OH279761   1.027   6.496   1.350  0.6601  0.8418 -0.8047
19449TIP3    H179762   0.936   6.487   1.380  0.2644  1.7122 -1.6595
19449TIP3    H279763   1.077   6.512   1.429  0.7806 -3.7407  0.2885
19450TIP3   OH279764   4.815   2.686   4.742 -0.6720 -0.8347  0.3810
19450TIP3    H179765   4.887   2.670   4.803 -0.3426 -3.7202 -0.6012
19450TIP3    H279766   4.737   2.693   4.797  0.1972  1.8325  1.4208
19451TIP3   OH279767   5.552   2.290  14.601 -0.2172 -0.6828 -0.1445
19451TIP3    H179768   5.540   2.294  14.506  1.4935 -1.5802 -0.4484
19451TIP3    H279769   5.480   2.236  14.633 -0.3431 -1.0594 -1.0481
19452TIP3   OH279770   1.026   2.322  15.877  0.6381  0.1906 -0.1070
19452TIP3    H179771   0.996   2.375  15.803  1.8901 -0.7417 -1.3351
19452TIP3    H279772   1.120   2.312  15.863  0.8276 -0.3692  1.3987
19453TIP3   OH279773   3.490   3.795  16.146  0.6194 -0.4327  0.2279
19453TIP3    H179774   3.454   3.744  16.073 -0.3426  0.5993 -0.0586
19453TIP3    H279775   3.416   3.806  16.205  0.1943  2.3211 -0.6922
19454TIP3   OH279776   4.851   0.513   1.329  0.7830  0.6372  0.8277
19454TIP3    H179777   4.791   0.438   1.320  1.3543  0.2861 -0.1010
19454TIP3    H279778   4.806   0.571   1.392 -0.0561 -0.0861  0.9243
19455TIP3   OH279779   4.276   1.958   0.207 -0.2293  0.2937  0.1807
19455TIP3    H179780   4.193   1.912   0.220 -1.0327  1.2262 -1.3539
19455TIP3    H279781   4.342   1.889   0.206 -1.0845 -0.5523  0.5540
19456TIP3   OH279782   5.746   5.145  12.530  0.1500 -0.0668  0.0231
19456TIP3    H179783   5.668   5.092  12.543  0.3702 -0.2393  0.6939
19456TIP3    H279784   5.815   5.081  12.510  0.3444 -0.0094  0.4956
19457TIP3   OH279785   6.712   1.680  13.255 -0.3139  0.1439  0.6393
19457TIP3    H179786   6.718   1.762  13.304 -1.2735  0.9000 -0.4284
19457TIP3    H279787   6.754   1.615  13.311  0.2517  1.3105  1.6290
19458TIP3   OH279788   3.951   5.464  14.143  0.0894  0.5117  0.2139
19458TIP3    H179789   3.855   5.461  14.149  0.0389  1.7781  0.4395
19458TIP3    H279790   3.968   5.483  14.050  0.1723 -0.5851 -0.0117
19459TIP3   OH279791   5.399   3.346  11.341  0.2664  0.1167  0.0154
19459TIP3    H179792   5.439   3.261  11.328 -2.4671 -1.3362  0.3893
19459TIP3    H279793   5.328   3.330  11.403 -1.5505  2.2479 -1.3591
19460TIP3   OH279794   6.209   3.155   5.202 -0.4366  0.1178 -0.9092
19460TIP3    H179795   6.237   3.191   5.286  0.1014 -2.2294  0.0001
19460TIP3    H279796   6.123   3.117   5.219 -0.1520 -0.7366 -1.2660
19461TIP3   OH279797   0.110   6.773   2.110  0.3571 -0.0028  0.3020
19461TIP3    H179798   0.110   6.769   2.206 -0.0199 -0.5614  0.2790
19461TIP3    H279799   0.018   6.780   2.086  0.4877  0.8407  0.0003
19462TIP3   OH279800   6.558   4.068   3.590  0.1039  0.6174  0.3030
19462TIP3    H179801   6.626   4.108   3.536 -0.4563  0.8180 -0.2649
19462TIP3    H279802   6.485   4.054   3.530  0.6530 -2.3746  0.1675
19463TIP3   OH279803   5.719   2.230   0.497 -0.3085  0.0208  0.0573
19463TIP3    H179804   5.689   2.216   0.587 -1.6402 -0.9100 -0.4936
19463TIP3    H279805   5.815   2.233   0.504 -0.3793 -0.2170  1.4818
19464TIP3   OH279806   1.438   2.623   5.307 -0.1606  0.6064  0.3533
19464TIP3    H179807   1.428   2.665   5.222  2.4257  0.7648  0.0262
19464TIP3    H279808   1.438   2.529   5.288 -1.2320  0.5834  0.4294
19465TIP3   OH279809   1.348   4.531   0.491 -0.4056 -0.2744  0.5579
19465TIP3    H179810   1.335   4.436   0.492 -0.4998 -0.2792 -0.3098
19465TIP3    H279811   1.349   4.554   0.398 -0.9470  0.6531  0.7694
19466TIP3   OH279812   1.517   1.646  10.798  0.9948 -0.6585 -0.2799
19466TIP3    H179813   1.611   1.629  10.804  1.0452  0.0453  1.3955
19466TIP3    H279814   1.505   1.732  10.837 -0.2731 -0.4190 -1.1272
19467TIP3   OH279815   1.195   5.621  14.935 -0.2043 -0.1789 -0.3969
19467TIP3    H179816   1.265   5.687  14.939  0.0323 -0.4862  1.1991
19467TIP3    H279817   1.115   5.671  14.949 -0.1633 -0.0354 -0.6625
19468TIP3   OH279818   5.259   4.925   4.476  0.5503 -0.0864  0.3219
19468TIP3    H179819   5.265   4.830   4.475 -0.4427 -0.1593 -0.3642
19468TIP3    H279820   5.171   4.943   4.510 -0.7200  0.4505 -2.8284
19469TIP3   OH279821   3.136   2.686  16.190  0.1197 -0.0250  0.1986
19469TIP3    H179822   3.191   2.720  16.261  1.4905 -0.8821 -0.4140
19469TIP3    H279823   3.168   2.731  16.112 -0.3362 -0.2191 -0.0999
19470TIP3   OH279824   2.182   1.054  11.470 -0.1352  0.1738  0.0473
19470TIP3    H179825   2.234   1.060  11.390  1.1514  1.1424  0.9203
19470TIP3    H279826   2.220   1.119  11.529 -1.9530  0.4882  0.9600
19471TIP3   OH279827   2.673   5.585  10.982  0.1675 -0.2263 -0.1799
19471TIP3    H179828   2.672   5.498  11.021  0.2765  0.0396  0.4207
19471TIP3    H279829   2.650   5.570  10.890 -1.2953 -0.7327  0.2367
19472TIP3   OH279830   6.608   1.944  16.572 -0.1095 -0.3307 -0.0713
19472TIP3    H179831   6.552   1.866  16.574  0.5462 -0.8000  0.3974
19472TIP3    H279832   6.589   1.990  16.653 -0.8099  0.2406 -0.5407
19473TIP3   OH279833   1.225   0.734   6.165 -0.1734  0.3699  0.0890
19473TIP3    H179834   1.282   0.680   6.112  0.0675  1.2144 -0.5244
19473TIP3    H279835   1.239   0.823   6.134 -2.0412  0.5827 -0.3006
19474TIP3   OH279836   5.133   2.725  10.961  0.4294  0.0167 -0.4423
19474TIP3    H179837   5.069   2.664  10.996  0.2285 -0.3424 -1.3924
19474TIP3    H279838   5.140   2.702  10.868  0.1369  1.6098 -0.9056
19475TIP3   OH279839   5.667   4.097   0.685 -0.2560  0.3183 -0.0478
19475TIP3    H179840   5.682   4.137   0.600  0.3022  1.2060  0.4526
19475TIP3    H279841   5.584   4.135   0.715  0.6169  1.6542  0.7271
19476TIP3   OH279842   2.319   0.337   5.616 -0.3998 -0.6803 -0.8906
19476TIP3    H179843   2.270   0.329   5.698  0.6264 -1.1482 -0.3035
19476TIP3    H279844   2.301   0.256   5.569  0.1571 -1.0577 -0.4683
19477TIP3   OH279845   6.556   2.409  12.457 -0.6954  0.5436  0.0284
19477TIP3    H179846   6.578   2.483  12.514  0.6867 -0.1719  0.4747
19477TIP3    H279847   6.569   2.443  12.368 -0.2225  0.8821  0.2232
19478TIP3   OH279848   5.929   6.590   4.967 -0.3635 -0.1388  0.5727
19478TIP3    H179849   5.941   6.573   5.061 -0.5719  1.7151  0.9925
19478TIP3    H279850   5.892   6.510   4.932  0.6455 -1.2240  1.8832
19479TIP3   OH279851   2.695   0.908  16.623 -0.2400 -0.1920  0.5562
19479TIP3    H179852   2.762   0.958  16.670  0.8864  1.3927 -2.4366
19479TIP3    H279853   2.633   0.975  16.593  0.0104 -0.8564 -1.5721
19480TIP3   OH279854   3.317   6.184  10.885  0.2882 -0.9979  0.1083
19480TIP3    H179855   3.266   6.104  10.895  0.5712 -1.3225 -0.9397
19480TIP3    H279856   3.257   6.254  10.911 -1.5862 -1.1489 -3.2266
19481TIP3   OH279857   0.118   1.119  13.551  0.1385 -0.0419 -0.4045
19481TIP3    H179858   0.129   1.102  13.458  0.4945 -1.2242 -0.1653
19481TIP3    H279859   0.206   1.110  13.588  0.1050  1.0244 -0.0399
19482TIP3   OH279860   6.541   5.762   5.418  0.4096  0.1368 -0.2261
19482TIP3    H179861   6.534   5.808   5.335 -2.0468 -1.3236 -0.9367
19482TIP3    H279862   6.528   5.830   5.484 -1.8171  0.7724 -1.2093
19483TIP3   OH279863   0.411   2.240   3.104 -0.1191  0.3075 -0.3262
19483TIP3    H179864   0.439   2.314   3.049 -1.0065  0.6628 -0.3173
19483TIP3    H279865   0.336   2.273   3.152 -2.1531 -1.3319 -2.1741
19484TIP3   OH279866   5.400   5.732   3.670 -0.2030 -0.4474 -0.3781
19484TIP3    H179867   5.397   5.645   3.709  0.9241 -1.0474 -1.5644
19484TIP3    H279868   5.331   5.731   3.604  0.8839 -1.0493 -1.5406
19485TIP3   OH279869   1.893   4.624   3.951  0.7356  0.3630 -0.5462
19485TIP3    H179870   1.853   4.626   4.038  0.3332 -0.3674 -0.7091
19485TIP3    H279871   1.852   4.699   3.905 -0.5932 -0.4530 -0.7572
19486TIP3   OH279872   0.200   1.022  13.063  0.3558  0.2426 -0.5235
19486TIP3    H179873   0.217   1.064  12.979 -0.1612  2.6599  0.5087
19486TIP3    H279874   0.282   1.030  13.112 -0.5348  2.8071  0.7323
19487TIP3   OH279875   2.676   4.267   2.992  0.4145 -0.8643 -0.0008
19487TIP3    H179876   2.725   4.192   3.026 -0.5802 -0.3988  2.7092
19487TIP3    H279877   2.715   4.342   3.036 -2.0193 -0.3848  1.4680
19488TIP3   OH279878   0.452   0.834  14.354 -0.3723  0.4709  0.3764
19488TIP3    H179879   0.459   0.767  14.286 -0.5402  0.4042  0.4239
19488TIP3    H279880   0.479   0.791  14.434 -0.1514  0.5567  0.3469
19489TIP3   OH279881   1.115   6.074   4.136 -0.4243  0.1392 -0.3478
19489TIP3    H179882   1.097   6.149   4.079  1.4573  0.3158 -0.7971
19489TIP3    H279883   1.093   5.997   4.082  0.4824  0.3275 -1.0227
19490TIP3   OH279884   3.567   6.738   3.778  0.5708 -0.4599  0.0762
19490TIP3    H179885   3.512   6.707   3.850  1.0670 -2.1114 -0.2022
19490TIP3    H279886   3.539   6.828   3.763 -0.1081 -0.3495  1.7798
19491TIP3   OH279887   6.741   3.375  15.739 -0.0710  0.6647  0.1649
19491TIP3    H179888   6.723   3.293  15.692  0.7259 -0.4822  1.7816
19491TIP3    H279889   6.795   3.426  15.679 -0.8642  0.1719 -1.0065
19492TIP3   OH279890   1.723   0.371   3.787 -0.0292  0.1042  0.3455
19492TIP3    H179891   1.660   0.417   3.842 -1.1147 -1.3759  0.4165
19492TIP3    H279892   1.693   0.387   3.697  1.0906  1.5985  0.2074
19493TIP3   OH279893   4.120   6.630   3.856 -0.3070  0.3637 -0.1710
19493TIP3    H179894   4.064   6.662   3.785  1.1312  0.6397 -1.2261
19493TIP3    H279895   4.151   6.709   3.900  1.0996  0.3774 -1.0947
19494TIP3   OH279896   5.639   5.362  12.288 -0.5518  0.3301 -0.4947
19494TIP3    H179897   5.663   5.270  12.297  0.0481  0.2282 -2.6389
19494TIP3    H279898   5.543   5.361  12.283 -0.6949  0.0670  1.3385
19495TIP3   OH279899   5.542   0.594  13.365  0.2225  0.4349  0.3518
19495TIP3    H179900   5.475   0.525  13.359 -1.2558  1.8737 -0.8257
19495TIP3    H279901   5.605   0.561  13.428 -2.3682 -0.3780  2.7134
19496TIP3   OH279902   1.775   4.722  11.286 -0.1047  0.0514 -0.1357
19496TIP3    H179903   1.818   4.640  11.262  1.0154 -0.1385  2.2117
19496TIP3    H279904   1.712   4.738  11.215 -1.0763 -3.3154 -0.2110
19497TIP3   OH279905   1.019   0.611   2.200  0.0647  0.6351  0.1839
19497TIP3    H179906   0.949   0.616   2.135 -1.0846  2.2107  1.4496
19497TIP3    H279907   1.096   0.647   2.156  0.2329 -1.3966 -1.3197
19498TIP3   OH279908   4.025   0.642   5.443 -0.7288 -0.4032  0.0611
19498TIP3    H179909   4.059   0.663   5.356  1.2666  1.0346  1.1000
19498TIP3    H279910   3.949   0.587   5.426 -2.3025  2.2960 -2.7215
19499TIP3   OH279911   2.763   3.471  12.370  1.0665 -0.0990  0.1109
19499TIP3    H179912   2.796   3.535  12.307 -2.8514  1.1116 -0.9584
19499TIP3    H279913   2.778   3.386  12.327  0.2353  0.5829 -1.6116
19500TIP3   OH279914   0.163   1.215  15.136 -0.4700  0.1620  0.7796
19500TIP3    H179915   0.074   1.217  15.170 -0.7972 -0.5644 -0.0158
19500TIP3    H279916   0.153   1.219  15.041  0.3550  0.2669  0.6853
19501TIP3   OH279917   0.630   3.029   3.607 -0.0160 -0.1014  0.2631
19501TIP3    H179918   0.658   3.072   3.688  0.7597  0.7535 -0.4549
19501TIP3    H279919   0.535   3.021   3.617  0.1554 -0.8115  1.6394
19502TIP3   OH279920   1.521   0.039  13.612 -0.1900  0.5741  0.2873
19502TIP3    H179921   1.489   0.129  13.608  1.8382  1.3187 -0.6015
19502TIP3    H279922   1.526   0.020  13.705  1.5870  2.2860  0.6035
19503TIP3   OH279923   5.123   5.452  17.306  0.0544  0.3166 -0.1261
19503TIP3    H179924   5.145   5.360  17.287  2.9206  1.0168 -0.7340
19503TIP3    H279925   5.119   5.456  17.401  1.2375 -0.2400 -0.0267
19504TIP3   OH279926   2.658   2.201   6.296  0.4980 -0.1014  0.2171
19504TIP3    H179927   2.610   2.151   6.362 -1.8535  0.4389 -0.9653
19504TIP3    H279928   2.686   2.136   6.232  0.5291 -0.3210  0.4534
19505TIP3   OH279929   3.872   3.913  11.805  0.0187  0.2475 -0.5931
19505TIP3    H179930   3.910   3.995  11.834  2.6356 -1.1466  0.2118
19505TIP3    H279931   3.921   3.891  11.726  0.7298 -1.4390  0.2691
19506TIP3   OH279932   1.598   4.364  12.607 -0.2384  0.6363  0.1142
19506TIP3    H179933   1.595   4.285  12.661 -1.0664  0.3525 -0.3257
19506TIP3    H279934   1.535   4.423  12.647 -0.6147  0.5487 -0.3336
19507TIP3   OH279935   3.442   1.270   1.785  0.3282 -0.1319 -0.2403
19507TIP3    H179936   3.433   1.284   1.691 -1.0006  1.0971  0.0551
19507TIP3    H279937   3.426   1.176   1.796 -1.0365 -0.0181 -1.0666
19508TIP3   OH279938   5.691   0.412  15.872  0.1771  0.5854  0.0271
19508TIP3    H179939   5.744   0.433  15.949 -2.7626  0.5046  2.2485
19508TIP3    H279940   5.633   0.487  15.862 -1.0982 -0.4551 -0.6154
19509TIP3   OH279941   5.169   0.127   0.293 -0.4022 -0.2855  0.1931
19509TIP3    H179942   5.225   0.057   0.259  0.5656 -0.3432  1.7856
19509TIP3    H279943   5.102   0.140   0.226  0.6059 -1.3176 -1.0473
19510TIP3   OH279944   6.491   2.079  11.898 -0.2586 -0.1327 -0.1225
19510TIP3    H179945   6.559   2.120  11.952  1.0387 -1.2878 -0.8065
19510TIP3    H279946   6.530   2.074  11.811 -1.6571  0.1407 -0.7950
19511TIP3   OH279947   0.123   1.508   1.460 -0.1948 -0.1683  0.6588
19511TIP3    H179948   0.132   1.576   1.527  0.8911  0.3197  0.0522
19511TIP3    H279949   0.031   1.483   1.463 -0.3926  0.6112  1.5925
19512TIP3   OH279950   3.208   3.375  16.331  0.0513 -0.6788 -0.4951
19512TIP3    H179951   3.115   3.387  16.313 -0.1168 -0.4454  0.4726
19512TIP3    H279952   3.216   3.284  16.358 -0.6291  0.2595  3.4120
19513TIP3   OH279953   0.786   3.234   0.799 -0.5747 -0.8213  0.2095
19513TIP3    H179954   0.849   3.301   0.828 -1.3894 -0.8376  2.1789
19513TIP3    H279955   0.841   3.160   0.774  0.2620 -0.1229 -0.1097
19514TIP3   OH279956   3.377   2.543   0.821 -0.1896 -0.0191 -0.1209
19514TIP3    H179957   3.407   2.454   0.803 -0.0918  0.2575 -1.3907
19514TIP3    H279958   3.287   2.545   0.790  0.5643  0.9988 -2.4271
19515TIP3   OH279959   6.467   5.024   4.451 -0.4460  0.5972 -0.3052
19515TIP3    H179960   6.448   5.036   4.544 -1.3590  0.2107 -0.4286
19515TIP3    H279961   6.508   5.106   4.424 -0.9430  1.0378  0.2542
19516TIP3   OH279962   1.501   4.538   0.219  0.5174  1.0615  0.0983
19516TIP3    H179963   1.494   4.483   0.140  1.9027 -0.1517  0.7769
19516TIP3    H279964   1.536   4.479   0.286 -1.9636  1.6703  2.0857
19517TIP3   OH279965   0.620   4.267  12.254  0.2866 -0.0690  0.0937
19517TIP3    H179966   0.681   4.193  12.257  0.2800 -0.1368 -1.0770
19517TIP3    H279967   0.553   4.245  12.319  0.7590 -0.6530  0.3986
19518TIP3   OH279968   0.261   2.196   6.124  0.4126  0.0519  0.1519
19518TIP3    H179969   0.193   2.140   6.088  2.0637 -1.4917 -0.7754
19518TIP3    H279970   0.225   2.285   6.119 -0.9957 -0.5480 -1.5840
19519TIP3   OH279971   6.414   3.949   2.075  0.0842 -0.3174 -0.2138
19519TIP3    H179972   6.479   4.018   2.092 -0.0712  0.6935 -3.0105
19519TIP3    H279973   6.333   3.984   2.110  0.3915  0.0427  0.1527
19520TIP3   OH279974   2.935   3.245  14.281 -0.5887  0.2241 -0.2779
19520TIP3    H179975   2.911   3.263  14.371  0.3215  2.2622 -0.3836
19520TIP3    H279976   2.868   3.287  14.228 -0.9563 -0.7049 -0.5817
19521TIP3   OH279977   2.232   1.991  16.866  0.5388 -0.2383 -0.3543
19521TIP3    H179978   2.248   2.082  16.841 -0.4446 -0.0295 -0.2628
19521TIP3    H279979   2.210   1.995  16.959  0.4573 -0.5716 -0.3579
19522TIP3   OH279980   6.215   5.422   1.380 -0.1076  0.4864  0.2533
19522TIP3    H179981   6.124   5.440   1.356 -0.1555  0.8123  0.6575
19522TIP3    H279982   6.210   5.384   1.467  0.0399 -0.9872 -0.3521
19523TIP3   OH279983   0.212   5.961   0.738 -0.0931  0.1991 -0.3712
19523TIP3    H179984   0.249   5.993   0.820 -0.3218 -0.7424  0.1100
19523TIP3    H279985   0.226   6.033   0.676 -0.3311  1.1067  0.5967
19524TIP3   OH279986   1.436   6.190  17.316  0.6560 -0.3254  0.0364
19524TIP3    H179987   1.437   6.192  17.411  3.0816  0.2651  0.0845
19524TIP3    H279988   1.439   6.282  17.290 -1.3107 -0.4251 -0.6787
19525TIP3   OH279989   0.563   5.254   2.274  0.1232  0.6428  0.7207
19525TIP3    H179990   0.560   5.261   2.178 -0.0312  0.9398  0.7451
19525TIP3    H279991   0.638   5.197   2.291  0.0376  0.4353  0.4165
19526TIP3   OH279992   0.283   4.625   2.211  0.2961  0.0307  0.8601
19526TIP3    H179993   0.192   4.618   2.180  0.4975  0.1639  0.2216
19526TIP3    H279994   0.287   4.564   2.285 -0.4247  0.3425  1.1670
19527TIP3   OH279995   4.369   0.642   6.169  0.2330 -0.2999 -0.6023
19527TIP3    H179996   4.304   0.648   6.099  0.3263 -1.3716 -0.7996
19527TIP3    H279997   4.399   0.551   6.166  0.6775 -0.2030  0.4360
19528TIP3   OH279998   6.142   3.484   3.816 -0.1273 -0.2595 -0.3218
19528TIP3    H179999   6.174   3.450   3.900 -1.6809 -0.8436  0.0771
19528TIP3    H280000   6.096   3.564   3.839  1.7547  1.0680 -1.0021
19529TIP3   OH280001   6.466   4.771   0.657 -0.4271 -0.2092  0.3953
19529TIP3    H180002   6.537   4.723   0.698  0.2201 -0.3602 -0.8535
19529TIP3    H280003   6.507   4.817   0.583 -1.7549 -1.0988 -0.9653
19530TIP3   OH280004   4.569   2.927  17.144  0.3699 -0.5492 -0.0584
19530TIP3    H180005   4.561   2.881  17.228 -1.9017 -0.7408 -0.3145
19530TIP3    H280006   4.529   3.012  17.160 -0.3751 -0.7052 -1.0004
19531TIP3   OH280007   4.022   3.114   5.722 -0.2723 -0.2837 -0.1927
19531TIP3    H180008   4.093   3.050   5.712 -1.5212 -1.7098 -0.1948
19531TIP3    H280009   3.995   3.135   5.632  0.6292  0.8735 -0.2258
19532TIP3   OH280010   0.448   6.412  15.100  0.2902  0.1360 -0.4286
19532TIP3    H180011   0.444   6.504  15.076  0.1882  0.8242  1.9182
19532TIP3    H280012   0.472   6.366  15.020 -0.0232  2.1535 -1.7300
19533TIP3   OH280013   1.650   2.768  12.896  0.2775 -0.2140 -0.5182
19533TIP3    H180014   1.690   2.849  12.863  0.3362 -0.5928 -1.3866
19533TIP3    H280015   1.623   2.721  12.818 -0.7891 -0.5214  0.0214
19534TIP3   OH280016   6.612   1.052  17.002 -0.4240  0.1129  0.2755
19534TIP3    H180017   6.698   1.016  17.023 -0.5345  0.4093  1.2977
19534TIP3    H280018   6.623   1.147  17.005 -0.4297  0.1776 -1.1686
19535TIP3   OH280019   6.067   3.417  13.729  0.1850 -0.0678 -0.1551
19535TIP3    H180020   6.078   3.510  13.746 -0.3800 -0.1190  0.5096
19535TIP3    H280021   6.001   3.388  13.791  1.7019 -1.3097  0.9604
19536TIP3   OH280022   3.439   3.943   5.251 -0.7588  0.2070 -0.2097
19536TIP3    H180023   3.447   4.036   5.231 -0.4936  0.5169  1.2451
19536TIP3    H280024   3.471   3.934   5.341 -0.4933 -1.3409 -0.4206
19537TIP3   OH280025   3.287   2.583  13.952  0.4949  0.5431 -0.0861
19537TIP3    H180026   3.242   2.587  14.036 -0.5259  0.0511 -0.6026
19537TIP3    H280027   3.225   2.543  13.892  1.2811  0.6976 -1.0420
19538TIP3   OH280028   2.966   3.520  15.315 -0.1256  0.5007  0.4700
19538TIP3    H180029   2.950   3.489  15.226  2.6795 -0.4373  0.1742
19538TIP3    H280030   2.990   3.612  15.305  0.6481  0.2741  0.1636
19539TIP3   OH280031   1.397   4.058  14.778  0.5760  0.5237  0.9906
19539TIP3    H180032   1.387   4.104  14.695  0.9854 -1.2917 -0.1335
19539TIP3    H280033   1.348   4.111  14.841 -1.7726  0.7749 -0.8780
19540TIP3   OH280034   3.169   5.176   1.565 -0.2841  0.6095  0.1160
19540TIP3    H180035   3.144   5.088   1.594 -0.4782  0.0207 -1.6944
19540TIP3    H280036   3.086   5.224   1.560 -0.7218 -0.2763 -2.4717
19541TIP3   OH280037   1.315   5.300  10.618 -0.1427  0.2453  0.1957
19541TIP3    H180038   1.261   5.222  10.625 -1.1117  0.8654 -0.1307
19541TIP3    H280039   1.364   5.303  10.701 -1.6189  0.3927  1.0887
19542TIP3   OH280040   2.403   4.325  16.508  0.1810 -0.0653  0.0272
19542TIP3    H180041   2.475   4.387  16.498  0.4589 -0.3450  0.3155
19542TIP3    H280042   2.434   4.260  16.571 -0.5154  0.1161  0.5894
19543TIP3   OH280043   6.720   3.342   2.579 -0.3341 -0.2859 -1.4173
19543TIP3    H180044   6.683   3.357   2.666 -0.6348 -0.5883 -1.4923
19543TIP3    H280045   6.773   3.420   2.562 -2.4586  1.0743 -2.1301
19544TIP3   OH280046   3.003   1.301  11.880 -0.3803  0.0197  0.0248
19544TIP3    H180047   3.091   1.263  11.873 -1.0311 -1.3581 -1.0598
19544TIP3    H280048   2.947   1.228  11.904 -1.1691  1.0166  1.3884
19545TIP3   OH280049   2.894   1.196  15.650 -0.3953  0.1403  0.5873
19545TIP3    H180050   2.841   1.176  15.727  0.8212  1.8740  1.9589
19545TIP3    H280051   2.890   1.291  15.642  0.6739  0.1060 -0.6209
19546TIP3   OH280052   2.232   3.660  16.030  0.1362  0.6882 -0.2663
19546TIP3    H180053   2.218   3.724  15.960  0.4682  2.2951  1.0640
19546TIP3    H280054   2.156   3.671  16.087 -1.0242 -1.8229 -1.1992
19547TIP3   OH280055   0.015   2.853  17.223 -0.1485  0.8499  0.2549
19547TIP3    H180056  -0.007   2.909  17.148  1.1187  0.8928 -0.1040
19547TIP3    H280057   0.092   2.894  17.261  0.3642 -0.2429  0.4294
19548TIP3   OH280058   3.995   6.191  14.526 -0.0842 -0.2369  0.1275
19548TIP3    H180059   3.905   6.204  14.496 -0.4212 -0.3448  1.0350
19548TIP3    H280060   4.042   6.270  14.497  0.0615 -1.1145 -2.1763
19549TIP3   OH280061   3.921   3.753  14.749  0.0677 -0.5154 -0.0003
19549TIP3    H180062   3.940   3.838  14.789 -0.3447 -0.8383  0.9077
19549TIP3    H280063   3.845   3.721  14.797  0.3720 -1.5109 -0.1652
19550TIP3   OH280064   0.866   2.883  12.334  0.1040 -0.7434  0.0171
19550TIP3    H180065   0.826   2.873  12.421  0.1022 -1.2162 -0.0370
19550TIP3    H280066   0.813   2.828  12.277 -0.0633 -0.2150 -0.3419
19551TIP3   OH280067   2.959   6.449  14.051 -0.1575 -0.3857 -0.4482
19551TIP3    H180068   2.869   6.474  14.069 -0.5495 -1.8148 -0.2609
19551TIP3    H280069   2.974   6.373  14.107  1.1470 -0.2171 -0.5282
19552TIP3   OH280070   3.679   4.671  14.146  0.0344 -0.0383 -0.4416
19552TIP3    H180071   3.720   4.590  14.174 -0.8311  0.3594  2.3142
19552TIP3    H280072   3.741   4.739  14.169 -0.0414  0.2141 -0.9709
19553TIP3   OH280073   6.604   5.984  17.354  0.4246  0.0324  0.5811
19553TIP3    H180074   6.674   6.024  17.302  0.3150  0.6808  0.9170
19553TIP3    H280075   6.549   5.938  17.291  1.5478 -1.1099  0.3793
19554TIP3   OH280076   2.762   3.017  14.191  0.2052 -0.5174 -0.2720
19554TIP3    H180077   2.683   3.061  14.162 -0.6849 -0.9810  1.3146
19554TIP3    H280078   2.826   3.087  14.203 -0.7241  0.1792  0.7681
19555TIP3   OH280079   4.882   1.663  14.643 -0.6880 -0.5470 -0.3246
19555TIP3    H180080   4.911   1.692  14.557 -1.4720 -0.9273 -0.7238
19555TIP3    H280081   4.791   1.693  14.649 -1.9346 -3.7519 -1.2019
19556TIP3   OH280082   1.969   5.602   2.003 -0.1799  0.1130  0.8533
19556TIP3    H180083   1.877   5.628   2.008 -0.4233 -0.7349  0.9365
19556TIP3    H280084   1.978   5.532   2.068 -0.2715 -2.0816 -1.3788
19557TIP3   OH280085   2.552   5.560  16.401  0.7640  0.3151  0.2465
19557TIP3    H180086   2.486   5.500  16.434  0.8695 -0.8323 -1.5242
19557TIP3    H280087   2.636   5.522  16.428  0.7850  0.5581  0.5344
19558TIP3   OH280088   6.509   4.750  13.692 -0.1013 -0.4219 -0.5732
19558TIP3    H180089   6.452   4.708  13.627 -0.4592  1.4641 -1.5664
19558TIP3    H280090   6.522   4.839  13.658  0.9049  0.1717  1.2273
19559TIP3   OH280091   4.752   5.907  11.193  0.2579  0.1810  0.4537
19559TIP3    H180092   4.673   5.886  11.242 -0.1694  1.1916  0.2231
19559TIP3    H280093   4.738   5.871  11.106  0.4714 -0.4879  0.6909
19560TIP3   OH280094   4.990   0.972   3.868 -0.2298  0.1220 -0.5169
19560TIP3    H180095   5.002   1.055   3.914  0.2308  0.4035 -1.1261
19560TIP3    H280096   5.078   0.935   3.863 -0.5863 -0.9678  0.7637
19561TIP3   OH280097   3.899   6.587  13.078  0.3363  0.2848 -0.3382
19561TIP3    H180098   3.922   6.522  13.143 -0.3198  0.5848  0.2019
19561TIP3    H280099   3.810   6.614  13.100 -1.6511 -2.6373 -3.8344
19562TIP3   OH280100   0.674   1.295   0.023 -0.3746  0.1999 -0.1038
19562TIP3    H180101   0.591   1.301   0.071 -0.8472  0.0681 -0.8870
19562TIP3    H280102   0.648   1.278  -0.067  0.5051  0.3950 -0.4017
19563TIP3   OH280103   1.812   1.368  14.398 -0.0808  0.2541 -0.1616
19563TIP3    H180104   1.814   1.302  14.467  2.8936  0.3646  0.0047
19563TIP3    H280105   1.720   1.373  14.372 -0.7692 -2.2693  1.4007
19564TIP3   OH280106   6.209   4.704  17.344 -0.2978  0.2540  1.1572
19564TIP3    H180107   6.296   4.686  17.307 -0.7552  0.1992  0.0953
19564TIP3    H280108   6.214   4.666  17.432  0.7389  0.2063  1.0980
19565TIP3   OH280109   0.391   5.919  16.873 -0.0157  0.0471 -0.2037
19565TIP3    H180110   0.312   5.953  16.830 -0.0747 -2.5970 -2.4183
19565TIP3    H280111   0.397   5.970  16.954 -1.1941  3.7548 -2.1911
19566TIP3   OH280112   3.304   5.318  17.347 -0.2497  0.4089 -0.2472
19566TIP3    H180113   3.256   5.373  17.284 -0.7602  1.4493  1.0044
19566TIP3    H280114   3.261   5.335  17.431 -0.4804 -2.0210  0.1808
19567TIP3   OH280115   5.573   2.156  13.181 -0.8071 -0.2653  0.3711
19567TIP3    H180116   5.620   2.107  13.114 -1.8550  0.3721 -0.8819
19567TIP3    H280117   5.613   2.243  13.181 -0.6826 -0.3182  0.7303
19568TIP3   OH280118   2.346   0.455  14.598 -0.0253 -0.4078  0.7211
19568TIP3    H180119   2.265   0.405  14.587 -0.0065  0.0972 -3.2573
19568TIP3    H280120   2.413   0.402  14.555  0.8949  0.9712  0.4021
19569TIP3   OH280121   5.975   6.110  11.693 -0.8273 -0.0897 -0.1921
19569TIP3    H180122   6.034   6.078  11.625  1.0122  1.5819  0.5299
19569TIP3    H280123   5.973   6.039  11.757  3.2667  0.9604  1.4377
19570TIP3   OH280124   1.246   4.242  17.238  0.0044  0.8067  0.2331
19570TIP3    H180125   1.208   4.181  17.175 -0.0434 -0.0318  1.0509
19570TIP3    H280126   1.191   4.320  17.232 -1.6980 -0.2459  1.1445
19571TIP3   OH280127   6.626   5.857   2.268 -0.3450 -0.2174 -0.4137
19571TIP3    H180128   6.632   5.905   2.185  0.7507  0.5166  0.0659
19571TIP3    H280129   6.628   5.925   2.336  0.4414 -0.8819  0.2538
19572TIP3   OH280130   3.723   6.291  14.441 -0.1090 -0.3450 -0.7510
19572TIP3    H180131   3.706   6.198  14.428  0.8523 -0.5863 -0.3816
19572TIP3    H280132   3.650   6.322  14.495 -1.0383 -0.6216 -1.8232
19573TIP3   OH280133   3.475   0.410   0.877 -0.4153 -0.2839 -0.0432
19573TIP3    H180134   3.414   0.482   0.860 -1.0118 -0.5927  0.6955
19573TIP3    H280135   3.455   0.383   0.967 -0.1120 -1.2812 -0.2640
19574TIP3   OH280136   6.123   6.527  17.146 -0.2048 -0.2535  0.4738
19574TIP3    H180137   6.182   6.493  17.080  0.9161 -0.9983  1.8045
19574TIP3    H280138   6.035   6.508  17.112  0.3371 -0.5293 -0.8169
19575TIP3   OH280139   2.067   0.439   3.089  0.2592  0.0581 -0.1869
19575TIP3    H180140   2.121   0.408   3.162 -0.8442 -0.5041  0.4204
19575TIP3    H280141   2.021   0.515   3.123  1.0480  0.8748 -0.8793
19576TIP3   OH280142   1.854   5.619   3.701 -0.0231 -0.0262  0.3277
19576TIP3    H180143   1.851   5.644   3.609  0.0254  1.1133  0.6163
19576TIP3    H280144   1.877   5.526   3.700  0.4783  0.0938 -0.7900
19577TIP3   OH280145   3.415   1.152  17.305 -0.2443  0.1554 -0.2501
19577TIP3    H180146   3.446   1.159  17.396 -0.6899 -2.4721  0.1860
19577TIP3    H280147   3.359   1.074  17.305  0.6523 -0.6028 -3.0294
19578TIP3   OH280148   1.969   0.855  11.820 -0.4202 -0.2619  0.0001
19578TIP3    H180149   2.036   0.911  11.859 -1.5737  1.7180 -0.7322
19578TIP3    H280150   1.971   0.876  11.727 -1.6231 -0.6522 -0.1307
19579TIP3   OH280151   2.357   3.060  14.841 -0.0265 -0.2168  0.1857
19579TIP3    H180152   2.402   2.980  14.814 -0.5916 -0.9330  1.2704
19579TIP3    H280153   2.283   3.029  14.893  0.2690  1.0255  1.4063
19580TIP3   OH280154   4.686   2.419   4.202  0.1734  0.3687  0.5160
19580TIP3    H180155   4.736   2.342   4.228 -0.8719 -0.2149  0.8782
19580TIP3    H280156   4.710   2.434   4.110  1.3193  0.3795  0.8082
19581TIP3   OH280157   3.754   1.405  14.514  0.5821  0.0892  0.1479
19581TIP3    H180158   3.808   1.326  14.505 -1.0157 -1.0509  0.2210
19581TIP3    H280159   3.814   1.477  14.494  2.4463 -1.0238  1.3961
19582TIP3   OH280160   0.770   0.981  15.628 -0.5140  0.0382  0.6091
19582TIP3    H180161   0.769   0.891  15.663  0.6636  0.0144  0.6205
19582TIP3    H280162   0.759   1.036  15.705  0.7219 -0.0575  0.8795
19583TIP3   OH280163   1.226   4.179   2.891  0.0240 -0.1468  0.0915
19583TIP3    H180164   1.202   4.126   2.967 -1.4530  0.2890 -0.0547
19583TIP3    H280165   1.291   4.241   2.925  0.4766 -0.9093  0.6518
19584TIP3   OH280166   5.569   2.517   3.082 -0.7984  0.9852  0.1861
19584TIP3    H180167   5.532   2.579   3.019 -1.3001  0.1236 -0.3990
19584TIP3    H280168   5.533   2.432   3.056  0.5607  0.3027  0.4245
19585TIP3   OH280169   3.506   4.634   0.821  0.2847  0.0780 -0.8070
19585TIP3    H180170   3.504   4.725   0.851 -1.3787  0.0237 -0.6470
19585TIP3    H280171   3.466   4.584   0.892  1.0670 -0.7734 -0.9433
19586TIP3   OH280172   5.027   0.476  17.180  0.2090  0.1640  0.0474
19586TIP3    H180173   4.931   0.474  17.191  0.2179 -0.1168  0.0804
19586TIP3    H280174   5.061   0.482  17.269  0.2345 -0.3395  0.0765
19587TIP3   OH280175   5.708   5.654   0.802  0.0949 -0.7754 -0.0710
19587TIP3    H180176   5.692   5.628   0.712  0.8893  1.1318 -0.8116
19587TIP3    H280177   5.792   5.614   0.824  0.0531 -0.9834 -0.2877
19588TIP3   OH280178   2.445   3.840   2.818 -0.5532  0.1151 -0.1823
19588TIP3    H180179   2.482   3.755   2.842 -0.8188 -0.1028 -0.5310
19588TIP3    H280180   2.455   3.894   2.897 -0.9315 -0.4255  0.2417
19589TIP3   OH280181   0.653   0.133  14.450 -0.1886  0.0465 -0.0075
19589TIP3    H180182   0.688   0.103  14.366  0.2072 -2.0341  0.8371
19589TIP3    H280183   0.716   0.199  14.481  0.6857 -0.5438 -0.4904
19590TIP3   OH280184   4.574   2.966   0.547 -0.3355  0.1391  0.4671
19590TIP3    H180185   4.528   2.997   0.469 -1.8709  1.9490  2.0136
19590TIP3    H280186   4.656   2.930   0.512 -1.5838 -0.5134 -2.1010
19591TIP3   OH280187   3.175   1.231  15.519 -0.1921  0.4372 -0.1450
19591TIP3    H180188   3.220   1.164  15.570  1.4097  0.6725 -1.1620
19591TIP3    H280189   3.106   1.184  15.473 -0.6301 -0.0522  0.9789
19592TIP3   OH280190   6.061   5.573   1.778 -0.0505 -0.6449  0.7133
19592TIP3    H180191   6.105   5.508   1.833 -1.0152 -2.5217 -0.6119
19592TIP3    H280192   6.132   5.622   1.736  0.7109 -1.2458  1.2785
19593TIP3   OH280193   0.729   3.903   5.510 -0.1671  0.6128  0.0447
19593TIP3    H180194   0.691   3.907   5.597  0.0739  0.4270  0.1578
19593TIP3    H280195   0.654   3.887   5.452 -0.1291 -0.9844  0.3843
19594TIP3   OH280196   2.879   1.453  11.430 -0.1021 -0.3101 -0.2063
19594TIP3    H180197   2.945   1.424  11.366 -0.3390  1.2228 -1.1966
19594TIP3    H280198   2.904   1.542  11.452 -0.5714 -0.4911  1.1760
19595TIP3   OH280199   5.727   1.586  11.694  0.0256  0.0587 -0.1984
19595TIP3    H180200   5.637   1.601  11.722 -0.6721 -3.1683 -0.3853
19595TIP3    H280201   5.781   1.621  11.765 -1.3958  0.8108  0.5443
19596TIP3   OH280202   3.732   5.873   5.362  0.2988 -0.6517 -0.4815
19596TIP3    H180203   3.734   5.948   5.302  1.9153 -2.6769 -3.2132
19596TIP3    H280204   3.657   5.821   5.333 -1.4407  0.2602  2.0544
19597TIP3   OH280205   1.686   5.837  14.276  0.4367  0.0212  0.4334
19597TIP3    H180206   1.719   5.891  14.204 -0.6576  1.0370  0.6511
19597TIP3    H280207   1.699   5.747  14.246 -0.7082  0.4022 -1.4253
19598TIP3   OH280208   5.298   6.087  16.874  0.3569  0.4013 -0.7153
19598TIP3    H180209   5.302   6.059  16.783 -1.7419  1.7149 -1.2879
19598TIP3    H280210   5.361   6.159  16.880 -0.9150  1.6462 -1.7010
19599TIP3   OH280211   5.764   1.193  10.870 -0.0085  0.3581  0.2477
19599TIP3    H180212   5.691   1.133  10.883 -0.6429  1.0327 -0.1565
19599TIP3    H280213   5.815   1.155  10.799 -0.5935  0.4610 -0.2337
19600TIP3   OH280214   4.697   5.946   1.135  0.2911 -0.2142 -0.6560
19600TIP3    H180215   4.702   5.884   1.208  0.6983 -0.1004 -0.5837
19600TIP3    H280216   4.786   5.950   1.101  0.4852  1.0605 -0.0543
19601TIP3   OH280217   1.340   3.777  14.753  0.2165 -0.1442 -0.2485
19601TIP3    H180218   1.427   3.741  14.734  0.7986  1.8731 -1.7856
19601TIP3    H280219   1.355   3.870  14.767 -1.6017  0.0798  0.5172
19602TIP3   OH280220   2.288   3.626   4.186 -0.3790 -0.3306  0.2180
19602TIP3    H180221   2.379   3.633   4.216  0.3953  0.1833 -2.0612
19602TIP3    H280222   2.246   3.569   4.251  1.6159 -0.7915  1.1925
19603TIP3   OH280223   0.349   3.784   2.909  0.3841  0.1190 -0.4832
19603TIP3    H180224   0.384   3.706   2.866  1.4627  1.1453 -1.5512
19603TIP3    H280225   0.426   3.825   2.950 -0.3632  0.0013  1.1260
19604TIP3   OH280226   5.281   6.350   4.224  0.8807  0.2206  0.4622
19604TIP3    H180227   5.275   6.441   4.198  0.0050  0.2966  0.8886
19604TIP3    H280228   5.349   6.348   4.291  0.2070  0.7349  1.1676
19605TIP3   OH280229   0.022   2.688   3.915 -0.2586 -0.2299  0.1347
19605TIP3    H180230  -0.013   2.635   3.986  1.3858  0.0516  1.1857
19605TIP3    H280231   0.031   2.627   3.841 -1.4791 -0.6358  0.3053
19606TIP3   OH280232   5.780   0.990  12.300  0.4737  0.3469 -0.3460
19606TIP3    H180233   5.797   0.939  12.221 -1.0832 -0.8174  0.0346
19606TIP3    H280234   5.813   0.936  12.372 -0.2082  0.3503 -0.0235
19607TIP3   OH280235   2.483   3.449  13.053  0.2187  0.3568 -0.0113
19607TIP3    H180236   2.436   3.382  13.103 -0.2388  1.2376  0.7631
19607TIP3    H280237   2.573   3.445  13.088  0.4999 -0.6386 -0.7927
19608TIP3   OH280238   0.128   5.546  15.869 -0.1508  0.4066 -0.2846
19608TIP3    H180239   0.162   5.559  15.957  1.0902 -0.0208 -0.6770
19608TIP3    H280240   0.039   5.514  15.882 -0.2449  1.0610  0.7875
19609TIP3   OH280241   3.198   3.500   5.067 -0.1002 -0.5612  0.0709
19609TIP3    H180242   3.270   3.503   5.005 -0.8698  0.7729 -0.8003
19609TIP3    H280243   3.192   3.589   5.102 -1.0955 -0.7473  0.4076
19610TIP3   OH280244   2.388   5.943   0.977 -0.1901 -0.1831  0.4312
19610TIP3    H180245   2.454   5.962   0.910  0.3688 -0.1427  0.9914
19610TIP3    H280246   2.325   6.015   0.969  0.0502  0.0012  0.1797
19611TIP3   OH280247   5.546   0.515  16.694 -0.0281  0.3282 -0.1665
19611TIP3    H180248   5.483   0.585  16.713 -0.0703  0.5092 -0.9360
19611TIP3    H280249   5.499   0.435  16.716  0.1559  0.5386  1.1005
19612TIP3   OH280250   4.064   4.236   3.967 -0.1804 -0.7471 -0.2109
19612TIP3    H180251   3.981   4.230   4.013 -1.7095  0.2278 -2.6542
19612TIP3    H280252   4.122   4.176   4.014 -2.4013 -1.8984  1.2274
19613TIP3   OH280253   6.697   5.624  16.995 -0.0004  0.4088  0.2891
19613TIP3    H180254   6.691   5.536  16.957 -1.7119  0.6559 -0.0807
19613TIP3    H280255   6.609   5.643  17.026  0.6504  1.4789  1.5971
19614TIP3   OH280256   0.964   4.499   2.500  0.8196 -0.0580 -0.0062
19614TIP3    H180257   0.874   4.492   2.530  1.2243 -1.4872  1.0104
19614TIP3    H280258   0.967   4.446   2.420  0.6506  0.4300 -0.3412
19615TIP3   OH280259   1.608   1.947   6.258  0.5753  0.6846  0.0594
19615TIP3    H180260   1.575   1.955   6.347 -0.3035 -1.4897 -0.0236
19615TIP3    H280261   1.531   1.924   6.205  1.6437 -1.6392 -0.6217
19616TIP3   OH280262   0.892   0.735  14.366  0.4601  0.6433 -0.1100
19616TIP3    H180263   0.880   0.651  14.321 -0.3852 -0.1732  1.5648
19616TIP3    H280264   0.970   0.723  14.420  0.4807  1.0268 -0.0506
19617TIP3   OH280265   2.796   3.457   5.321 -0.2492  0.3391  0.1487
19617TIP3    H180266   2.754   3.542   5.315  0.3419  0.6926  0.8890
19617TIP3    H280267   2.877   3.473   5.370  0.0721 -0.5683 -0.0608
19618TIP3   OH280268   2.169   2.630  17.389  0.4670  0.3566  0.4389
19618TIP3    H180269   2.139   2.713  17.426 -2.1323 -1.2510  2.2337
19618TIP3    H280270   2.224   2.592  17.458 -0.5732 -0.5651  0.7931
19619TIP3   OH280271   6.074   3.137  11.864 -0.7944  0.5519  0.4224
19619TIP3    H180272   6.034   3.214  11.905  0.3352 -0.3323  3.4537
19619TIP3    H280273   6.100   3.081  11.937  3.5146 -0.1549 -1.3199
19620TIP3   OH280274   0.791   3.974  14.716 -0.5094 -0.1578 -0.1852
19620TIP3    H180275   0.763   4.052  14.763 -1.1472 -0.6295  0.2464
19620TIP3    H280276   0.877   3.953  14.753 -0.4830  0.1516 -0.0713
19621TIP3   OH280277   0.106   3.171   5.154  0.3148  0.9454 -0.5757
19621TIP3    H180278   0.197   3.190   5.130  0.0821  2.2021 -0.5346
19621TIP3    H280279   0.054   3.227   5.097 -0.3543  1.7452  0.7771
19622TIP3   OH280280   5.756   6.101   2.471  0.2775  0.1271 -0.0300
19622TIP3    H180281   5.755   6.050   2.552  0.0978  0.4004  0.1396
19622TIP3    H280282   5.828   6.164   2.483 -0.3037  0.7455  0.2785
19623TIP3   OH280283   5.977   1.840  11.992 -0.2233 -0.9984 -0.3410
19623TIP3    H180284   5.935   1.924  11.973 -0.1367 -0.3778  1.9536
19623TIP3    H280285   6.003   1.807  11.906  0.3856  1.6568 -1.2726
19624TIP3   OH280286   0.881   5.460  14.618  0.2144 -0.4085  0.1054
19624TIP3    H180287   0.841   5.518  14.682  0.9969  0.1744  0.0780
19624TIP3    H280288   0.817   5.454  14.547 -0.5681 -0.8950  0.8291
19625TIP3   OH280289   3.406   6.005  13.748  0.3733 -0.2574 -0.1157
19625TIP3    H180290   3.375   6.075  13.691  0.2441  0.1064  0.3927
19625TIP3    H280291   3.335   5.940  13.746  0.3042 -0.1779 -0.2553
19626TIP3   OH280292   1.970   3.478   5.920 -0.4509  0.3007  0.2802
19626TIP3    H180293   1.938   3.527   5.844 -1.5424 -1.0239 -0.1486
19626TIP3    H280294   2.001   3.395   5.885  1.0197  0.4884  1.0518
19627TIP3   OH280295   5.963   3.029   5.535 -0.0825 -0.2190 -0.1577
19627TIP3    H180296   5.997   3.113   5.567 -0.9017  0.3637 -0.7928
19627TIP3    H280297   5.868   3.041   5.532 -0.3464 -1.6350  1.0634
19628TIP3   OH280298   0.308   1.771  11.300  0.0117  0.1257  0.2530
19628TIP3    H180299   0.248   1.751  11.227  1.5245 -0.4078 -0.8893
19628TIP3    H280300   0.393   1.782  11.259  0.9034 -0.1171  1.9480
19629TIP3   OH280301   0.483   4.583   4.577  0.2485 -0.0034 -0.3261
19629TIP3    H180302   0.554   4.531   4.613 -0.3780  0.2056  1.3165
19629TIP3    H280303   0.527   4.656   4.533  1.1043 -1.4893 -2.0490
19630TIP3   OH280304   6.148   6.384   3.167 -0.3743  0.1984 -0.1691
19630TIP3    H180305   6.189   6.363   3.252 -0.4119  0.1766 -0.1564
19630TIP3    H280306   6.059   6.349   3.174 -0.2613 -0.1400 -0.3539
19631TIP3   OH280307   6.341   3.976  15.795  0.0103 -0.2797  0.3213
19631TIP3    H180308   6.413   4.021  15.751  0.6894 -1.3855  0.2811
19631TIP3    H280309   6.289   3.938  15.724 -1.4538  1.6737  0.2563
19632TIP3   OH280310   6.432   5.857   5.948 -0.1060 -0.2741  0.1903
19632TIP3    H180311   6.443   5.952   5.940 -0.4769 -0.2979 -0.6328
19632TIP3    H280312   6.396   5.829   5.864 -0.6927 -1.0469  0.6832
19633TIP3   OH280313   4.164   1.827   3.926  1.0608  0.2826 -1.0540
19633TIP3    H180314   4.091   1.871   3.883 -0.4538 -0.6204  0.4800
19633TIP3    H280315   4.216   1.898   3.965 -0.6960  0.8258  0.4073
19634TIP3   OH280316   2.745   5.133   2.469  0.2172 -0.1503  0.3501
19634TIP3    H180317   2.734   5.044   2.502 -0.2722  0.2843  1.4270
19634TIP3    H280318   2.808   5.173   2.530 -1.5766  1.0289  1.5363
19635TIP3   OH280319   2.729   0.526   4.066  0.7297  0.1573  0.0806
19635TIP3    H180320   2.757   0.582   3.993  0.6879  0.0920  0.0144
19635TIP3    H280321   2.641   0.557   4.086  0.8325  0.3343  0.2606
19636TIP3   OH280322   6.208   4.722   1.339 -0.0443  0.3534  0.0164
19636TIP3    H180323   6.271   4.655   1.366  0.9840  0.0519 -2.7531
19636TIP3    H280324   6.262   4.797   1.314 -0.9767  1.0590  0.0639
19637TIP3   OH280325   5.850   4.123  12.511 -0.0511 -0.6746  0.2729
19637TIP3    H180326   5.932   4.091  12.473 -0.0873 -0.6014  0.1307
19637TIP3    H280327   5.851   4.091  12.601  0.2453 -0.4738  0.3448
19638TIP3   OH280328   2.500   3.927  16.905  0.2882  0.0861 -0.0240
19638TIP3    H180329   2.436   3.974  16.959 -0.2941 -1.4338  0.6717
19638TIP3    H280330   2.458   3.843  16.887  1.8166 -0.6812 -0.1172
19639TIP3   OH280331   1.279   1.489   6.264  0.2913 -0.1287  0.4083
19639TIP3    H180332   1.255   1.428   6.335  1.3434  0.1988  1.0787
19639TIP3    H280333   1.354   1.537   6.299 -0.1917  1.1903 -0.3243
19640TIP3   OH280334   5.938   3.489  17.324  0.5149 -0.3919  0.0174
19640TIP3    H180335   5.986   3.572  17.333  0.0391 -0.0184 -0.8164
19640TIP3    H280336   5.876   3.490  17.397  1.0660 -0.4029  0.4960
19641TIP3   OH280337   3.495   4.727  14.453 -0.2929 -0.1460  0.3390
19641TIP3    H180338   3.554   4.655  14.475  0.3622 -0.2285 -1.4583
19641TIP3    H280339   3.438   4.737  14.529  0.0234 -2.1217  0.8734
19642TIP3   OH280340   4.268   5.587  16.419 -0.2332 -0.2512  0.2058
19642TIP3    H180341   4.206   5.594  16.491  0.5724  1.3542  0.7714
19642TIP3    H280342   4.257   5.497  16.388 -2.2166 -0.2856  0.8301
19643TIP3   OH280343   6.282   4.363  12.762 -0.6206  0.0374 -0.5296
19643TIP3    H180344   6.363   4.336  12.806 -1.1902 -0.2440  0.3954
19643TIP3    H280345   6.220   4.378  12.834 -1.7903 -1.0622 -1.2655
19644TIP3   OH280346   0.215   0.107  12.680 -0.1424 -0.0940 -0.4860
19644TIP3    H180347   0.184   0.194  12.706 -2.1289  0.3178 -3.7059
19644TIP3    H280348   0.291   0.124  12.625 -0.7581 -0.2877 -1.4324
19645TIP3   OH280349   0.260   3.915  13.938 -0.1322  1.1341 -0.0048
19645TIP3    H180350   0.217   3.893  14.021  1.2940  0.7625  0.6710
19645TIP3    H280351   0.240   3.842  13.880  0.8344  0.2114  0.7962
19646TIP3   OH280352   3.305   0.065  17.256  0.6697  0.4411  0.2609
19646TIP3    H180353   3.293   0.020  17.339 -0.5001  1.4388  0.6547
19646TIP3    H280354   3.348  -0.000  17.200  0.6632 -0.5422  1.3581
19647TIP3   OH280355   0.490   6.679   5.633  0.9369  0.0019  0.1115
19647TIP3    H180356   0.434   6.606   5.605  0.5081  0.1383  0.5920
19647TIP3    H280357   0.438   6.725   5.700  1.9287 -0.3387  1.1574
19648TIP3   OH280358   4.890   1.735  15.072  0.0216  0.4789 -0.8156
19648TIP3    H180359   4.850   1.727  15.158  2.1244 -0.3144  0.1599
19648TIP3    H280360   4.818   1.720  15.010 -1.4925  0.8772  0.7850
19649TIP3   OH280361   6.551   1.391   2.914  0.2810 -0.2705  0.0330
19649TIP3    H180362   6.620   1.333   2.946  0.1624 -0.3753  0.0968
19649TIP3    H280363   6.493   1.335   2.864 -0.9031 -0.5990  1.6918
19650TIP3   OH280364   3.734   0.971  15.711  0.7495 -0.4207  0.1758
19650TIP3    H180365   3.784   0.952  15.790  1.0747 -0.1736  0.0322
19650TIP3    H280366   3.795   0.954  15.639 -0.4894 -3.8902 -0.2320
19651TIP3   OH280367   3.765   6.298  13.492  0.9914  0.5503 -0.2873
19651TIP3    H180368   3.758   6.268  13.582 -2.3446 -1.5553 -1.1188
19651TIP3    H280369   3.800   6.223  13.444 -0.5371  0.4296 -1.2550
19652TIP3   OH280370   5.394   5.815  15.010 -0.0731  0.1930 -0.1532
19652TIP3    H180371   5.359   5.883  15.068 -0.3875  1.4741 -1.7494
19652TIP3    H280372   5.488   5.821  15.021 -0.1779 -1.1310  1.8535
19653TIP3   OH280373   1.636   1.228  17.065  0.5504 -0.2220 -0.3016
19653TIP3    H180374   1.624   1.154  17.124  1.1121 -0.0869 -0.0041
19653TIP3    H280375   1.729   1.225  17.042  0.5582  0.3423 -0.3491
19654TIP3   OH280376   5.098   5.811   3.983 -0.1552  0.7840 -0.1260
19654TIP3    H180377   5.138   5.746   4.040  0.6152  0.6936 -0.7468
19654TIP3    H280378   5.077   5.762   3.903  0.4932  1.3016 -0.6212
19655TIP3   OH280379   6.014   0.475   1.663  0.0199  0.5500 -0.2212
19655TIP3    H180380   5.933   0.445   1.704  1.0936 -0.3947  1.2898
19655TIP3    H280381   6.007   0.571   1.662 -0.4801  0.5529  1.2865
19656TIP3   OH280382   1.251   1.074   1.856  0.2778  0.1990 -0.3646
19656TIP3    H180383   1.214   1.082   1.944  0.5152 -1.3208 -0.0850
19656TIP3    H280384   1.177   1.047   1.801  0.5923 -1.3136 -0.1070
19657TIP3   OH280385   1.150   3.517  12.892  0.6248  0.3851  0.3445
19657TIP3    H180386   1.161   3.469  12.974 -0.5019  0.7271  0.7087
19657TIP3    H280387   1.218   3.584  12.894  1.4496 -0.4270  0.3744
19658TIP3   OH280388   5.348   4.059   2.538 -0.0285 -0.2697 -0.2386
19658TIP3    H180389   5.253   4.070   2.547  0.0242 -0.3480  0.5193
19658TIP3    H280390   5.359   3.967   2.512 -0.0657 -1.0881  2.3423
19659TIP3   OH280391   5.766   6.455   0.363 -0.6616  0.2198  0.4477
19659TIP3    H180392   5.842   6.500   0.399 -1.0863  1.3597 -0.0003
19659TIP3    H280393   5.728   6.407   0.436  0.2081  0.0264  0.7789
19660TIP3   OH280394   6.275   1.456  16.678  0.1654 -0.4570  0.2042
19660TIP3    H180395   6.256   1.395  16.750 -0.6954 -0.4189  0.0242
19660TIP3    H280396   6.199   1.514  16.675 -0.4659 -1.3114 -1.6220
19661TIP3   OH280397   0.304   6.012   4.164 -0.3355  0.2122  0.4274
19661TIP3    H180398   0.384   6.064   4.158 -0.3837  0.3693  1.0694
19661TIP3    H280399   0.268   6.032   4.250 -0.9033 -0.0977  0.2723
19662TIP3   OH280400   1.268   3.182   1.321  0.3309  0.4127 -0.0248
19662TIP3    H180401   1.357   3.216   1.311  0.2776  0.4381 -0.4510
19662TIP3    H280402   1.258   3.166   1.415  0.4653  1.2893  0.1498
19663TIP3   OH280403   3.030   5.366   1.363 -0.4493 -0.0222  0.0160
19663TIP3    H180404   2.993   5.286   1.327  0.6098 -0.1052 -0.9471
19663TIP3    H280405   3.124   5.360   1.344  0.0349  0.3712  1.9788
19664TIP3   OH280406   0.563   2.475   6.587  0.2708 -0.0804  0.2165
19664TIP3    H180407   0.644   2.522   6.604  0.6432  0.0613 -1.7731
19664TIP3    H280408   0.513   2.484   6.668  1.3585  1.6108  0.7465
19665TIP3   OH280409   5.001   2.605   0.600 -0.1341 -0.5749  0.2648
19665TIP3    H180410   5.093   2.604   0.627 -0.4322 -1.8934  1.3630
19665TIP3    H280411   4.961   2.675   0.651  0.4427  0.6655 -0.9483
19666TIP3   OH280412   6.494   5.787   4.154 -0.5276 -0.7052 -0.1637
19666TIP3    H180413   6.406   5.758   4.131 -0.2362  0.1552 -2.5748
19666TIP3    H280414   6.513   5.858   4.093  1.5511 -0.3462  0.8235
19667TIP3   OH280415   2.533   3.194   4.952  0.1103  0.0192 -0.4182
19667TIP3    H180416   2.494   3.107   4.966 -0.5699  0.3710 -0.1183
19667TIP3    H280417   2.600   3.201   5.020 -0.9823  0.4020  0.6517
19668TIP3   OH280418   4.128   5.275   0.012  0.0413  0.1775 -0.2118
19668TIP3    H180419   4.216   5.258  -0.023 -0.2758  1.0381 -1.4814
19668TIP3    H280420   4.074   5.290  -0.065 -1.3224 -0.6922  0.5328
19669TIP3   OH280421   0.458   2.428   3.521 -0.2958  0.2938  0.3300
19669TIP3    H180422   0.377   2.447   3.473 -1.1109  0.3279  1.6472
19669TIP3    H280423   0.461   2.496   3.589  1.4521  0.9731 -0.3897
19670TIP3   OH280424   3.487   6.430  11.571 -0.3614  0.3276 -0.2413
19670TIP3    H180425   3.403   6.401  11.537  0.2039  1.7630 -3.2164
19670TIP3    H280426   3.541   6.351  11.572 -1.2264 -0.2813  0.1280
19671TIP3   OH280427   0.001   3.783  15.173  0.2711 -0.2868 -0.3354
19671TIP3    H180428   0.035   3.819  15.254 -1.2914  1.2788 -0.3371
19671TIP3    H280429  -0.077   3.735  15.199 -1.8386  2.4977 -1.1263
19672TIP3   OH280430   1.758   0.894  16.831 -0.1630 -0.0171 -0.0152
19672TIP3    H180431   1.756   0.857  16.743 -1.6050 -0.6477  0.2586
19672TIP3    H280432   1.717   0.980  16.821  0.8570  0.4733 -0.1715
19673TIP3   OH280433   5.809   1.228   6.588 -0.1020  0.0369 -0.0063
19673TIP3    H180434   5.754   1.178   6.528 -3.0471  2.3208  0.5511
19673TIP3    H280435   5.861   1.162   6.635  1.1711 -1.9243 -3.7975
19674TIP3   OH280436   4.244   2.927   0.170 -0.3009 -0.5669 -0.3991
19674TIP3    H180437   4.205   2.997   0.116 -0.5971 -0.8401 -0.5476
19674TIP3    H280438   4.224   2.847   0.122 -0.9276 -0.8584  0.3175
19675TIP3   OH280439   4.575   2.634  13.285  0.0516  0.2375 -0.1768
19675TIP3    H180440   4.644   2.687  13.245 -0.5884 -0.1010 -1.8473
19675TIP3    H280441   4.503   2.696  13.300 -0.2025  0.1179 -0.8594
19676TIP3   OH280442   0.767   0.016  14.745 -0.1480 -0.2792  0.3445
19676TIP3    H180443   0.718   0.048  14.668  2.2979 -0.4600 -1.4219
19676TIP3    H280444   0.723  -0.065  14.770 -0.9458 -0.2893 -0.9866
19677TIP3   OH280445   3.570   0.755   2.555 -0.4815 -0.2738 -0.0874
19677TIP3    H180446   3.638   0.822   2.562 -2.2827  1.5237  1.2643
19677TIP3    H280447   3.532   0.750   2.643 -0.7996 -2.7027 -0.2944
19678TIP3   OH280448   4.668   4.727   1.650  0.7606  0.5997  0.4483
19678TIP3    H180449   4.639   4.748   1.739  0.1345 -0.8839  0.6216
19678TIP3    H280450   4.616   4.784   1.593 -0.7186 -0.2665  0.8935
19679TIP3   OH280451   4.637   3.369   5.993  0.3870 -0.6725  1.1743
19679TIP3    H180452   4.598   3.361   6.080  1.1120 -0.4854  1.5307
19679TIP3    H280453   4.728   3.341   6.005  0.9619  0.9287  0.8654
19680TIP3   OH280454   0.236   5.346   1.617  0.3990  0.3860 -0.0086
19680TIP3    H180455   0.173   5.345   1.688  0.5366 -0.7240  0.1103
19680TIP3    H280456   0.274   5.434   1.620 -0.0356  0.5532  0.8959
19681TIP3   OH280457   4.856   5.122   5.033 -0.3762  0.6695  0.2264
19681TIP3    H180458   4.802   5.160   5.102 -1.2130  2.4490 -1.3155
19681TIP3    H280459   4.798   5.118   4.957  1.0542  0.5846 -0.8928
19682TIP3   OH280460   2.899   6.043   0.138  0.2687  0.0366  0.4297
19682TIP3    H180461   2.985   6.004   0.124  0.4671  0.3997  0.6324
19682TIP3    H280462   2.917   6.130   0.174 -0.1876 -0.1121  1.0493
19683TIP3   OH280463   3.914   3.755   4.597 -0.1723  0.4633  0.1549
19683TIP3    H180464   3.835   3.774   4.648  0.2559 -0.9585  1.4314
19683TIP3    H280465   3.892   3.674   4.550 -0.0086  0.9240 -0.7364
19684TIP3   OH280466   2.488   2.044   6.441 -0.2965 -0.6240 -0.0010
19684TIP3    H180467   2.471   1.952   6.420 -1.3709 -0.6234  0.7975
19684TIP3    H280468   2.573   2.044   6.485 -0.2834 -1.2203 -0.0260
19685TIP3   OH280469   5.950   0.115   0.507  0.6202 -0.3454  0.1751
19685TIP3    H180470   5.861   0.134   0.478  1.2521  1.4690 -0.7537
19685TIP3    H280471   5.939   0.083   0.597 -0.9381  0.2602  0.2374
19686TIP3   OH280472   3.684   0.825   1.434  0.8250  0.3483 -0.3629
19686TIP3    H180473   3.710   0.859   1.519 -3.3662  0.2714  1.1380
19686TIP3    H280474   3.642   0.899   1.390  0.3067 -0.3649 -1.1108
19687TIP3   OH280475   1.763   5.948   6.485  0.2219  0.0855  0.0225
19687TIP3    H180476   1.668   5.945   6.472  0.2745  1.0311 -0.7031
19687TIP3    H280477   1.782   6.042   6.496  0.8732 -0.2103  1.8256
19688TIP3   OH280478   3.471   2.686   4.173  0.4063  0.2603 -0.5315
19688TIP3    H180479   3.520   2.733   4.242  0.4979  2.0954 -1.7772
19688TIP3    H280480   3.531   2.685   4.099  0.1677 -1.3840 -0.7189
19689TIP3   OH280481   2.393   5.541   4.327 -0.2043  0.0067 -0.1772
19689TIP3    H180482   2.470   5.483   4.321  0.9162  1.3033  1.0411
19689TIP3    H280483   2.401   5.597   4.250 -0.9360 -0.9957 -1.0091
19690TIP3   OH280484   5.115   6.272  11.672 -0.4617  0.7084 -0.1175
19690TIP3    H180485   5.037   6.238  11.628  0.7821 -1.3218 -0.9254
19690TIP3    H280486   5.170   6.305  11.601  0.7683 -0.9033  0.0133
19691TIP3   OH280487   4.451   0.657   5.644  0.0741 -0.1152  0.0863
19691TIP3    H180488   4.495   0.593   5.698  1.6252  0.5471 -0.3336
19691TIP3    H280489   4.369   0.615   5.617  0.0129 -1.0294  1.6253
19692TIP3   OH280490   2.080   2.335   0.230 -0.8285 -0.0250  0.2034
19692TIP3    H180491   2.081   2.307   0.138  0.5076 -0.5266  0.3428
19692TIP3    H280492   2.050   2.257   0.278 -2.2398  0.4627  0.1470
19693TIP3   OH280493   3.815   5.387  16.424  0.2190 -0.0963  0.5209
19693TIP3    H180494   3.799   5.475  16.458 -1.4673 -0.3767  0.5402
19693TIP3    H280495   3.899   5.361  16.462  1.0140  1.6977  0.0921
19694TIP3   OH280496   4.672   6.290   6.580 -0.6845 -0.4935 -0.2643
19694TIP3    H180497   4.734   6.240   6.633  1.0153  1.3021 -0.4538
19694TIP3    H280498   4.725   6.327   6.510 -2.0757  0.6908 -0.7354
19695TIP3   OH280499   2.432   4.249   5.518 -0.7719  0.3206 -0.2127
19695TIP3    H180500   2.494   4.276   5.451 -0.0424  0.4298  0.4958
19695TIP3    H280501   2.346   4.264   5.478 -0.4555  3.6765  0.0941
19696TIP3   OH280502   6.718   2.105   4.242 -0.7109 -0.2838 -0.4633
19696TIP3    H180503   6.773   2.183   4.244 -1.6370  0.3850  1.8179
19696TIP3    H280504   6.779   2.033   4.223  0.7999  0.5732  0.8590
19697TIP3   OH280505   0.485   2.939  17.293 -0.1220 -0.0248  0.0497
19697TIP3    H180506   0.516   2.973  17.210 -1.8171  0.4268 -0.4376
19697TIP3    H280507   0.484   2.844  17.282 -1.4468  0.0847 -0.8778
19698TIP3   OH280508   3.890   5.200   2.219  0.3237 -0.1135 -0.2305
19698TIP3    H180509   3.984   5.189   2.236  0.4754  0.1646 -0.8590
19698TIP3    H280510   3.856   5.238   2.300  0.8467  0.2436 -0.1656
19699TIP3   OH280511   5.706   3.563  14.296  0.2010 -0.6998 -0.4184
19699TIP3    H180512   5.727   3.635  14.355  2.1256  0.0783 -1.9252
19699TIP3    H280513   5.641   3.511  14.343  0.6489  0.6069  1.7845
19700TIP3   OH280514   1.844   1.976  11.474 -0.5086  0.2577 -0.5060
19700TIP3    H180515   1.901   2.053  11.469  0.6325 -0.5081  0.1371
19700TIP3    H280516   1.755   2.011  11.467 -0.0196  1.6498 -0.0592
19701TIP3   OH280517   2.757   3.985   5.565  0.4644 -0.5910  0.0967
19701TIP3    H180518   2.826   4.047   5.542 -0.1624 -0.5864 -1.9253
19701TIP3    H280519   2.696   4.037   5.617  1.1021 -0.1429  0.4228
19702TIP3   OH280520   1.789   2.953   3.795  0.4227 -0.5359 -0.0202
19702TIP3    H180521   1.866   2.938   3.850  0.0565  0.9899  0.9670
19702TIP3    H280522   1.814   3.026   3.739 -0.0788 -0.4833 -0.1767
19703TIP3   OH280523   2.538   3.233  13.548  0.0550  0.1602  0.3995
19703TIP3    H180524   2.523   3.146  13.511  0.3107  0.9262 -1.6249
19703TIP3    H280525   2.590   3.216  13.627  0.2169 -1.5048 -0.0144
19704TIP3   OH280526   2.858   0.051  15.027  0.3115 -0.2279  0.0268
19704TIP3    H180527   2.812  -0.032  15.011 -1.0108  0.5603 -0.5041
19704TIP3    H280528   2.897   0.073  14.942 -0.7424  0.4879 -0.2897
19705TIP3   OH280529   5.437   4.017  15.800  0.9160  0.0493  0.4539
19705TIP3    H180530   5.496   4.048  15.732  0.4097  0.6439  0.2733
19705TIP3    H280531   5.457   4.072  15.876  0.6743  0.1800  0.4241
19706TIP3   OH280532   3.083   6.409   1.997 -0.5088 -0.6544 -0.1506
19706TIP3    H180533   3.155   6.471   1.994 -0.5835 -0.2890  2.5653
19706TIP3    H280534   3.080   6.370   1.910 -1.1970  3.8887 -2.4785
19707TIP3   OH280535   2.553   0.928   1.447 -0.5183  0.0108 -0.2007
19707TIP3    H180536   2.578   0.875   1.371 -1.0630  0.5249 -0.7449
19707TIP3    H280537   2.632   0.930   1.501  0.0753  0.1545 -1.0506
19708TIP3   OH280538   1.623   1.945  15.140  0.2679  0.8417  0.4928
19708TIP3    H180539   1.603   1.958  15.232 -0.0544  0.6005  0.4624
19708TIP3    H280540   1.567   2.008  15.094 -1.9289 -1.0760  0.2996
19709TIP3   OH280541   5.877   5.077   6.521 -0.5025  0.0140 -0.0050
19709TIP3    H180542   5.827   5.103   6.598 -1.9729 -1.1340 -0.5278
19709TIP3    H280543   5.839   5.127   6.449 -1.7356 -1.6533 -0.5971
19710TIP3   OH280544   0.757   1.567   5.389  0.1890  0.1941  0.9493
19710TIP3    H180545   0.833   1.620   5.413  0.2722  1.0867 -1.0635
19710TIP3    H280546   0.738   1.516   5.467  2.2366  0.6816  1.8416
19711TIP3   OH280547   1.166   5.249  11.592 -0.3079 -0.2591  0.3216
19711TIP3    H180548   1.219   5.273  11.516  1.2078 -2.2457  0.6729
19711TIP3    H280549   1.110   5.178  11.561 -0.9479  0.1001  0.6292
19712TIP3   OH280550   5.830   1.515  13.708  0.2450  0.4766 -0.1212
19712TIP3    H180551   5.747   1.562  13.716 -0.2546 -0.3689 -0.2194
19712TIP3    H280552   5.819   1.459  13.631  1.2320  0.9815 -0.6571
19713TIP3   OH280553   3.490   3.326   1.090  0.6054 -0.6956 -0.2997
19713TIP3    H180554   3.455   3.375   1.015  1.8015 -1.2340 -1.2442
19713TIP3    H280555   3.442   3.361   1.165 -0.6530 -0.1601 -1.3053
19714TIP3   OH280556   2.482   1.494  15.811 -0.1865 -0.3001  0.4968
19714TIP3    H180557   2.421   1.502  15.738 -0.2556  0.1882  0.6092
19714TIP3    H280558   2.454   1.414  15.857 -0.0993 -0.6508 -0.0457
19715TIP3   OH280559   4.968   4.376  13.465  0.2226 -0.0470 -0.2320
19715TIP3    H180560   4.922   4.304  13.509 -2.2666 -0.1988 -2.7950
19715TIP3    H280561   4.969   4.351  13.373  1.8372  1.9582 -0.8381
19716TIP3   OH280562   6.366   4.781   2.056 -0.3584  0.3924 -0.3731
19716TIP3    H180563   6.386   4.860   2.107 -0.5370  2.6846 -3.5754
19716TIP3    H280564   6.447   4.731   2.057  0.3872  1.5683  0.1251
19717TIP3   OH280565   4.821   4.170  13.616 -0.2143  0.0373  0.5785
19717TIP3    H180566   4.820   4.099  13.680 -0.5607 -0.6275 -0.1373
19717TIP3    H280567   4.753   4.231  13.646 -1.9907 -1.3811 -0.3214
19718TIP3   OH280568   2.107   4.837   1.268  0.3425 -0.0226 -0.2079
19718TIP3    H180569   2.059   4.834   1.186 -0.5168  1.0470  0.2249
19718TIP3    H280570   2.150   4.922   1.268 -1.0351  0.7320  1.1495
19719TIP3   OH280571   3.960   1.723   6.474 -0.1020  0.6564  0.6427
19719TIP3    H180572   4.022   1.789   6.442 -0.8290  0.7946 -0.5294
19719TIP3    H280573   3.987   1.642   6.431  0.8895  0.1117  2.2072
19720TIP3   OH280574   1.037   0.295   1.104  0.3082 -0.6094 -0.0743
19720TIP3    H180575   0.982   0.279   1.027  0.3018 -0.9738  0.0021
19720TIP3    H280576   1.126   0.279   1.073  0.5771  1.7075 -0.6756
19721TIP3   OH280577   4.182   3.325  11.189  0.0719  0.5147 -0.0727
19721TIP3    H180578   4.222   3.275  11.261  0.5173 -0.3638 -0.9105
19721TIP3    H280579   4.111   3.269  11.157 -0.1128  0.8955 -0.3380
19722TIP3   OH280580   3.529   4.709   1.526  0.4538  0.1727  0.3829
19722TIP3    H180581   3.615   4.750   1.522  1.2944 -1.5521 -0.2877
19722TIP3    H280582   3.475   4.761   1.468  1.4945  0.3148 -0.4915
19723TIP3   OH280583   1.136   4.557   2.892  0.0389 -0.0185 -0.3394
19723TIP3    H180584   1.089   4.634   2.925 -1.3858 -1.2722  0.6592
19723TIP3    H280585   1.223   4.564   2.930  0.7377  2.2538 -2.0674
19724TIP3   OH280586   5.611   6.188  15.500  0.7846 -0.1802 -0.0599
19724TIP3    H180587   5.679   6.180  15.434  0.1968 -1.6507 -0.5188
19724TIP3    H280588   5.550   6.252  15.464  1.1872  0.0794 -0.2860
19725TIP3   OH280589   0.880   6.460   0.975  0.1207 -0.1246 -0.3243
19725TIP3    H180590   0.910   6.447   0.885 -0.3752 -0.6428 -0.4190
19725TIP3    H280591   0.958   6.442   1.028 -0.0387 -1.6553 -0.5616
19726TIP3   OH280592   5.076   1.391   1.479  0.0764  0.4419  0.2306
19726TIP3    H180593   5.006   1.335   1.447  0.4473 -0.7388  1.3743
19726TIP3    H280594   5.094   1.452   1.407  0.1163 -1.3474 -1.3441
19727TIP3   OH280595   4.298   5.646   3.247 -0.0742  0.4206  0.1241
19727TIP3    H180596   4.325   5.701   3.320  1.7476 -0.4321  0.1595
19727TIP3    H280597   4.311   5.700   3.169 -1.5500  1.1617  0.3676
19728TIP3   OH280598   3.516   1.221  14.222  0.1281 -0.0707  0.6179
19728TIP3    H180599   3.567   1.300  14.206 -0.3920  0.3043  0.7680
19728TIP3    H280600   3.438   1.232  14.167  1.0387 -1.4831 -1.0343
19729TIP3   OH280601   0.055   0.550  11.671  0.7019  0.3957  0.3348
19729TIP3    H180602   0.084   0.460  11.660 -0.5350  0.1717 -1.4148
19729TIP3    H280603  -0.040   0.545  11.678  0.7270  1.4351  2.1157
19730TIP3   OH280604   1.977   2.753  12.657 -0.8922 -0.5338 -0.0261
19730TIP3    H180605   2.027   2.733  12.578 -0.9775 -1.0444  0.0429
19730TIP3    H280606   1.999   2.683  12.718 -1.1347 -0.3660  0.2629
19731TIP3   OH280607   0.501   5.569  15.201 -0.0067 -0.1378 -0.0552
19731TIP3    H180608   0.501   5.599  15.292 -0.3999 -0.5175  0.0726
19731TIP3    H280609   0.409   5.574  15.174 -0.0779 -1.1884 -0.0427
19732TIP3   OH280610   4.732   4.820  13.524  0.5096  0.1531 -0.1461
19732TIP3    H180611   4.797   4.884  13.555  0.1128  1.8329 -2.4944
19732TIP3    H280612   4.652   4.844  13.572  0.9373 -0.2089  0.7844
19733TIP3   OH280613   2.369   4.362  12.533  0.0643 -0.0953 -0.1498
19733TIP3    H180614   2.357   4.276  12.493  0.9005 -0.2087 -0.1831
19733TIP3    H280615   2.463   4.379  12.524 -0.1383  0.9421 -0.3972
19734TIP3   OH280616   4.523   0.305   0.064 -0.7334  0.2688  0.1227
19734TIP3    H180617   4.432   0.313   0.036 -1.4199  0.1591  2.1732
19734TIP3    H280618   4.524   0.341   0.153  1.1135 -0.2666  0.3556
19735TIP3   OH280619   3.303   3.656   3.953  0.1306  0.0183  0.1560
19735TIP3    H180620   3.384   3.678   4.000  0.7347 -1.7355  0.0180
19735TIP3    H280621   3.238   3.718   3.986  1.3528  0.9909  0.8120
19736TIP3   OH280622   0.786   0.427   6.418  0.1535 -0.0666 -0.2840
19736TIP3    H180623   0.838   0.431   6.498  0.5215 -0.2577 -0.5079
19736TIP3    H280624   0.714   0.488   6.433  0.4556  0.2229  0.0247
19737TIP3   OH280625   3.028   0.997  15.484  0.0105  0.0694  0.0073
19737TIP3    H180626   3.038   0.931  15.551  1.8875  0.1631 -0.1376
19737TIP3    H280627   2.987   1.071  15.529  2.6298  0.7231  1.5057
19738TIP3   OH280628   6.514   3.166  13.938  0.3779  0.4167 -0.3214
19738TIP3    H180629   6.444   3.118  13.982  0.5906  0.4263  0.0291
19738TIP3    H280630   6.594   3.134  13.979  0.7436 -0.9627 -1.9683
19739TIP3   OH280631   2.485   4.048  14.399  0.1158  0.3947  0.4746
19739TIP3    H180632   2.526   4.046  14.313  0.4671 -0.8506  0.6396
19739TIP3    H280633   2.404   4.097  14.386 -0.8375 -1.4453 -1.0600
19740TIP3   OH280634   2.368   5.611  13.379  0.2861  0.3358 -0.1257
19740TIP3    H180635   2.345   5.547  13.311 -2.4842 -0.0639  1.0279
19740TIP3    H280636   2.317   5.689  13.356 -1.5658 -0.1759  1.9927
19741TIP3   OH280637   5.277   2.407   0.553  0.3867  0.3474  0.0483
19741TIP3    H180638   5.328   2.418   0.473 -0.2738  0.1820 -0.4085
19741TIP3    H280639   5.242   2.318   0.546 -0.1799  0.5553  0.2263
19742TIP3   OH280640   5.217   1.154   1.914 -0.7107 -0.4653  0.1120
19742TIP3    H180641   5.186   1.104   1.838  0.3430  0.5682 -1.0317
19742TIP3    H280642   5.136   1.185   1.956 -1.3200  0.6291 -1.7510
19743TIP3   OH280643   4.245   0.650  13.943 -0.0654  0.6570 -0.2386
19743TIP3    H180644   4.330   0.669  13.904 -1.0921  2.4205 -1.7556
19743TIP3    H280645   4.262   0.578  14.004  2.4017  0.6601 -0.8369
19744TIP3   OH280646   4.967   5.307  11.365 -0.4525  0.4600  0.1835
19744TIP3    H180647   4.923   5.249  11.303  1.0219  0.2514 -0.7068
19744TIP3    H280648   4.954   5.395  11.330  2.4378  0.1956 -1.8927
19745TIP3   OH280649   6.647   4.469  12.495 -0.0653 -0.4766 -0.3451
19745TIP3    H180650   6.604   4.384  12.504  1.1415 -1.1786 -0.9222
19745TIP3    H280651   6.652   4.504  12.584 -4.3196  1.0015 -0.4273
19746TIP3   OH280652   3.509   6.448   2.732  0.2494  0.5209  0.1616
19746TIP3    H180653   3.543   6.435   2.821  0.4226 -1.2183 -0.1316
19746TIP3    H280654   3.498   6.360   2.697  2.2937  1.1376 -2.3578
19747TIP3   OH280655   4.837   6.566  12.550 -0.3527  0.6695  0.6258
19747TIP3    H180656   4.873   6.560  12.461  0.7330  2.1772  0.9292
19747TIP3    H280657   4.752   6.608  12.539 -0.5598  0.1553  0.2309
19748TIP3   OH280658   6.474   5.751   3.280 -0.2664  0.7387  0.0539
19748TIP3    H180659   6.393   5.699   3.276  1.1916 -1.6232 -3.2462
19748TIP3    H280660   6.448   5.837   3.248 -1.6819  0.3286  0.0016
19749TIP3   OH280661   2.684   3.301   3.721 -0.1797  0.2061 -0.6969
19749TIP3    H180662   2.614   3.367   3.716  0.5064  1.3047  1.9104
19749TIP3    H280663   2.639   3.219   3.739 -0.8981  0.9220  1.0808
19750TIP3   OH280664   6.646   5.126  16.996  0.3940  0.3367 -0.0242
19750TIP3    H180665   6.618   5.146  17.085 -0.1690 -0.8976  0.0952
19750TIP3    H280666   6.679   5.037  17.001 -1.0285 -0.2937 -1.3468
19751TIP3   OH280667   3.610   2.698   5.018 -0.1107  0.2737  0.4375
19751TIP3    H180668   3.691   2.678   4.971 -0.5370 -0.4111 -0.0142
19751TIP3    H280669   3.595   2.623   5.075 -1.4276 -0.5022 -0.8677
19752TIP3   OH280670   1.034   0.089  13.995 -0.6177  0.3367 -0.3754
19752TIP3    H180671   1.020   0.058  13.905  0.4876 -1.1158 -0.0847
19752TIP3    H280672   1.088   0.167  13.985  1.3467 -1.0175 -0.9400
19753TIP3   OH280673   1.476   6.766   3.745 -0.1433 -0.1318  0.5588
19753TIP3    H180674   1.488   6.695   3.808 -0.8332 -0.0076  0.8490
19753TIP3    H280675   1.466   6.723   3.661  4.1886 -0.2104 -0.1356
19754TIP3   OH280676   6.250   2.148  15.873  0.3426 -0.5822  0.1002
19754TIP3    H180677   6.260   2.161  15.967  1.5059  0.2582 -0.1201
19754TIP3    H280678   6.174   2.201  15.849  0.7503  0.1359  0.3827
19755TIP3   OH280679   5.076   1.023   1.317 -0.1852  0.1255  0.2895
19755TIP3    H180680   5.121   0.945   1.285 -0.0565  0.7866 -1.2615
19755TIP3    H280681   5.139   1.066   1.373  0.3667 -0.0248 -0.2014
19756TIP3   OH280682   5.473   4.885  16.523  0.1734 -0.3532  0.2716
19756TIP3    H180683   5.568   4.877  16.516  0.1217 -1.0567  0.2200
19756TIP3    H280684   5.447   4.807  16.573 -0.4213 -0.4573 -0.1937
19757TIP3   OH280685   2.915   4.432   4.830 -0.1922 -0.0389 -0.2690
19757TIP3    H180686   2.942   4.355   4.780  1.5219  0.9444 -0.9305
19757TIP3    H280687   2.983   4.442   4.897  0.3371  1.6524 -1.0293
19758TIP3   OH280688   5.678   4.380   2.292 -0.3353  0.2049 -0.3282
19758TIP3    H180689   5.752   4.386   2.233  2.0531 -0.4669  2.3653
19758TIP3    H280690   5.675   4.287   2.317 -3.7622 -0.3700 -2.1925
19759TIP3   OH280691   4.602   5.416   5.785 -0.3711 -0.0921  0.3192
19759TIP3    H180692   4.614   5.442   5.876  2.0263  2.5876 -0.6171
19759TIP3    H280693   4.673   5.354   5.768 -0.0243  0.3986 -0.0409
19760TIP3   OH280694   0.310   4.505  15.770 -0.2654 -0.7836  0.3104
19760TIP3    H180695   0.272   4.535  15.687 -1.5508 -1.0883  0.7573
19760TIP3    H280696   0.381   4.566  15.789  2.1171 -2.4035 -2.4994
19761TIP3   OH280697   0.224   3.800  14.223 -0.1290  0.1253 -0.6672
19761TIP3    H180698   0.316   3.776  14.234 -0.5480 -1.1673  0.2205
19761TIP3    H280699   0.214   3.882  14.272  0.5725  0.3573 -0.9020
19762TIP3   OH280700   3.711   5.101   5.357  0.1803  0.0164  0.4975
19762TIP3    H180701   3.674   5.054   5.432  0.2069 -1.7294 -0.5208
19762TIP3    H280702   3.635   5.124   5.304  0.2889 -0.3450  0.1839
19763TIP3   OH280703   1.621   3.628  12.392 -0.2310  0.2649  0.7921
19763TIP3    H180704   1.586   3.672  12.315  0.4402 -1.5692 -0.6214
19763TIP3    H280705   1.678   3.560  12.357  0.6207 -0.2013  2.9345
19764TIP3   OH280706   5.563   1.028  16.941 -0.3295 -0.7341  0.4327
19764TIP3    H180707   5.567   1.088  17.015 -1.2074  1.4842 -1.2072
19764TIP3    H280708   5.655   1.016  16.914 -0.1454 -0.0503  0.7442
19765TIP3   OH280709   6.056   2.873   3.242  0.4446  0.1705  0.0101
19765TIP3    H180710   6.029   2.929   3.315 -0.0818  1.1165 -0.8805
19765TIP3    H280711   6.151   2.864   3.252  0.7106  2.1025 -0.3962
19766TIP3   OH280712   1.717   2.978  14.919  0.0632 -0.0922  0.1985
19766TIP3    H180713   1.779   3.014  14.982 -1.0659 -0.1928  1.4041
19766TIP3    H280714   1.743   3.016  14.835  3.1637 -1.8770  0.1993
19767TIP3   OH280715   3.672   3.739  12.322  0.1134 -0.5882  0.2190
19767TIP3    H180716   3.659   3.774  12.410  0.2617 -0.5194  0.2123
19767TIP3    H280717   3.762   3.763  12.299  0.7918 -2.3000  0.8384
19768TIP3   OH280718   0.765   3.789  13.988 -0.1472  0.1800  0.8027
19768TIP3    H180719   0.697   3.723  14.003 -0.4736  0.1777 -0.5980
19768TIP3    H280720   0.808   3.762  13.907  0.9511  0.6765  1.1921
19769TIP3   OH280721   1.593   4.585  15.338 -0.4516  0.1364 -0.5511
19769TIP3    H180722   1.687   4.597  15.348 -0.2099 -1.3452 -0.7727
19769TIP3    H280723   1.569   4.641  15.264  0.3820  0.0327 -0.9093
19770TIP3   OH280724   6.002   3.935   2.787 -0.2979  0.1222 -1.0288
19770TIP3    H180725   6.062   3.907   2.717  1.7885  2.6536 -0.4176
19770TIP3    H280726   5.947   4.001   2.745 -0.8088 -0.2070 -0.8860
19771TIP3   OH280727   0.709   6.506   5.543  0.3210 -0.3046  0.6724
19771TIP3    H180728   0.788   6.559   5.548 -0.7954  1.7138 -1.2315
19771TIP3    H280729   0.641   6.560   5.584 -0.5131 -0.9741  0.2194
19772TIP3   OH280730   0.265   2.461  12.821 -0.3103 -0.3487  0.1229
19772TIP3    H180731   0.360   2.469  12.822 -0.3434  0.0095  0.8802
19772TIP3    H280732   0.236   2.536  12.769 -0.2065 -0.0941  0.4286
19773TIP3   OH280733   0.350   2.224  12.973  0.2796 -0.3047  0.4836
19773TIP3    H180734   0.361   2.294  12.909 -2.2326 -1.7972 -1.8036
19773TIP3    H280735   0.323   2.269  13.053 -3.6306  1.4652 -1.5172
19774TIP3   OH280736   3.738   1.875  11.274  0.2729  0.3495 -0.1329
19774TIP3    H180737   3.705   1.819  11.344 -1.3351  0.6364 -0.6275
19774TIP3    H280738   3.826   1.900  11.302 -0.6138  1.1043  2.1796
19775TIP3   OH280739   1.886   2.826   4.197  0.2482  0.4449  0.8812
19775TIP3    H180740   1.834   2.863   4.268 -0.3638  0.5697  0.3770
19775TIP3    H280741   1.904   2.736   4.225  0.4476  0.6544  1.4260
19776TIP3   OH280742   4.038   6.652   0.982 -0.2340 -0.2438 -0.2189
19776TIP3    H180743   4.115   6.604   1.014 -0.6558  0.2416  1.6753
19776TIP3    H280744   3.965   6.592   0.997 -0.9061  1.1720  3.0732
19777TIP3   OH280745   4.880   5.737  15.846  0.2233 -0.2836 -0.3084
19777TIP3    H180746   4.831   5.689  15.778  0.0431 -0.9958  0.3070
19777TIP3    H280747   4.832   5.719  15.927  0.5562  0.3898  0.0442
19778TIP3   OH280748   0.460   6.674  15.031  0.2769 -0.0793  0.4892
19778TIP3    H180749   0.403   6.720  15.092  0.1247 -0.6222  0.7607
19778TIP3    H280750   0.438   6.710  14.945  0.5814  0.7768  0.7658
19779TIP3   OH280751   6.318   0.291   3.164 -0.1288  0.1887 -0.4246
19779TIP3    H180752   6.226   0.290   3.140  0.1078  0.7288 -1.4362
19779TIP3    H280753   6.359   0.226   3.106  0.2055  0.3566 -0.3825
19780TIP3   OH280754   5.249   3.920  11.858  1.3727 -0.6703 -0.2075
19780TIP3    H180755   5.170   3.972  11.870  0.1538 -2.2280 -1.0997
19780TIP3    H280756   5.319   3.974  11.895 -0.0691  0.8019  0.5105
19781TIP3   OH280757   0.389   6.087   2.129  0.2866  0.1421 -0.7384
19781TIP3    H180758   0.400   6.082   2.224  0.1530 -1.5173 -0.7824
19781TIP3    H280759   0.473   6.058   2.093  0.1689  0.2886 -1.1399
19782TIP3   OH280760   1.047   3.251   4.205 -0.7051  0.2349 -0.1044
19782TIP3    H180761   0.998   3.327   4.172 -0.4198  1.3352  1.8541
19782TIP3    H280762   1.059   3.196   4.128 -2.6725  1.2024 -1.2061
19783TIP3   OH280763   0.174   6.323  12.618 -0.3631 -0.0051 -0.1583
19783TIP3    H180764   0.251   6.379  12.618  0.0706 -0.5455  1.0885
19783TIP3    H280765   0.140   6.327  12.529  0.0146  1.7190 -0.2628
19784TIP3   OH280766   3.314   6.771   2.233 -0.0432 -0.2451  0.8308
19784TIP3    H180767   3.220   6.754   2.241 -0.4729  1.6808  0.3911
19784TIP3    H280768   3.319   6.845   2.173  1.7949 -0.5593  0.5550
19785TIP3   OH280769   5.397   3.042   1.705 -0.0702 -0.1148  0.3479
19785TIP3    H180770   5.340   2.976   1.745 -1.5625  1.1812  0.4756
19785TIP3    H280771   5.485   3.020   1.736 -0.3707 -2.5145 -0.2880
19786TIP3   OH280772   2.848   4.250   3.684  0.2398 -0.1072  0.3706
19786TIP3    H180773   2.827   4.254   3.591  0.4376 -2.3671  0.1685
19786TIP3    H280774   2.768   4.280   3.728 -0.4879 -0.7409 -0.5073
19787TIP3   OH280775   2.507   6.426  15.587  0.5625 -0.6379 -0.8726
19787TIP3    H180776   2.557   6.427  15.668 -1.1559  0.6629  0.2653
19787TIP3    H280777   2.569   6.398  15.520  2.1933 -1.1665  0.7816
19788TIP3   OH280778   1.663   1.061   1.480  1.2213  0.2719 -0.3100
19788TIP3    H180779   1.697   1.003   1.412  2.5712 -1.2870  1.5748
19788TIP3    H280780   1.735   1.123   1.496  1.0321  0.4377 -0.0878
19789TIP3   OH280781   2.952   6.623  16.235 -0.3767 -0.3278 -0.2017
19789TIP3    H180782   2.994   6.592  16.155 -1.7948 -1.0252 -0.7157
19789TIP3    H280783   2.859   6.623  16.215 -0.8855 -1.6016  1.8012
19790TIP3   OH280784   6.726   6.232   2.246  0.1165 -0.5671  0.1076
19790TIP3    H180785   6.714   6.184   2.329 -1.5530 -0.0502  0.2068
19790TIP3    H280786   6.639   6.231   2.206  0.8539 -0.6070 -1.5486
19791TIP3   OH280787   1.789   6.602  14.729  0.4799 -0.6121 -0.1140
19791TIP3    H180788   1.850   6.540  14.688  0.1437 -0.0792 -1.4643
19791TIP3    H280789   1.727   6.624  14.660 -1.3676 -1.2526  1.2580
19792TIP3   OH280790   4.278   6.084  13.187 -0.4098 -0.1494 -0.1553
19792TIP3    H180791   4.368   6.060  13.210 -0.3888  1.3187  1.4688
19792TIP3    H280792   4.279   6.179  13.180 -1.8825 -0.0855  0.1288
19793TIP3   OH280793   6.146   0.159   2.447 -0.3338  0.1184 -0.6072
19793TIP3    H180794   6.193   0.096   2.392  2.8233  1.6537  0.1148
19793TIP3    H280795   6.187   0.243   2.429 -1.0437  1.1442  2.0510
19794TIP3   OH280796   3.188   6.599   2.554 -0.1748 -0.5044  0.2721
19794TIP3    H180797   3.275   6.636   2.566  0.2050 -0.8059 -1.3285
19794TIP3    H280798   3.150   6.598   2.642 -0.3123  3.7487  0.4697
19795TIP3   OH280799   5.169   6.528   0.703 -0.2210 -0.1744 -0.4812
19795TIP3    H180800   5.218   6.502   0.782  1.0766  0.4749 -1.0521
19795TIP3    H280801   5.153   6.445   0.657 -0.2427 -0.4639  0.0329
19796TIP3   OH280802   0.072   1.493  15.668 -0.3154  0.2337  0.1065
19796TIP3    H180803   0.066   1.529  15.579 -0.2517 -0.2585 -0.0985
19796TIP3    H280804   0.123   1.413  15.657  1.8533  1.4114  0.9369
19797TIP3   OH280805   0.269   4.581  12.235  0.0076 -0.2037  0.3289
19797TIP3    H180806   0.178   4.604  12.252 -0.8082 -1.4055 -1.9518
19797TIP3    H280807   0.312   4.664  12.216  0.2368  0.7932  4.3863
19798TIP3   OH280808   5.224   4.885  14.449 -0.1306 -0.4639 -0.2988
19798TIP3    H180809   5.158   4.887  14.519  0.8040  1.1932  0.6018
19798TIP3    H280810   5.264   4.799  14.457 -0.7463 -0.6921  0.5312
19799TIP3   OH280811   6.575   1.080  10.918 -0.3761  0.2861  0.0403
19799TIP3    H180812   6.648   1.121  10.871  1.2661 -0.8898  1.4248
19799TIP3    H280813   6.609   0.994  10.943 -2.5483 -0.6306  0.0468
19800TIP3   OH280814   5.481   4.524  15.210 -0.3544 -0.1660  0.4880
19800TIP3    H180815   5.388   4.547  15.219 -0.8634 -1.4805 -0.9693
19800TIP3    H280816   5.527   4.592  15.259 -2.0283  1.0450  0.4753
19801TIP3   OH280817   2.698   3.449  11.306  0.0669 -0.7689 -0.3236
19801TIP3    H180818   2.738   3.452  11.219 -0.0363  0.4274 -0.3379
19801TIP3    H280819   2.772   3.457  11.366 -0.0244  0.3136 -0.3373
19802TIP3   OH280820   1.242   4.133  12.431  0.3501  0.0839 -0.2511
19802TIP3    H180821   1.179   4.077  12.386 -0.3196 -0.5965  1.4685
19802TIP3    H280822   1.188   4.195  12.480  0.9916 -0.6822  1.4716
19803TIP3   OH280823   4.130   3.827  15.591  0.1421  0.0289 -0.0522
19803TIP3    H180824   4.131   3.753  15.651 -2.0986  1.1555  1.5489
19803TIP3    H280825   4.057   3.809  15.532  1.1065 -0.1510 -1.2111
19804TIP3   OH280826   2.630   3.874   6.318 -0.0194 -0.6184  0.6120
19804TIP3    H180827   2.570   3.814   6.362  0.7425 -0.4230  1.9809
19804TIP3    H280828   2.714   3.863   6.364  1.0549 -0.9698 -1.2973
19805TIP3   OH280829   1.569   5.367  16.977  0.4009 -0.3438 -0.4735
19805TIP3    H180830   1.482   5.369  16.935 -0.6165 -1.1673  1.4758
19805TIP3    H280831   1.580   5.275  17.003  0.7171  0.2334  1.5438
19806TIP3   OH280832   3.841   5.327   0.497  0.1096 -0.5573  0.2685
19806TIP3    H180833   3.781   5.401   0.489  1.8851  1.1163  1.6380
19806TIP3    H280834   3.867   5.308   0.407  0.5884  1.3253 -0.0106
19807TIP3   OH280835   3.012   0.152  11.698  0.1968  0.0393  0.0603
19807TIP3    H180836   2.962   0.173  11.620 -0.1375 -1.3969 -0.1379
19807TIP3    H280837   3.050   0.236  11.726  0.4164  0.5510 -1.6847
19808TIP3   OH280838   2.247   0.477   2.147  0.2347  0.4406 -0.2670
19808TIP3    H180839   2.272   0.564   2.176  2.1224  0.2531 -1.1851
19808TIP3    H280840   2.330   0.434   2.124 -0.7345 -1.2137 -0.8828
19809TIP3   OH280841   5.282   5.048   5.747  0.0755 -0.2516  0.4942
19809TIP3    H180842   5.232   5.058   5.828  0.2706 -0.7463  0.6753
19809TIP3    H280843   5.228   5.090   5.680 -0.1512  0.0321  0.8540
19810TIP3   OH280844   0.047   2.738  16.043  0.1209 -0.5040  0.6438
19810TIP3    H180845  -0.015   2.665  16.041 -0.3290 -0.1355  0.8810
19810TIP3    H280846   0.020   2.790  16.118 -1.3830  1.4734 -1.1573
19811TIP3   OH280847   1.937   4.554  16.285 -0.9889  0.3426  0.3018
19811TIP3    H180848   1.904   4.477  16.331  3.0539 -1.9286 -0.0395
19811TIP3    H280849   1.993   4.599  16.349  1.4216 -0.5375 -1.0313
19812TIP3   OH280850   6.220   1.893  15.777  0.5281  0.0193  0.2992
19812TIP3    H180851   6.254   1.981  15.795  0.7164 -0.3485  1.8740
19812TIP3    H280852   6.186   1.863  15.861  0.0913 -1.2649 -0.3157
19813TIP3   OH280853   1.110   6.296  17.157 -0.4224 -0.1655  0.5719
19813TIP3    H180854   1.030   6.324  17.112 -0.0158  0.8867  0.4735
19813TIP3    H280855   1.167   6.373  17.154  1.7235 -1.6602 -1.8321
19814TIP3   OH280856   4.493   1.813   4.395 -1.2699  0.5658 -0.3856
19814TIP3    H180857   4.470   1.815   4.488  1.5773  0.6218  0.4301
19814TIP3    H280858   4.529   1.900   4.377  1.5112 -0.4789 -0.4663
19815TIP3   OH280859   5.296   5.277  12.789 -0.3005  0.0189 -0.5303
19815TIP3    H180860   5.304   5.186  12.816 -3.1038 -0.0899  0.2522
19815TIP3    H280861   5.299   5.327  12.871 -0.3740  0.4729 -0.7982
19816TIP3   OH280862   0.941   0.389  13.710 -0.4323  0.1042 -0.1308
19816TIP3    H180863   0.879   0.373  13.781  0.4583 -1.4438  0.3499
19816TIP3    H280864   0.948   0.484  13.704 -1.2148  0.2672  1.2352
19817TIP3   OH280865   5.988   1.755  14.758  0.9329  0.0095  0.1532
19817TIP3    H180866   5.971   1.685  14.696  0.9444 -0.1125  0.2880
19817TIP3    H280867   5.920   1.745  14.825  0.3723  0.6806 -0.2956
19818TIP3   OH280868   4.990   2.240   5.442  0.0435  0.1241 -0.0773
19818TIP3    H180869   4.961   2.152   5.463 -1.9989  1.0133  1.1037
19818TIP3    H280870   4.980   2.246   5.347 -0.3366 -0.7226 -0.0968
19819TIP3   OH280871   1.087   2.646   4.257 -0.4608  0.2226  0.0809
19819TIP3    H180872   1.001   2.627   4.220  0.1942 -0.0483 -1.3873
19819TIP3    H280873   1.135   2.564   4.250 -0.6207 -0.1773  2.6377
19820TIP3   OH280874   6.422   2.194   3.730 -0.0063 -0.5077 -0.3103
19820TIP3    H180875   6.329   2.215   3.723 -0.4561 -1.9121  0.8484
19820TIP3    H280876   6.460   2.267   3.778 -0.7134 -0.3696  0.0580
19821TIP3   OH280877   2.079   0.985   1.926  0.0780  0.0582  0.5782
19821TIP3    H180878   2.162   0.952   1.891  0.9573  0.8125  1.8628
19821TIP3    H280879   2.057   1.058   1.869  0.8956  0.5510  0.8708
19822TIP3   OH280880   2.916   1.064   4.223  0.1532  0.4833  0.0215
19822TIP3    H180881   2.959   1.000   4.166 -0.1032 -0.1935  0.5734
19822TIP3    H280882   2.957   1.148   4.200  1.7062 -0.1135  0.4544
19823TIP3   OH280883   2.490   3.884  11.541  0.5799 -0.1122 -0.0841
19823TIP3    H180884   2.573   3.931  11.548  0.4598 -0.0540  1.0800
19823TIP3    H280885   2.438   3.915  11.615  0.4723 -2.0472  0.7073
19824TIP3   OH280886   6.378   1.967  13.410  0.2881  0.7410 -0.5438
19824TIP3    H180887   6.340   2.009  13.333 -0.3595  1.6130  0.2239
19824TIP3    H280888   6.304   1.923  13.452  0.4212  1.1531  0.1341
19825TIP3   OH280889   0.204   5.711  12.336  0.5492 -0.3776 -0.3820
19825TIP3    H180890   0.236   5.758  12.259 -3.9118 -1.9632 -3.6316
19825TIP3    H280891   0.213   5.618  12.313 -1.9734 -0.8788  0.3437
19826TIP3   OH280892   2.198   4.603  11.734  0.3052 -0.2047 -0.1953
19826TIP3    H180893   2.262   4.595  11.664  1.4661 -2.2130  0.9898
19826TIP3    H280894   2.162   4.691  11.725  0.0936 -0.5269 -3.5143
19827TIP3   OH280895   3.321   2.173   1.633 -0.7439 -0.2971  0.3921
19827TIP3    H180896   3.401   2.225   1.646 -0.7976 -0.0727 -0.1535
19827TIP3    H280897   3.310   2.126   1.716  0.2166 -0.6927  0.3125
19828TIP3   OH280898   3.173   0.544   5.502  1.0461 -0.2361 -0.7074
19828TIP3    H180899   3.178   0.590   5.418  2.3685 -0.8366 -0.9771
19828TIP3    H280900   3.118   0.467   5.484 -0.2546  0.6074 -0.5217
19829TIP3   OH280901   3.094   5.612   0.560  0.0363 -0.7492 -0.2049
19829TIP3    H180902   3.179   5.572   0.541  0.3936  1.5908 -4.8171
19829TIP3    H280903   3.114   5.678   0.627  1.4727 -1.3928  0.0422
19830TIP3   OH280904   5.206   0.378   5.319  0.4631 -0.0029  0.0356
19830TIP3    H180905   5.160   0.462   5.318 -0.8259 -0.6372 -2.2885
19830TIP3    H280906   5.297   0.401   5.335  0.0439  1.7654  0.1447
19831TIP3   OH280907   4.916   4.521  12.470  0.1112 -0.3496  0.0027
19831TIP3    H180908   4.960   4.545  12.552 -1.6176  1.7271  0.4269
19831TIP3    H280909   4.865   4.443  12.492 -3.7525  2.4556  2.3926
19832TIP3   OH280910   2.885   1.788   1.035  0.0058 -0.9146 -0.2879
19832TIP3    H180911   2.937   1.795   1.115  0.3507  2.0371 -0.6343
19832TIP3    H280912   2.794   1.799   1.063  0.1465  0.3844 -0.2586
19833TIP3   OH280913   5.435   2.211   2.321  0.0595 -0.3176 -0.1993
19833TIP3    H180914   5.380   2.146   2.277  2.1312 -0.8310 -2.2494
19833TIP3    H280915   5.374   2.266   2.369 -2.4954  0.3137 -3.7581
19834TIP3   OH280916   4.653   5.704   2.354 -0.1367  0.3829  0.1243
19834TIP3    H180917   4.618   5.779   2.306 -0.1179 -0.3838 -1.1382
19834TIP3    H280918   4.682   5.740   2.438 -1.8720  1.4473  0.3333
19835TIP3   OH280919   0.269   6.551  15.409 -0.4050 -0.1513 -0.0459
19835TIP3    H180920   0.267   6.525  15.501 -0.3986 -1.2791 -0.3503
19835TIP3    H280921   0.319   6.482  15.366 -1.4815 -0.3050 -1.1045
19836TIP3   OH280922   1.701   4.714  12.127  0.0876  0.0516 -0.2350
19836TIP3    H180923   1.650   4.665  12.192  0.5403  0.6573  0.5928
19836TIP3    H280924   1.636   4.757  12.072 -0.3092  0.8263  0.8201
19837TIP3   OH280925   6.769   4.427  11.315  0.5495  0.1817 -0.5765
19837TIP3    H180926   6.681   4.463  11.329  0.4267  0.2656 -1.5062
19837TIP3    H280927   6.827   4.487  11.363 -0.0683 -1.3060  2.2705
19838TIP3   OH280928   2.434   1.985   1.347 -0.8800  0.4061  0.2222
19838TIP3    H180929   2.521   1.973   1.386  0.5956  1.8856 -2.3643
19838TIP3    H280930   2.383   1.912   1.381  1.5571 -0.9196  1.3031
19839TIP3   OH280931   2.840   6.479  10.976 -0.0641  0.3442 -0.1431
19839TIP3    H180932   2.768   6.419  10.996  0.2813  0.0336  0.1987
19839TIP3    H280933   2.885   6.490  11.060 -0.4664  1.5371 -0.0789
19840TIP3   OH280934   4.689   4.046   1.281  0.0362 -0.3722  0.1388
19840TIP3    H180935   4.705   3.999   1.199 -0.6762 -2.4149  1.0863
19840TIP3    H280936   4.701   4.138   1.259  0.8629 -0.9249 -2.0026
19841TIP3   OH280937   1.490   2.903   1.561 -0.2815  0.0129  0.7296
19841TIP3    H180938   1.510   2.945   1.478  0.8977  0.9486  1.4476
19841TIP3    H280939   1.510   2.969   1.627 -2.2653 -0.3277  1.7267
19842TIP3   OH280940   3.959   4.172  11.282 -0.3957 -0.5472 -0.5817
19842TIP3    H180941   3.986   4.149  11.371 -1.0626  0.4697 -0.1063
19842TIP3    H280942   4.038   4.160  11.230 -0.1109 -1.6046  0.0465
19843TIP3   OH280943   2.584   0.607  11.120 -0.0950 -0.0203 -0.3394
19843TIP3    H180944   2.636   0.566  11.050  0.0220  0.5586 -0.5970
19843TIP3    H280945   2.629   0.689  11.139 -1.1080  0.6796 -0.8270
19844TIP3   OH280946   3.776   1.761  15.056  0.3578  0.1929 -0.0275
19844TIP3    H180947   3.779   1.747  14.962 -1.6490 -0.6778 -0.0068
19844TIP3    H280948   3.867   1.781  15.080  0.4838  3.5956 -2.5518
19845TIP3   OH280949   4.318   3.602   3.249 -0.7265 -0.0875  0.0624
19845TIP3    H180950   4.386   3.649   3.202  0.2678 -0.3580  1.1857
19845TIP3    H280951   4.314   3.516   3.205  0.4699 -0.4841  0.6874
19846TIP3   OH280952   2.979   6.234  14.213 -0.4870 -0.3060  0.4518
19846TIP3    H180953   2.965   6.149  14.256  1.0346 -0.2570  1.0955
19846TIP3    H280954   3.057   6.269  14.254  1.4768 -0.5198 -2.7490
19847TIP3   OH280955   0.975   5.326   6.179  0.8461 -0.3700 -0.5754
19847TIP3    H180956   0.898   5.294   6.226 -1.0001  0.4433 -2.8285
19847TIP3    H280957   1.049   5.304   6.236 -0.9996 -1.3786  1.6065
19848TIP3   OH280958   6.735   1.819   1.302 -0.4053 -0.1713  0.2801
19848TIP3    H180959   6.641   1.816   1.283 -0.3455  0.0687 -0.0520
19848TIP3    H280960   6.740   1.812   1.398 -0.6982 -1.5700  0.2267
19849TIP3   OH280961   2.816   2.680   3.266  0.0739 -0.3021 -0.8206
19849TIP3    H180962   2.854   2.728   3.339 -1.8076  0.2676 -0.1718
19849TIP3    H280963   2.854   2.721   3.188 -0.4861  1.4044 -0.2408
19850TIP3   OH280964   3.992   1.155  16.167  0.3757  0.1812  0.9029
19850TIP3    H180965   4.018   1.196  16.250  1.4743  0.0797  0.6200
19850TIP3    H280966   3.897   1.145  16.174  0.5411 -0.6450  2.5382
19851TIP3   OH280967   0.665   5.069   3.039 -0.5071 -0.1584  0.8002
19851TIP3    H180968   0.682   4.975   3.052  0.8750  0.2510  2.2168
19851TIP3    H280969   0.746   5.102   2.999 -0.2030  0.7753  2.1530
19852TIP3   OH280970   5.364   3.332  15.559  0.2497  0.0197 -0.0018
19852TIP3    H180971   5.335   3.242  15.545  0.5928 -0.1061  0.0824
19852TIP3    H280972   5.439   3.343  15.500  0.4388  0.1308  0.2550
19853TIP3   OH280973   5.667   1.397   4.369 -0.1136  0.6269 -0.7185
19853TIP3    H180974   5.606   1.427   4.437 -0.0784 -0.0196 -0.3992
19853TIP3    H280975   5.731   1.469   4.362 -1.9383  2.2047 -2.4181
19854TIP3   OH280976   4.343   2.750  15.141 -0.4585 -0.1387 -0.0829
19854TIP3    H180977   4.296   2.831  15.163 -1.5338 -0.6366 -0.4791
19854TIP3    H280978   4.278   2.696  15.096  0.0452 -1.5188  0.8000
19855TIP3   OH280979   1.156   6.059   5.082  0.2160  0.4212 -0.1198
19855TIP3    H180980   1.243   6.022   5.069  0.3599  0.2982  1.1103
19855TIP3    H280981   1.106   5.989   5.123  0.2207  1.2309  1.3446
19856TIP3   OH280982   1.444   5.724   6.320  0.3420  0.1901 -0.5538
19856TIP3    H180983   1.374   5.778   6.284 -0.1657  1.8769  2.6539
19856TIP3    H280984   1.404   5.638   6.333  0.2065 -0.1233 -2.6624
19857TIP3   OH280985   5.671   0.657  16.183  0.1306  0.3941 -0.2821
19857TIP3    H180986   5.613   0.597  16.229 -0.1852  1.8828  1.3667
19857TIP3    H280987   5.614   0.725  16.148  0.5630  0.1734 -1.4925
19858TIP3   OH280988   3.737   5.485  12.395 -0.4787  0.3271  0.1779
19858TIP3    H180989   3.654   5.502  12.352  0.1031  0.0626 -1.0876
19858TIP3    H280990   3.764   5.399  12.363  0.5547  0.6602  0.1110
19859TIP3   OH280991   6.235   1.482  13.040 -0.0489  0.0592 -0.2302
19859TIP3    H180992   6.159   1.539  13.028  0.1828  0.7861  1.4015
19859TIP3    H280993   6.307   1.542  13.061  0.3127 -0.7786  1.0700
19860TIP3   OH280994   2.477   2.781  12.486  0.0639  0.4526  0.0582
19860TIP3    H180995   2.559   2.831  12.493  0.6881 -0.7255  2.0397
19860TIP3    H280996   2.416   2.827  12.544 -0.7905  1.4443 -1.5714
19861TIP3   OH280997   0.525   1.702   0.477  0.0782 -0.0417 -0.2126
19861TIP3    H180998   0.476   1.637   0.527  0.9128 -0.1495  0.5029
19861TIP3    H280999   0.563   1.653   0.404  0.1204 -0.2094 -0.0779
19862TIP3   OH281000   4.722   6.751   0.093  0.0235  0.5344  0.5166
19862TIP3    H181001   4.761   6.711   0.171 -0.1523 -0.3953  0.1424
19862TIP3    H281002   4.629   6.763   0.116  0.2039  1.3740  0.8679
19863TIP3   OH281003   1.257   4.225   4.106  0.2938 -0.2415 -0.6133
19863TIP3    H181004   1.323   4.293   4.118  0.2948  0.1121 -2.3816
19863TIP3    H281005   1.301   4.158   4.053  0.5811 -2.0976  1.7998
19864TIP3   OH281006   3.344   0.233   4.949  0.2535 -0.4282  0.4213
19864TIP3    H181007   3.394   0.250   5.029  2.1925 -0.2840 -0.7523
19864TIP3    H281008   3.300   0.150   4.965  0.6202 -0.4032  1.6241
19865TIP3   OH281009   2.195   5.389  12.916 -0.1653 -0.5249 -0.2515
19865TIP3    H181010   2.220   5.374  12.824 -1.1937 -2.2399 -0.2992
19865TIP3    H281011   2.152   5.307  12.942  0.0031 -0.0244  1.7358
19866TIP3   OH281012   4.861   5.504   6.816  0.1581 -0.4596 -0.5940
19866TIP3    H181013   4.784   5.554   6.788 -0.1397  1.2702  2.8100
19866TIP3    H281014   4.934   5.564   6.803  0.2368 -0.2812  0.5616
19867TIP3   OH281015   6.450   0.118   2.613  0.4499 -0.6840  0.2608
19867TIP3    H181016   6.422   0.170   2.537  3.1653 -0.6649 -0.8196
19867TIP3    H281017   6.436   0.177   2.688 -0.5149 -0.0058 -0.4271
19868TIP3   OH281018   1.044   5.798   4.147  0.4155  0.8474  0.9088
19868TIP3    H181019   0.978   5.748   4.194 -0.9961  0.6738 -1.0974
19868TIP3    H281020   1.128   5.771   4.185 -0.5123 -0.7717  1.8901
19869TIP3   OH281021   2.627   5.315  11.066  0.0442 -0.0073 -0.2481
19869TIP3    H181022   2.650   5.244  11.006  0.4860  0.5861 -0.8032
19869TIP3    H281023   2.542   5.346  11.036  0.3126  0.3576 -0.6421
19870TIP3   OH281024   2.865   0.989  14.211 -0.1823 -0.0504 -0.0733
19870TIP3    H181025   2.925   0.949  14.273  0.1710 -0.6487 -0.7884
19870TIP3    H281026   2.804   0.919  14.187 -0.3946  0.2092 -0.3049
19871TIP3   OH281027   0.623   5.959   5.356 -0.2556  0.3894  0.3551
19871TIP3    H181028   0.618   6.054   5.356  1.7115  0.6276 -2.4936
19871TIP3    H281029   0.693   5.938   5.418 -0.9486  0.7518  1.2677
19872TIP3   OH281030   4.825   3.128   3.733  0.3876 -0.0269  0.0062
19872TIP3    H181031   4.888   3.083   3.789 -0.2186  0.6635  1.2895
19872TIP3    H281032   4.740   3.108   3.772  0.0622  1.7790  0.3324
19873TIP3   OH281033   0.667   5.203  12.869 -0.0746  0.1648 -0.0485
19873TIP3    H181034   0.582   5.162  12.883 -0.0222 -0.1666 -0.6531
19873TIP3    H281035   0.648   5.297  12.865 -1.0420 -0.0332 -3.9622
19874TIP3   OH281036   0.408   5.731   4.167  0.3823 -0.3729 -0.4795
19874TIP3    H181037   0.497   5.767   4.166  0.4815 -0.5081  1.0231
19874TIP3    H281038   0.351   5.807   4.158  0.6166  0.1222  1.6423
19875TIP3   OH281039   2.530   2.262  14.574 -0.1485  0.2142 -0.4703
19875TIP3    H181040   2.491   2.342  14.608  0.0343  0.7232 -1.4186
19875TIP3    H281041   2.567   2.219  14.651  0.3976  1.4023 -0.0394
19876TIP3   OH281042   0.902   3.616  14.453 -0.8040  0.5255 -0.2395
19876TIP3    H181043   0.832   3.593  14.393 -1.3308  0.0765  0.5317
19876TIP3    H281044   0.876   3.577  14.537  1.8296 -2.4359 -0.6132
19877TIP3   OH281045   1.006   0.235  17.351 -0.2818  0.6491  0.0687
19877TIP3    H181046   0.925   0.212  17.397  0.0877 -0.7997  0.0270
19877TIP3    H281047   0.978   0.292  17.280 -1.2334  0.3345  0.1780
19878TIP3   OH281048   6.709   4.203  12.808  0.1256 -0.7325  0.0439
19878TIP3    H181049   6.757   4.151  12.874  1.0559  1.4413  1.1828
19878TIP3    H281050   6.618   4.198  12.836  0.0554 -2.3568 -0.3433
19879TIP3   OH281051   4.579   2.458   0.080  0.0455 -0.1827 -0.5548
19879TIP3    H181052   4.542   2.505   0.154 -0.0665  0.6224 -1.1103
19879TIP3    H281053   4.600   2.371   0.115 -1.0907 -0.2127  0.1230
19880TIP3   OH281054   3.362   2.451   4.502  0.5347 -0.0217  0.2921
19880TIP3    H181055   3.359   2.542   4.531  2.7975  0.1487  0.1307
19880TIP3    H281056   3.335   2.400   4.579  2.1033  0.6668  1.3566
19881TIP3   OH281057   2.413   4.713   4.173 -0.0572  0.1156 -0.1633
19881TIP3    H181058   2.430   4.619   4.182 -2.0220 -0.1154  2.1837
19881TIP3    H281059   2.326   4.718   4.132 -0.1013  0.9070  0.0140
19882TIP3   OH281060   6.265   6.741   2.319 -0.4326 -0.5426 -0.0643
19882TIP3    H181061   6.268   6.687   2.240  0.4077 -1.5319  0.6093
19882TIP3    H281062   6.309   6.688   2.386  0.5140  1.0127  0.6156
19883TIP3   OH281063   1.468   2.609  14.080 -0.0328  0.2561  1.2202
19883TIP3    H181064   1.402   2.559  14.128 -0.4155 -0.3813  0.0814
19883TIP3    H281065   1.510   2.545  14.022 -1.1289  1.3283 -0.9169
19884TIP3   OH281066   0.768   1.228  13.010  0.4358 -0.7412  0.3785
19884TIP3    H181067   0.820   1.308  13.011  0.4850 -0.7180 -1.6273
19884TIP3    H281068   0.829   1.160  13.038  0.8816 -0.3624  0.3430
19885TIP3   OH281069   1.436   6.060  11.512  0.3732  0.4639 -0.6635
19885TIP3    H181070   1.373   6.104  11.454 -2.3870  0.3260  1.9629
19885TIP3    H281071   1.498   6.018  11.452 -1.5303  1.2961 -3.4690
19886TIP3   OH281072   1.886   3.787   0.428 -0.2453  0.0152  0.0430
19886TIP3    H181073   1.886   3.859   0.492  0.9526  1.3315 -1.3538
19886TIP3    H281074   1.972   3.747   0.437 -1.3252 -2.1906  1.7009
19887TIP3   OH281075   1.789   0.356  12.329 -0.2203  0.2413 -0.1822
19887TIP3    H181076   1.818   0.355  12.420 -0.7402  2.0442  0.0517
19887TIP3    H281077   1.832   0.281  12.289 -0.5071 -0.9922  1.6941
19888TIP3   OH281078   1.375   0.024  16.039  0.4434  0.4397 -0.4517
19888TIP3    H181079   1.414  -0.052  15.996 -1.3407  0.2961 -1.9488
19888TIP3    H281080   1.377   0.003  16.132  0.2255 -1.3355 -0.8176
19889TIP3   OH281081   4.151   4.478  16.294 -0.8495  0.0319 -0.2806
19889TIP3    H181082   4.130   4.515  16.380  1.6924  0.9347  0.0538
19889TIP3    H281083   4.157   4.384  16.310 -2.5582 -0.0603 -0.0072
19890TIP3   OH281084   0.757   0.136   0.457 -0.6169  0.1132 -0.2342
19890TIP3    H181085   0.728   0.224   0.481 -1.2314 -0.9688  3.5443
19890TIP3    H281086   0.825   0.151   0.391 -0.6249  3.3803  0.3066
19891TIP3   OH281087   3.007   4.530  16.839  0.3478 -0.6382 -0.4901
19891TIP3    H181088   2.933   4.590  16.848  0.1982 -1.0188  1.0444
19891TIP3    H281089   3.022   4.496  16.927  2.1999 -0.7651 -0.8177
19892TIP3   OH281090   5.054   3.433  14.294 -0.0217  0.5435  0.0852
19892TIP3    H181091   4.963   3.405  14.302 -0.1140  1.2241  1.7256
19892TIP3    H281092   5.054   3.488  14.215 -1.5625  2.4074  1.2920
19893TIP3   OH281093   2.803   4.767   3.834 -0.2026 -0.1395 -0.0318
19893TIP3    H181094   2.718   4.789   3.872 -0.3835  0.1444 -0.5820
19893TIP3    H281095   2.807   4.819   3.753 -0.2842 -1.4976 -0.9456
19894TIP3   OH281096   1.139   0.540  11.094  0.2455 -0.1243 -0.0800
19894TIP3    H181097   1.071   0.493  11.142  0.3929 -1.1497 -0.8574
19894TIP3    H281098   1.093   0.615  11.055 -0.1042  0.0692  0.6684
19895TIP3   OH281099   3.648   2.345   5.887 -0.4036 -0.4794  0.7010
19895TIP3    H181100   3.733   2.327   5.845 -1.2157  1.8610 -2.3563
19895TIP3    H281101   3.654   2.436   5.915 -0.7453 -1.3358  3.8501
19896TIP3   OH281102   2.642   2.575   2.567  0.1149  0.2792 -0.9011
19896TIP3    H181103   2.569   2.585   2.506  1.7428 -0.8566 -3.1745
19896TIP3    H281104   2.716   2.550   2.513  1.2525 -2.8324  1.7529
19897TIP3   OH281105   4.314   1.248   2.922 -0.3544 -0.0575 -0.3627
19897TIP3    H181106   4.237   1.193   2.907 -1.4108  0.2520  3.1962
19897TIP3    H281107   4.298   1.326   2.868 -1.4345 -0.9045 -1.3209
19898TIP3   OH281108   1.465   1.014  15.315 -0.2840 -0.1838 -0.4982
19898TIP3    H181109   1.540   1.012  15.375  1.1808 -0.5981 -2.2512
19898TIP3    H281110   1.393   0.978  15.366  0.6245  0.4522  1.3411
19899TIP3   OH281111   4.588   4.521   4.669 -0.2168  0.0746  0.1826
19899TIP3    H181112   4.661   4.544   4.612 -2.0839  3.2388 -1.2250
19899TIP3    H281113   4.585   4.592   4.734 -0.6700 -1.2537  1.6899
19900TIP3   OH281114   0.754   5.203   4.660 -0.3352  0.3080  0.0092
19900TIP3    H181115   0.682   5.174   4.604  0.5725 -0.1133 -0.9641
19900TIP3    H281116   0.833   5.180   4.612  0.5936 -2.5138  2.5922
19901TIP3   OH281117   5.168   4.125   5.869  0.3269 -0.2223 -0.3726
19901TIP3    H181118   5.086   4.109   5.916  0.5499  0.1171  0.1323
19901TIP3    H281119   5.218   4.044   5.881  0.7478  0.1866  0.7320
19902TIP3   OH281120   5.165   5.269  14.697  0.2193 -0.0647 -0.2013
19902TIP3    H181121   5.190   5.234  14.612 -0.8941 -0.0538 -0.5537
19902TIP3    H281122   5.201   5.208  14.760 -0.0381 -0.7803 -0.7365
19903TIP3   OH281123   4.822   6.470  12.294  0.1003  0.3331 -0.2968
19903TIP3    H181124   4.786   6.383  12.304 -2.1841  0.5110 -4.6070
19903TIP3    H281125   4.914   6.456  12.271 -0.4291 -1.0862 -1.7324
19904TIP3   OH281126   4.494   3.129  11.191 -0.0396 -0.3709 -0.7039
19904TIP3    H181127   4.422   3.096  11.138 -0.3707  1.0901 -1.2160
19904TIP3    H281128   4.491   3.224  11.179  0.5316 -0.0847  1.1131
19905TIP3   OH281129   0.428   1.514   2.684  0.5108 -0.2270  0.1575
19905TIP3    H181130   0.445   1.481   2.595  1.1250  0.9587 -0.1842
19905TIP3    H281131   0.382   1.596   2.670  1.3434  0.3819  0.9149
19906TIP3   OH281132   5.609   1.855  12.070 -0.4653 -0.2020  0.3140
19906TIP3    H181133   5.576   1.779  12.117 -0.6870  0.6994  1.6558
19906TIP3    H281134   5.671   1.896  12.130 -0.6087  0.8715 -0.2376
19907TIP3   OH281135   1.507   3.693   1.425 -0.2528  0.1880 -0.4577
19907TIP3    H181136   1.439   3.761   1.422 -0.7083 -0.1959  0.6704
19907TIP3    H281137   1.584   3.738   1.460  0.1130  0.6295 -1.7596
19908TIP3   OH281138   2.830   6.714  11.802  0.3948 -0.3211  0.3847
19908TIP3    H181139   2.864   6.803  11.805 -0.0481 -0.1248 -0.3278
19908TIP3    H281140   2.760   6.712  11.867  0.4234 -0.1580  0.4196
19909TIP3   OH281141   1.967   1.629   2.702 -1.1239 -0.6892  0.5904
19909TIP3    H181142   2.010   1.675   2.630  0.2289 -2.9071 -0.1263
19909TIP3    H281143   1.886   1.595   2.664 -0.2287 -2.1867 -0.0855
19910TIP3   OH281144   1.690   6.108   3.923  0.0243 -0.6000 -0.1098
19910TIP3    H181145   1.638   6.096   4.002 -0.5661 -1.9211 -0.6619
19910TIP3    H281146   1.777   6.076   3.947  0.2032  0.2292  0.3788
19911TIP3   OH281147   0.124   2.506   3.723 -0.5569 -0.7970 -0.3807
19911TIP3    H181148   0.115   2.425   3.674 -0.4802 -0.9995 -0.0657
19911TIP3    H281149   0.183   2.484   3.795  1.3354  0.1452 -1.5840
19912TIP3   OH281150   5.184   1.596  15.036  0.0117 -0.1182 -0.8942
19912TIP3    H181151   5.152   1.686  15.031 -1.9917 -0.6546  0.7063
19912TIP3    H281152   5.117   1.545  14.990  1.2735 -0.8094 -2.0463
19913TIP3   OH281153   0.743   0.574   4.467 -0.2254 -0.0671  0.2112
19913TIP3    H181154   0.800   0.582   4.391  0.7031 -2.0368  0.6349
19913TIP3    H281155   0.794   0.611   4.539 -0.4667  0.3631  0.1628
19914TIP3   OH281156   6.190   4.936  15.058 -0.1286  0.0255 -0.3294
19914TIP3    H181157   6.242   5.016  15.060 -2.0600  1.3315  0.1177
19914TIP3    H281158   6.155   4.933  14.969  1.1431 -1.1877 -0.8259
19915TIP3   OH281159   4.129   4.338  15.789 -0.0563 -0.1269  0.2592
19915TIP3    H181160   4.156   4.249  15.765 -1.4781 -0.4381 -0.3280
19915TIP3    H281161   4.037   4.328  15.815 -0.3177  1.2128 -0.1114
19916TIP3   OH281162   0.338   4.112   4.657 -0.3175 -0.1756 -0.3038
19916TIP3    H181163   0.383   4.176   4.712  0.9340 -1.5135  0.2914
19916TIP3    H281164   0.248   4.111   4.690 -0.4154  1.3325 -0.4208
19917TIP3   OH281165   4.430   0.692   0.245  0.2330 -0.1180  0.5462
19917TIP3    H181166   4.444   0.658   0.334 -3.0878  0.8349  1.5831
19917TIP3    H281167   4.335   0.695   0.235  0.4398 -0.8724 -3.3944
19918TIP3   OH281168   4.273   0.243  16.060  0.3161  0.0913  0.0327
19918TIP3    H181169   4.183   0.274  16.060  0.0682 -0.5794 -0.8149
19918TIP3    H281170   4.271   0.165  16.115  0.3695  0.0455 -0.0303
19919TIP3   OH281171   1.150   4.867   0.038  0.4493 -0.1147  0.1401
19919TIP3    H181172   1.210   4.821  -0.020  0.8513  0.1529  0.3355
19919TIP3    H281173   1.205   4.931   0.084  0.2761 -0.8113  1.3527
19920TIP3   OH281174   1.312   1.599   1.645 -0.3009 -0.2424  0.3232
19920TIP3    H181175   1.274   1.677   1.686  1.1134  0.4097  0.4795
19920TIP3    H281176   1.237   1.552   1.608 -1.2183  1.1016  0.3821
19921TIP3   OH281177   4.100   4.247   3.074  0.3838 -0.4848  0.4482
19921TIP3    H181178   4.091   4.337   3.043 -0.6012 -0.0917  1.7857
19921TIP3    H281179   4.131   4.256   3.164  2.1186 -1.5653  0.0127
19922TIP3   OH281180   0.595   0.688   4.814 -0.1455  0.2689 -0.1008
19922TIP3    H181181   0.657   0.750   4.776 -0.2875  1.5908  1.6410
19922TIP3    H281182   0.518   0.692   4.757  1.1247 -1.0284 -2.0092
19923TIP3   OH281183   3.533   2.410   6.511 -0.0545 -0.2095 -0.3200
19923TIP3    H181184   3.546   2.334   6.454 -2.2480 -1.8184  1.1903
19923TIP3    H281185   3.438   2.417   6.521  0.2183  0.8157  2.0851
19924TIP3   OH281186   5.030   0.190   0.074 -0.4638 -0.0540 -0.3885
19924TIP3    H181187   5.080   0.183  -0.007 -0.0457  4.7830 -0.8005
19924TIP3    H281188   4.942   0.214   0.046 -0.4647  1.1162  0.5533
19925TIP3   OH281189   3.446   6.517  14.503  0.3996 -0.1951  0.2247
19925TIP3    H181190   3.366   6.470  14.527  0.0076  1.1274  1.6371
19925TIP3    H281191   3.417   6.585  14.442  1.1417 -2.4024 -2.8347
19926TIP3   OH281192   4.129   1.902  15.506  0.3377 -0.1087  0.2382
19926TIP3    H181193   4.037   1.912  15.480  0.4784 -2.0610 -1.3127
19926TIP3    H281194   4.125   1.855  15.589 -0.0651  0.2298  0.4138
19927TIP3   OH281195   4.170   0.627   2.049  0.2549 -0.5204  0.5320
19927TIP3    H181196   4.147   0.673   2.130 -1.9881 -0.2174 -0.1899
19927TIP3    H281197   4.265   0.636   2.042  0.2922  1.0024  2.1923
19928TIP3   OH281198   3.745   5.750   1.304 -0.4054 -0.6205 -0.2294
19928TIP3    H181199   3.777   5.674   1.354  0.2801 -0.6073 -0.6348
19928TIP3    H281200   3.686   5.713   1.239 -1.0063 -0.6768  0.3304
19929TIP3   OH281201   1.379   5.659  10.418  0.0502  0.4188 -0.3434
19929TIP3    H181202   1.427   5.722  10.363 -2.8079  3.6078  0.4191
19929TIP3    H281203   1.410   5.676  10.506  0.0136 -0.0396 -0.2404
19930TIP3   OH281204   0.248   0.685   5.899  0.1393  0.3072 -0.1143
19930TIP3    H181205   0.341   0.692   5.874  0.1336 -0.4519 -0.3600
19930TIP3    H281206   0.234   0.758   5.959  0.9750  0.2375  0.1729
19931TIP3   OH281207   1.193   2.711   0.783  0.0529 -0.3058  0.5221
19931TIP3    H181208   1.099   2.714   0.765 -0.1879  0.7190  1.8222
19931TIP3    H281209   1.201   2.657   0.862  0.2282  1.8759  2.0753
19932TIP3   OH281210   4.826   2.656   5.449  0.4901 -0.2397 -0.0904
19932TIP3    H181211   4.737   2.622   5.437  0.0490 -0.4362  2.8055
19932TIP3    H281212   4.866   2.595   5.511  2.3003  0.4212 -0.5525
19933TIP3   OH281213   3.565   0.445  14.362 -0.2740  0.6249  0.8238
19933TIP3    H181214   3.515   0.364  14.351  1.1893 -0.0147 -2.1646
19933TIP3    H281215   3.504   0.505  14.406 -2.8023 -0.8371 -0.4614
19934TIP3   OH281216   6.372   4.430  15.114  0.0978  0.3263 -0.1453
19934TIP3    H181217   6.287   4.472  15.101 -0.1636 -0.0693  0.2460
19934TIP3    H281218   6.379   4.367  15.042  0.1329  0.4682 -0.2671
19935TIP3   OH281219   5.489   2.692   2.897  0.0514  0.0571 -0.1893
19935TIP3    H181220   5.434   2.722   2.825  0.5718  0.8448 -0.2707
19935TIP3    H281221   5.501   2.769   2.952  0.2984 -0.3444  0.3283
19936TIP3   OH281222   1.023   4.497   3.846  0.1725  0.0863  0.4673
19936TIP3    H181223   1.043   4.591   3.846 -0.4731  0.2746 -1.5076
19936TIP3    H281224   0.971   4.484   3.767  0.0282 -1.9075  0.8425
19937TIP3   OH281225   4.381   5.410   5.063  0.8040 -0.3506 -0.4578
19937TIP3    H181226   4.364   5.474   4.994 -0.6107 -0.5211 -0.2915
19937TIP3    H281227   4.402   5.462   5.140 -0.4885 -0.0686 -0.2834
19938TIP3   OH281228   0.625   0.873  11.170  0.4029 -0.0342 -0.4805
19938TIP3    H181229   0.538   0.905  11.146  0.5298 -0.3590 -1.3863
19938TIP3    H281230   0.647   0.809  11.103  1.2871 -0.0608 -0.1795
19939TIP3   OH281231   5.351   6.483  16.613 -0.4031  0.4928  0.0241
19939TIP3    H181232   5.404   6.408  16.585  0.4959  1.3663 -0.7072
19939TIP3    H281233   5.339   6.470  16.707  0.1315 -0.3246 -0.0081
19940TIP3   OH281234   0.028   4.688   0.478 -0.0304  0.4341 -0.1117
19940TIP3    H181235  -0.017   4.653   0.402  0.6935 -3.4577  1.0195
19940TIP3    H281236   0.105   4.733   0.443 -0.2891 -0.3098 -1.6961
19941TIP3   OH281237   6.353   1.202  11.026  0.3633 -0.1724  0.1454
19941TIP3    H181238   6.339   1.282  10.975 -0.1497  0.1351  0.7579
19941TIP3    H281239   6.426   1.158  10.981  2.2379  1.7380  1.0987
19942TIP3   OH281240   5.450   0.792  13.949 -0.0081 -0.2193 -0.3383
19942TIP3    H181241   5.473   0.740  14.025 -1.5515  0.2757  0.5145
19942TIP3    H281242   5.429   0.727  13.881 -0.8321 -0.7144  0.3671
19943TIP3   OH281243   4.623   5.326   3.254 -0.3098 -0.4228 -0.2106
19943TIP3    H181244   4.579   5.300   3.173 -0.8206 -1.5069  0.3950
19943TIP3    H281245   4.657   5.244   3.290  1.1839  0.2321 -0.0519
19944TIP3   OH281246   5.157   0.789   1.198  0.4470 -0.0878  0.5335
19944TIP3    H181247   5.084   0.747   1.152  0.0998 -0.4548  1.3924
19944TIP3    H281248   5.221   0.718   1.211  0.0126 -0.2886  1.6758
19945TIP3   OH281249   5.967   1.601   6.610  0.0574  0.1216 -0.0880
19945TIP3    H181250   5.915   1.624   6.533 -0.1866  0.0475  0.0518
19945TIP3    H281251   6.055   1.587   6.576  0.3192  1.6822 -0.1238
19946TIP3   OH281252   0.638   1.198   5.817  0.0378  0.9151 -0.4397
19946TIP3    H181253   0.706   1.136   5.843 -1.5402  0.0218  1.8514
19946TIP3    H281254   0.595   1.156   5.742  0.4541  0.3281 -0.3595
19947TIP3   OH281255   2.780   0.516   4.650 -0.0759 -0.2648 -0.1771
19947TIP3    H181256   2.729   0.566   4.586 -2.0599  0.3826  1.7660
19947TIP3    H281257   2.859   0.569   4.664 -0.1989  0.2055 -1.1671
19948TIP3   OH281258   1.183   0.861  15.249  0.1479  0.0200  0.1431
19948TIP3    H181259   1.138   0.944  15.264 -2.5832 -1.1886 -0.5492
19948TIP3    H281260   1.199   0.826  15.336  3.4700  2.1911  0.5543
19949TIP3   OH281261   5.400   4.961   5.222  0.0554  0.3478 -0.0593
19949TIP3    H181262   5.430   4.880   5.264  2.7466  0.2538 -1.9313
19949TIP3    H281263   5.308   4.944   5.201 -0.2130 -1.1471  1.9679
19950TIP3   OH281264   1.493   2.351  12.788 -0.2093 -0.1133 -0.4639
19950TIP3    H181265   1.584   2.324  12.799 -0.3357 -0.4909 -0.3020
19950TIP3    H281266   1.496   2.425  12.729  0.3162  0.6138  0.4499
19951TIP3   OH281267   1.150   2.801  15.361  0.0437 -0.7503  0.0040
19951TIP3    H181268   1.198   2.825  15.282 -1.0878  0.7020 -0.2770
19951TIP3    H281269   1.124   2.884  15.400 -1.8607 -1.4733  0.3708
19952TIP3   OH281270   5.575   1.818   3.041  0.1317  0.1545 -0.6713
19952TIP3    H181271   5.489   1.848   3.071 -0.4381 -0.4918 -1.6091
19952TIP3    H281272   5.630   1.819   3.120 -0.8038  0.3054 -0.0067
19953TIP3   OH281273   0.865   5.345   0.010  0.4053 -0.1803  0.0589
19953TIP3    H181274   0.903   5.258   0.021  0.4783  0.0776  2.2487
19953TIP3    H281275   0.771   5.332   0.018  0.4577  0.0116  1.1102
19954TIP3   OH281276   1.049   2.254   0.234 -0.2236 -0.0369  0.0442
19954TIP3    H181277   1.052   2.181   0.173  1.9066 -0.6780  0.8068
19954TIP3    H281278   0.974   2.236   0.290 -0.7939 -0.6680 -0.9060
19955TIP3   OH281279   0.325   1.618   1.791  0.1525 -0.0070  0.0400
19955TIP3    H181280   0.295   1.683   1.855 -2.4034 -1.2273  0.1935
19955TIP3    H281281   0.265   1.545   1.801  0.7261 -0.9442 -2.6098
19956TIP3   OH281282   3.396   3.409   1.355 -0.1717  0.0465 -0.7447
19956TIP3    H181283   3.311   3.441   1.384  0.5767  0.4857  1.1871
19956TIP3    H281284   3.452   3.487   1.356  0.4747 -0.4115 -0.9903
19957TIP3   OH281285   2.289   3.609  13.765 -0.1826 -0.1952 -0.0139
19957TIP3    H181286   2.367   3.586  13.815  0.7910  2.6981  0.0209
19957TIP3    H281287   2.217   3.605  13.829  0.8436  2.2440  1.4478
19958TIP3   OH281288   5.845   4.709  13.102 -0.1903  0.5412  0.3634
19958TIP3    H181289   5.850   4.766  13.025  0.6429 -0.8036 -0.6212
19958TIP3    H281290   5.753   4.685  13.108 -0.2891  0.7803 -0.1281
19959TIP3   OH281291   2.013   6.395   2.145 -0.1634  0.1935 -0.3072
19959TIP3    H181292   1.973   6.432   2.066  0.1594  0.7093 -0.2389
19959TIP3    H281293   2.095   6.444   2.154 -1.2591  1.8151  1.6533
19960TIP3   OH281294   6.277   1.306   3.678  0.1119  0.5569 -0.2930
19960TIP3    H181295   6.339   1.344   3.616  1.2703 -0.7279  0.0185
19960TIP3    H281296   6.237   1.382   3.722 -0.6813  1.4929 -2.4814
19961TIP3   OH281297   0.008   3.229   3.373 -0.6241  0.0121 -0.2127
19961TIP3    H181298   0.087   3.199   3.329  0.9965 -0.4561  2.7657
19961TIP3    H281299  -0.031   3.149   3.410 -1.3436  0.4879  0.0937
19962TIP3   OH281300   4.454   4.294   5.246 -0.4366 -0.0121 -0.9329
19962TIP3    H181301   4.398   4.246   5.185 -0.6226 -1.5405  0.3728
19962TIP3    H281302   4.400   4.366   5.278 -0.3331  0.8227 -2.5399
19963TIP3   OH281303   5.174   6.353  13.078  0.3485  0.4782 -0.1588
19963TIP3    H181304   5.216   6.268  13.062  1.5055  0.9688  0.1651
19963TIP3    H281305   5.084   6.331  13.102  0.6148 -0.6520 -0.1329
19964TIP3   OH281306   2.618   1.408  11.727 -0.2470 -0.0753  0.4591
19964TIP3    H181307   2.697   1.389  11.677  0.6046  1.0423  1.3242
19964TIP3    H281308   2.584   1.322  11.751  0.3394 -0.5897 -0.4518
19965TIP3   OH281309   5.218   5.620  14.493  0.4343 -0.6057 -0.0062
19965TIP3    H181310   5.125   5.596  14.499  0.9319 -2.5634  0.6831
19965TIP3    H281311   5.219   5.715  14.506 -1.5597 -0.3396 -1.3003
19966TIP3   OH281312   0.518   0.638  11.625 -0.3319  0.3728  0.1130
19966TIP3    H181313   0.426   0.664  11.633 -0.7235 -0.1965 -2.0208
19966TIP3    H281314   0.533   0.629  11.531  1.8075  0.0476  0.4298
19967TIP3   OH281315   1.743   0.318  13.780  0.4075 -0.0507  0.0404
19967TIP3    H181316   1.788   0.234  13.771 -0.2310 -0.2357 -2.1954
19967TIP3    H281317   1.776   0.355  13.861  1.3593 -2.0677  0.6413
19968TIP3   OH281318   5.621   2.713   6.983  0.2951 -0.1110  0.6157
19968TIP3    H181319   5.542   2.763   7.004  0.6407  0.2559  1.0844
19968TIP3    H281320   5.610   2.688   6.891 -0.6316 -0.5705  0.8434
19969TIP3   OH281321   1.646   0.876  16.415 -0.1916 -0.2429  0.0996
19969TIP3    H181322   1.654   0.818  16.490  0.4707 -0.2777  0.0101
19969TIP3    H281323   1.736   0.896  16.390 -0.3594 -1.2222 -1.4607
19970TIP3   OH281324   0.204   1.890   3.620  0.2968  0.1345  0.1359
19970TIP3    H181325   0.288   1.933   3.637 -0.4178  1.1810  1.2532
19970TIP3    H281326   0.160   1.948   3.558 -0.1431  0.3477  0.6349
19971TIP3   OH281327   1.347   1.647   0.731  0.1738  0.5743 -0.5268
19971TIP3    H181328   1.297   1.579   0.685  2.3694 -2.8345  1.6304
19971TIP3    H281329   1.436   1.637   0.699  0.7283  1.7940  0.5479
19972TIP3   OH281330   4.992   2.752   0.060 -0.2969 -0.1746  0.5705
19972TIP3    H181331   4.934   2.818   0.023  0.3505  0.5957  0.9067
19972TIP3    H281332   4.944   2.670   0.050 -0.9290  0.2822 -0.2403
19973TIP3   OH281333   4.284   1.636  17.050  0.7227  0.6588  0.0353
19973TIP3    H181334   4.322   1.708  17.101 -1.9147  2.9226 -0.8999
19973TIP3    H281335   4.198   1.622  17.090  0.6360 -1.0528 -0.6927
19974TIP3   OH281336   6.672   3.860   1.558  0.3591  0.5956 -0.0702
19974TIP3    H181337   6.650   3.912   1.481  2.2119 -1.8376 -2.4047
19974TIP3    H281338   6.607   3.789   1.558  0.7457  0.2379  0.2573
19975TIP3   OH281339   3.762   5.866  13.706 -0.7988 -0.9678  0.5934
19975TIP3    H181340   3.742   5.884  13.798  0.7441 -0.0801  0.7804
19975TIP3    H281341   3.793   5.775  13.705 -1.7353 -1.3087  0.7677
19976TIP3   OH281342   3.148   2.847  15.080 -0.8208 -0.4092 -0.0838
19976TIP3    H181343   3.199   2.840  15.161  0.6722 -1.0074 -1.0385
19976TIP3    H281344   3.172   2.932  15.043 -0.9798 -0.4343 -0.2463
19977TIP3   OH281345   4.108   0.714   5.160  0.1267  0.1679  0.2476
19977TIP3    H181346   4.182   0.762   5.122  0.0158 -0.3423 -0.6400
19977TIP3    H281347   4.133   0.622   5.156 -0.2198  0.0477  0.7065
19978TIP3   OH281348   4.150   4.280   0.186 -0.0945 -0.4511  0.5130
19978TIP3    H181349   4.111   4.236   0.111 -0.1991  1.6085 -0.7100
19978TIP3    H281350   4.234   4.236   0.198 -0.5084 -1.4701 -0.1324
19979TIP3   OH281351   0.062   0.379   0.587  0.4101  0.0524 -0.1590
19979TIP3    H181352   0.149   0.353   0.617 -0.3694 -0.7759  1.5165
19979TIP3    H281353   0.013   0.399   0.667 -1.1623 -0.2161 -1.0002
19980TIP3   OH281354   1.789   0.390  10.916 -0.6952 -0.1917  0.2303
19980TIP3    H181355   1.881   0.366  10.907 -0.9072 -1.0277  0.1939
19980TIP3    H281356   1.756   0.331  10.984 -1.3101 -0.1957 -0.0668
19981TIP3   OH281357   4.464   2.287  15.301 -0.0862  0.2619  0.6305
19981TIP3    H181358   4.381   2.334  15.306  0.7220  1.8021  0.2017
19981TIP3    H281359   4.498   2.289  15.390 -0.1843  0.2415  0.6676
19982LIG     O181360   3.457   2.929   9.849 -0.2488  0.6772 -0.3776
19982LIG     O281361   3.650   3.333   9.731 -0.6929 -0.0063  0.1974
19982LIG     N181362   3.729   3.147   9.625  0.0643  0.3956 -0.0867
19982LIG     N281363   3.624   2.803   9.632  0.0314  0.6784  0.6281
19982LIG     N381364   3.550   3.132   9.797 -0.0269  0.1198  0.6234
19982LIG     N481365   3.781   2.919   9.530  0.1818  0.0546 -0.0775
19982LIG     C181366   3.618   2.933   9.685 -0.5275 -0.9533  0.3872
19982LIG     C281367   3.711   3.009   9.609  0.9185 -0.2357 -0.3206
19982LIG     C381368   3.538   2.990   9.781  0.1233  0.1591  0.7421
19982LIG     C481369   3.644   3.211   9.716 -0.5580  0.4955 -0.4856
19982LIG     C581370   3.724   2.805   9.541  0.2023  0.9573 -0.7458
19982LIG     C681371   3.816   3.234   9.548  0.2023 -0.1728 -0.2160
19982LIG     C781372   3.529   2.691   9.664  0.1748  0.3275 -0.3444
19982LIG     C881373   3.461   3.197   9.895 -0.0685 -0.2809 -0.8966
19982LIG     H181374   3.741   2.711   9.488 -1.1081 -1.6395  2.9770
19982LIG     H281375   3.875   3.308   9.605 -1.2379  0.5751  0.3272
19982LIG     H381376   3.751   3.287   9.475 -0.6661  1.4326  1.6332
19982LIG     H481377   3.894   3.174   9.495  0.6434 -1.2369  1.5586
19982LIG     H581378   3.499   2.695   9.771  2.2214 -0.4745  0.3014
19982LIG     H681379   3.576   2.593   9.642 -1.5290 -0.3912 -0.9483
19982LIG     H781380   3.434   2.677   9.606 -1.0734 -0.5854  1.8136
19982LIG     H881381   3.355   3.164   9.891  0.1350 -0.9843 -0.6973
19982LIG     H981382   3.472   3.307   9.889 -1.0962 -0.2149 -2.2170
19982LIG    H1081383   3.492   3.169   9.998  3.4618  0.5369 -1.6142
   6.77545   6.77545  17.39573
